<?xml version="1.0"?>
<VTKFile type="UnstructuredGrid" version="0.1" byte_order="LittleEndian">
  <UnstructuredGrid>
    <Piece NumberOfCells="1928" NumberOfPoints="5784">
      <PointData Scalars="S_aq">
        <DataArray type="Float32" Name="S_aq" NumberOfComponents="1" format="ascii">
          1 1 1 1 1 1 0.93618 0.999928 0.994168 1 1 1
          1 1 1 1 1 1 1 1 1 1 1 1
          1 1 1 1 1 1 1 1 1 1 1 1
          1 1 1 1 1 1 1 1 1 1 1 1
          1 1 1 1 1 1 1 1 1 1 1 1
          1 1 1 1 1 1 0.999981 1 1 1 1 1
          1 1 1 0.990261 0.968728 0.75131 1 1 1 1 1 1
          1 1 1 1 1 1 1 1 1 1 1 1
          1 1 1 0.999981 1 1 1 1 1 1 1 1
          1 1 1 1 1 1 1 1 1 1 1 1
          1 1 1 1 1 1 1 1 1 1 1 1
          1 1 1 1 1 1 1 1 1 1 1 1
          1 1 1 1 1 1 1 1 1 1 1 1
          1 1 1 1 1 1 0.994168 0.884321 0.787452 1 1 1
          1 1 1 1 1 1 1 1 1 0.999922 0.931129 0.999049
          1 1 1 1 1 1 1 1 1 1 1 1
          1 1 1 1 1 1 1 1 1 1 1 1
          0.787452 0.93618 0.994168 0.999997 0.968728 0.999997 1 1 1 1 1 1
          1 1 1 1 1 1 1 1 1 1 1 1
          1 1 1 1 1 1 1 1 1 1 1 1
          1 1 1 1 1 1 1 1 1 1 1 1
          1 1 1 1 1 1 1 1 1 1 1 1
          1 1 1 1 0.993294 1 1 1 1 1 1 1
          0.75131 0.932276 0.990261 1 1 1 1 1 1 1 1 1
          1 1 1 1 1 1 1 1 1 1 1 1
          1 1 1 1 1 1 1 1 1 1 1 1
          1 1 1 1 1 1 1 1 1 1 1 1
          1 1 1 1 1 1 1 1 1 0.971587 0.999995 0.995736
          1 1 1 1 1 1 1 1 1 1 1 1
          1 1 1 1 1 1 1 1 1 1 1 1
          1 1 1 1 1 1 1 1 1 1 1 1
          1 1 1 1 1 1 0.666826 0.5 0.772918 1 1 1
          1 1 1 1 1 1 1 1 1 1 1 1
          0.995736 0.798663 0.971587 1 1 1 1 1 1 1 1 1
          1 1 1 1 1 1 1 1 1 0.986077 0.99994 0.924894
          1 1 1 1 1 1 0.999509 0.884321 0.994168 1 1 1
          1 1 1 1 1 1 0.961106 0.961241 0.712084 1 1 1
          1 1 1 1 1 1 1 1 1 1 1 1
          1 1 1 1 1 1 0.973421 0.7427 0.977016 1 1 1
          1 1 1 1 1 1 1 1 1 1 1 1
          1 1 1 1 1 1 0.999049 0.931129 0.869992 1 1 1
          1 1 1 1 1 1 1 1 1 1 1 1
          1 1 1 1 0.999124 0.999981 1 1 1 1 1 1
          1 1 1 1 1 1 1 1 1 1 1 1
          1 1 1 1 1 1 1 1 1 1 1 1
          1 1 1 1 1 1 1 1 1 1 1 1
          1 1 1 1 1 1 0.5 0.5 0.662617 1 1 1
          1 1 1 1 1 1 0.701842 0.968728 0.772918 1 1 1
          1 1 1 1 1 1 1 1 1 1 1 1
          1 1 1 1 1 1 0.999981 1 1 1 1 0.5
          1 1 1 1 1 1 1 1 1 1 1 1
          1 1 1 0.772918 0.5 0.701842 1 1 1 1 1 1
          1 1 1 1 1 1 1 1 1 1 1 1
          1 1 1 1 1 1 1 1 1 1 1 1
          1 1 1 1 1 1 1 1 1 1 1 1
          1 1 1 1 1 1 1 1 1 1 1 1
          1 1 1 1 1 1 1 1 1 1 1 1
          1 1 1 1 1 1 1 1 1 1 1 1
          0.663335 1 0.5 1 1 1 1 1 0.993994 1 1 1
          1 1 1 1 1 1 0.999996 1 0.998567 1 1 1
          1 1 1 1 1 1 1 1 1 1 1 1
          1 1 1 1 1 1 1 1 1 1 1 1
          1 1 1 1 1 1 1 1 1 1 1 1
          1 1 1 1 1 1 1 1 1 1 1 1
          1 1 1 1 1 1 1 1 1 1 1 1
          1 1 1 1 1 1 1 1 1 0.999981 0.961241 0.999981
          1 1 1 1 1 1 1 1 1 1 1 1
          1 1 1 1 1 1 0.977016 0.7427 0.764008 1 1 1
          1 1 1 1 1 1 1 1 1 1 1 1
          1 1 1 1 1 1 0.999981 1 0.999981 1 1 1
          1 1 1 1 1 1 1 1 1 1 1 1
          1 1 1 1 1 1 1 1 1 1 1 1
          1 1 1 1 1 1 1 1 1 1 1 1
          1 1 1 1 1 1 1 1 1 1 1 1
          1 1 1 1 1 1 1 1 1 1 1 1
          1 1 1 1 1 1 1 1 1 1 1 1
          1 1 1 0.993994 0.999997 1 1 1 1 0.99994 0.999898 0.924894
          1 1 1 1 1 1 1 1 1 1 1 1
          1 1 1 1 1 1 1 1 1 1 1 1
          1 1 1 1 1 1 1 1 1 1 1 1
          1 1 1 1 1 1 1 1 1 1 1 1
          1 1 1 0.619623 0.5 0.662617 0.999975 1 1 1 1 1
          1 1 1 1 1 1 1 1 1 1 1 1
          1 1 1 1 1 1 1 1 1 1 1 1
          1 1 0.663335 1 1 1 0.999579 0.947556 0.853259 1 1 1
          1 1 1 1 1 1 1 1 1 1 1 1
          1 1 1 0.864976 1 0.663335 1 1 1 1 0.999995 0.999975
          1 1 1 1 0.999898 0.99994 1 1 1 1 1 1
          1 1 1 1 1 1 1 1 1 1 1 1
          1 1 1 1 1 1 1 1 1 1 1 1
          1 1 1 1 1 1 1 1 1 1 1 1
          1 1 1 1 1 1 1 1 1 1 1 1
          1 1 1 1 1 1 1 1 1 1 1 1
          1 1 1 1 1 1 0.973421 0.999996 0.998567 1 1 1
          1 1 1 1 1 1 0.977016 0.931129 0.999922 1 1 1
          1 1 1 1 1 1 0.961106 0.712084 0.800569 1 0.999898 1
          1 1 1 1 1 1 1 1 1 1 1 1
          1 1 1 1 1 1 1 1 1 1 1 1
          1 1 1 1 1 1 1 1 1 1 1 1
          1 1 1 1 1 1 1 1 1 1 1 1
          1 1 1 1 1 1 1 1 1 1 1 1
          1 1 1 1 1 1 1 1 1 1 1 1
          1 1 1 1 1 1 1 1 1 0.994168 0.999928 1
          1 1 1 1 1 1 1 1 1 1 1 1
          1 1 1 1 1 1 1 1 1 0.999922 0.999996 0.977016
          1 1 1 1 1 1 1 1 1 1 1 1
          1 1 1 1 1 1 1 1 1 1 1 1
          1 1 1 1 1 1 1 1 1 1 1 1
          1 1 1 1 1 1 1 1 1 1 1 1
          1 1 1 1 1 1 1 1 1 1 1 1
          1 1 1 0.968175 0.798663 0.995736 1 1 1 1 1 1
          1 1 1 1 1 1 1 1 1 0.75131 0.968728 0.701842
          1 1 1 1 1 1 1 1 1 0.999997 0.968728 0.990261
          1 1 1 0.5 0.5 0.75131 1 1 1 1 1 1
          1 1 1 1 1 1 1 1 1 1 1 1
          1 1 1 1 1 1 1 1 1 1 1 1
          1 1 1 1 1 1 1 1 1 1 1 1
          1 1 1 1 1 1 1 1 1 1 1 1
          1 1 1 1 1 1 1 1 1 1 1 1
          1 1 1 1 1 1 0.662617 0.931129 0.764008 1 1 1
          1 1 1 1 1 1 1 1 1 1 1 1
          0.742288 0.5 0.671471 1 0.999997 0.999997 1 1 1 1 1 1
          1 1 1 1 1 1 1 1 1 1 1 1
          1 1 1 1 1 1 1 1 1 1 1 1
          1 1 1 1 1 1 1 1 1 1 1 1
          1 1 1 1 1 1 1 1 1 1 1 1
          1 1 1 1 1 1 1 1 0.999922 0.723057 0.982219 0.971251
          1 1 1 1 1 1 1 1 1 1 1 1
          1 1 1 1 1 1 1 1 1 1 1 1
          1 1 1 1 1 1 1 1 1 1 1 1
          1 1 1 1 1 1 1 1 1 1 1 1
          1 1 1 1 1 1 1 1 1 1 1 1
          1 1 1 0.772918 0.968728 0.983604 1 1 1 0.712084 0.961241 0.761793
          1 1 1 1 1 1 1 1 1 1 1 1
          1 1 1 1 1 1 1 1 1 1 1 1
          1 1 1 1 1 1 1 1 1 1 1 1
          1 1 1 1 1 1 0.983604 0.968728 0.999997 1 1 1
          1 1 1 1 1 1 1 1 1 1 1 1
          1 1 1 1 1 1 0.961106 1 0.999981 1 1 1
          1 1 1 1 1 1 1 1 1 1 1 1
          1 1 1 1 1 1 1 1 1 1 1 1
          1 1 1 0.869992 0.931129 0.662617 1 1 1 1 1 1
          1 1 1 1 1 1 1 1 1 0.999997 1 1
          1 1 1 1 1 1 1 1 1 1 1 1
          1 1 1 0.714506 0.5 0.798663 1 1 1 1 1 1
          1 1 1 1 1 1 1 1 1 1 1 1
          1 1 1 1 1 1 1 1 1 1 1 1
          1 1 1 1 1 1 1 1 1 1 1 1
          1 1 0.999998 1 1 1 1 1 1 1 1 1
          1 1 1 1 1 1 0.869992 0.662617 0.65669 1 1 1
          1 1 1 1 1 1 1 1 1 1 1 1
          0.5 0.5 0.671471 1 1 0.999699 1 1 1 1 1 1
          1 1 1 0.996898 0.999049 0.869992 1 1 1 1 1 1
          1 1 1 1 1 1 1 1 1 1 1 1
          0.798663 0.5 0.719076 1 1 1 1 1 1 1 1 1
          1 1 1 1 1 1 1 1 1 1 1 1
          1 1 1 0.999981 1 1 0.662617 0.5 0.65669 1 1 1
          1 1 1 1 1 1 1 1 1 1 1 1
          1 1 1 1 1 1 1 1 1 1 1 1
          1 1 1 0.983604 0.999997 0.993994 1 1 1 1 1 1
          1 1 1 0.999049 1 1 1 1 1 1 1 1
          1 1 1 1 1 1 0.991009 1 1 0.999997 1 1
          1 1 1 1 1 1 0.999981 0.961241 0.961106 1 1 1
          1 1 1 1 1 1 1 1 0.99994 1 1 1
          1 1 1 1 1 1 1 1 1 1 1 1
          1 1 1 1 1 1 1 1 1 0.99994 0.999124 1
          1 1 1 0.663335 0.7427 0.864976 1 1 1 1 1 1
          1 1 1 1 1 1 1 1 1 1 1 1
          1 1 1 1 1 1 0.5 0.5 0.701842 0.677449 0.932276 0.75131
          1 1 1 1 1 1 1 1 1 1 1 1
          1 1 1 1 0.999509 0.994168 1 1 1 0.999922 0.999049 1
          1 1 1 1 1 1 1 1 1 1 1 1
          1 1 1 1 1 1 1 1 1 1 1 1
          1 1 1 1 1 1 1 0.999509 1 1 1 1
          1 1 1 1 1 1 0.999998 1 1 1 1 1
          1 1 1 1 1 1 1 1 1 1 1 1
          1 1 1 1 1 1 1 1 1 1 1 1
          1 1 1 0.621876 0.5 0.648127 1 1 1 1 1 1
          1 1 1 1 1 1 1 1 1 1 1 1
          1 1 1 1 1 1 1 1 1 0.99994 1 1
          1 1 1 1 1 1 1 1 1 1 1 1
          1 1 1 1 1 1 0.884321 0.5 0.681689 1 0.993294 1
          1 1 1 1 1 1 1 1 1 1 1 1
          0.982219 1 0.999998 1 1 1 1 1 1 0.663335 0.5 0.598887
          1 1 1 1 1 1 1 1 1 1 1 1
          1 1 1 1 1 1 1 1 1 1 1 1
          0.995736 0.999995 1 1 1 1 1 1 1 1 1 1
          1 1 1 1 1 1 1 1 1 1 1 1
          1 1 1 1 1 1 1 1 1 1 1 1
          1 1 1 1 1 1 1 1 1 0.5 0.5 0.666826
          0.982219 0.723057 0.991009 1 1 1 0.787452 0.884321 0.681689 1 1 1
          1 1 1 1 1 1 1 1 1 1 1 1
          1 1 1 1 1 1 1 1 1 1 1 1
          0.699117 0.94749 0.719076 1 1 1 1 1 1 0.94749 0.857496 0.999062
          1 1 1 1 1 1 1 1 1 1 1 1
          1 1 1 1 1 1 1 0.993294 1 1 1 1
          1 1 1 1 1 1 1 1 1 1 1 1
          1 1 1 1 1 1 1 1 1 0.869992 0.83856 0.996898
          1 1 1 0.5 0.5 0.598887 1 1 1 1 1 1
          0.996898 1 0.999049 1 1 1 1 1 1 1 1 1
          1 1 1 1 1 1 1 1 1 1 1 1
          1 1 1 1 1 1 1 1 1 1 1 1
          1 1 1 1 1 1 1 1 1 1 1 0.999981
          1 1 1 1 1 1 1 1 1 1 1 1
          1 1 1 1 1 1 1 1 1 1 1 1
          1 1 1 1 1 1 1 1 1 1 1 1
          1 1 1 1 1 1 1 1 1 1 1 1
          1 1 1 1 1 1 1 1 1 1 1 1
          1 1 1 1 1 1 1 1 1 1 1 1
          1 1 1 1 1 1 1 1 1 0.5 0.5 0.65669
          1 1 0.999997 1 1 1 1 1 1 1 1 1
          1 1 1 1 1 1 1 1 1 1 1 1
          1 1 1 1 1 1 1 1 1 0.75131 0.5 0.677449
          1 1 1 1 1 1 1 1 1 1 1 1
          1 1 1 1 1 1 1 1 1 1 1 1
          1 1 1 1 1 1 1 1 1 1 1 1
          1 1 1 0.999998 0.947556 0.999579 1 1 1 1 1 1
          1 1 1 1 1 1 1 1 1 1 1 1
          0.956356 0.999124 0.865087 1 1 1 0.65669 0.83856 0.869992 1 1 1
          0.701842 0.5 0.75131 1 1 1 1 1 1 1 1 1
          1 1 1 1 1 1 1 1 1 1 1 1
          1 1 1 1 1 1 1 1 1 1 1 1
          1 1 1 1 1 1 1 1 1 1 1 1
          1 1 1 1 1 1 1 1 1 1 1 1
          1 1 1 0.619623 0.662617 0.764008 1 1 1 1 1 1
          1 1 1 1 1 1 1 1 1 1 1 1
          1 1 1 1 1 1 1 1 1 1 1 1
          1 1 1 1 1 1 1 1 1 0.999998 0.999898 1
          1 1 1 0.961106 1 1 0.864976 0.7427 0.973421 1 1 1
          1 1 1 1 1 1 1 1 1 1 1 1
          1 1 1 0.5 0.5 0.621876 1 1 1 0.986077 0.999124 0.99994
          1 1 1 1 1 1 1 1 1 1 1 1
          0.5 0.5 0.714506 1 1 1 1 1 1 1 1 1
          1 1 1 1 1 1 1 1 1 1 1 1
          1 1 1 1 1 1 1 1 1 1 1 1
          1 0.999509 1 1 1 1 1 1 1 1 1 1
          1 1 1 1 1 1 1 1 1 1 1 1
          1 1 1 1 1 1 1 1 1 1 1 1
          1 1 1 1 1 1 1 1 1 1 1 1
          1 1 1 1 1 1 1 1 1 1 1 1
          1 1 1 1 1 1 1 1 1 1 1 1
          1 1 1 1 1 1 1 1 1 1 1 1
          1 1 1 1 1 1 1 1 1 1 1 1
          1 1 1 1 1 1 1 1 1 1 1 1
          1 1 1 1 1 1 1 0.993294 1 1 1 1
          1 1 1 1 1 1 1 1 1 1 1 1
          1 1 1 1 1 1 1 1 1 1 1 1
          1 1 1 1 1 1 0.719076 0.5 0.699117 1 1 1
          1 1 1 1 1 1 1 1 1 1 1 1
          1 1 1 0.5 0.5 0.719076 1 1 1 1 1 1
          1 1 1 1 1 1 0.676139 0.5 0.742288 1 1 1
          1 1 1 1 1 1 1 1 1 0.65669 0.5 0.666826
          1 1 1 1 1 1 0.666826 0.83856 0.65669 1 1 1
          1 1 1 1 1 1 0.857496 0.998895 0.999062 0.979604 0.999928 0.93618
          1 1 1 1 1 1 1 1 1 1 1 1
          1 1 1 1 1 1 1 1 1 1 1 1
          0.699117 0.857496 0.94749 1 1 1 1 1 1 1 1 1
          1 1 1 0.999579 0.853259 0.971251 1 1 1 1 1 1
          1 1 1 0.990261 1 0.999997 1 1 1 0.5 0.5 0.619623
          1 1 1 0.5 0.5 0.594509 1 1 1 1 1 1
          1 1 1 1 1 1 1 1 1 1 1 1
          0.991009 0.723057 0.989211 1 1 1 1 1 1 1 0.999579 0.999998
          1 1 1 0.5 0.5 0.584448 1 1 1 1 1 1
          0.681689 0.5 0.5 1 1 1 1 1 1 1 1 1
          1 1 1 0.5 0.5 0.676139 1 1 1 1 1 1
          1 1 1 1 1 1 1 1 1 1 1 1
          1 1 1 1 1 1 1 1 1 1 1 1
          1 1 1 1 1 1 1 1 1 1 1 1
          0.5 0.5 0.699117 1 1 1 1 1 1 1 0.999996 1
          1 1 1 1 1 1 1 1 1 1 1 1
          1 1 1 1 1 1 1 1 1 1 1 1
          1 1 1 1 1 1 1 1 1 1 1 1
          1 1 1 1 1 1 1 1 1 1 1 1
          1 1 1 1 1 1 1 1 1 1 1 1
          1 1 1 0.982219 0.999998 0.971251 1 1 1 1 1 1
          1 1 1 1 1 1 1 1 1 1 1 1
          0.764008 0.931129 0.977016 1 1 1 1 1 1 1 1 1
          1 1 1 1 1 1 1 1 1 1 1 1
          1 1 1 1 1 1 0.865087 0.999124 0.986077 1 1 1
          1 0.993294 1 1 1 1 1 1 1 1 1 1
          1 1 1 0.956356 0.701811 0.761793 1 1 1 1 1 1
          1 1 1 1 1 1 1 1 1 1 1 1
          1 1 1 0.956356 0.961241 0.999981 1 1 1 1 1 1
          1 1 1 1 1 1 1 1 1 1 1 1
          1 0.999996 0.999922 1 1 1 1 1 1 1 1 1
          1 1 1 1 1 1 1 1 1 1 1 1
          1 1 1 1 1 1 1 1 1 1 1 1
          1 1 1 1 1 1 1 1 1 1 1 1
          1 1 1 1 1 1 1 1 1 1 1 1
          0.924894 0.742288 0.671471 1 1 1 1 1 1 1 1 1
          1 1 1 1 1 1 1 1 1 1 1 1
          1 1 1 1 1 1 1 1 1 1 1 1
          1 1 1 1 1 1 1 1 1 1 1 1
          0.924894 0.767527 0.986077 1 1 1 1 1 1 1 1 1
          0.5 1 0.669547 1 1 1 0.999998 1 0.947556 1 1 1
          1 1 1 1 1 1 1 1 1 0.993994 0.772918 0.983604
          1 1 1 1 1 1 1 1 1 1 1 1
          1 1 1 1 1 1 1 1 1 1 1 0.991009
          1 1 1 1 1 1 1 1 1 1 1 1
          0.681689 0.5 0.787452 1 1 1 1 1 1 1 1 1
          1 1 1 1 1 1 1 1 1 1 1 1
          1 1 1 1 1 1 1 1 1 0.699117 0.5 0.857496
          1 1 1 1 1 1 1 1 1 1 1 1
          1 1 1 0.669547 1 1 1 1 1 1 1 1
          1 1 1 1 1 1 1 1 1 0.979604 0.742288 0.924894
          1 1 1 1 1 1 0.999998 1 1 1 1 1
          1 1 1 1 1 1 1 1 1 1 1 1
          1 1 1 1 1 1 1 1 1 1 1 1
          1 1 1 1 1 1 1 1 1 1 1 1
          1 1 1 1 1 1 0.761793 0.961241 0.956356 1 1 1
          1 0.993294 1 1 1 1 1 1 1 0.999998 0.999928 0.979604
          1 1 1 1 1 1 1 1 1 1 1 1
          1 1 1 1 1 1 1 1 1 1 1 1
          1 1 1 1 1 1 1 1 1 1 1 1
          1 1 1 1 1 1 1 1 1 1 1 1
          1 1 1 1 1 1 1 1 1 1 1 1
          1 1 1 1 1 1 1 1 1 1 1 1
          1 1 1 1 1 1 1 1 1 1 1 1
          1 0.999996 1 0.996898 0.83856 0.892471 1 1 1 1 1 1
          1 1 1 1 1 1 0.800569 1 0.961106 1 1 1
          1 1 1 1 1 1 1 1 1 1 1 1
          1 1 1 1 1 1 1 1 1 1 1 1
          1 1 1 1 1 1 1 1 1 1 1 1
          1 1 1 1 1 1 1 1 1 0.787452 0.5 0.676139
          1 1 1 1 1 1 1 1 0.999998 1 1 1
          1 1 1 1 1 1 0.977016 0.999996 0.973421 1 1 1
          0.5 0.5 0.677449 1 1 1 1 1 1 1 1 1
          1 1 1 0.999699 1 0.989211 1 1 1 1 1 1
          0.998895 1 1 1 1 1 1 1 1 1 1 1
          1 1 1 0.999579 1 0.999998 1 1 1 1 1 1
          1 1 1 0.993994 1 0.996898 1 1 1 1 1 1
          0.93618 0.742288 0.979604 1 1 1 1 1 1 1 1 1
          1 1 1 1 1 1 1 1 1 0.999998 0.999579 0.971251
          1 1 1 1 1 1 1 1 1 0.999981 0.999124 0.956356
          1 1 1 1 1 1 1 1 1 1 1 1
          1 1 1 1 1 1 1 1 1 1 1 1
          1 1 0.864976 1 1 1 1 1 1 1 1 1
          1 1 1 1 1 1 1 1 1 0.853259 0.947556 0.999699
          1 1 1 1 1 1 1 1 1 1 1 1
          1 1 1 1 1 1 1 1 1 1 1 1
          1 1 1 1 1 1 1 1 1 1 1 1
          1 1 1 1 1 1 1 1 1 1 1 1
          1 1 1 1 1 1 1 1 1 1 1 1
          1 1 1 1 1 1 1 1 1 1 1 1
          1 1 1 1 1 1 1 1 1 1 1 1
          1 1 1 1 1 1 1 1 1 1 1 1
          1 1 1 1 1 1 1 1 1 1 1 1
          1 1 1 1 1 1 1 1 1 1 1 1
          1 1 1 1 1 1 1 1 1 1 1 1
          1 1 1 1 1 1 1 1 1 1 1 1
          1 1 1 1 1 1 1 1 1 1 1 1
          1 1 1 1 1 1 1 1 1 1 1 1
          1 1 1 1 1 1 1 1 1 1 1 1
          1 1 1 1 1 1 1 1 1 1 1 1
          1 1 1 1 1 1 1 1 1 1 1 1
          1 1 1 1 1 1 1 1 1 0.968175 0.932276 0.714506
          1 1 1 1 1 1 1 1 1 1 1 1
          1 1 1 1 1 1 1 1 1 1 1 1
          1 1 1 0.947556 1 1 1 1 1 1 1 1
          1 1 1 1 1 1 0.892471 0.993994 0.996898 1 1 1
          0.671471 0.767527 0.924894 1 1 1 1 1 1 1 1 1
          1 1 1 1 1 1 1 1 1 1 1 1
          1 0.993294 1 1 1 1 1 1 1 0.971587 0.94749 0.999975
          1 1 1 1 1 1 1 1 1 1 1 1
          1 1 1 1 1 1 0.719076 0.94749 0.971587 1 1 1
          1 1 1 1 1 1 1 1 1 1 1 1
          1 1 1 1 1 1 1 1 1 1 1 1
          1 1 1 1 1 1 1 1 1 0.999922 1 1
          1 1 1 1 1 1 1 1 1 1 1 1
          1 1 1 0.714506 0.932276 0.677449 1 1 1 0.989211 0.723057 0.853259
          1 1 1 1 1 1 1 1 1 1 1 1
          1 1 1 1 1 1 1 1 1 1 1 1
          1 1 1 1 1 1 1 1 1 1 1 1
          1 1 1 1 1 1 1 1 1 0.989211 1 0.991009
          1 1 1 1 1 1 1 1 1 1 1 1
          1 1 1 1 1 1 1 1 1 1 1 1
          1 1 1 1 1 1 1 1 1 1 1 1
          1 1 1 1 1 1 1 1 1 1 1 1
          1 1 1 1 1 1 1 1 1 1 1 1
          1 1 1 1 1 1 1 1 1 1 1 1
          1 1 1 1 1 1 1 1 1 1 1 1
          1 1 1 1 1 1 1 1 1 1 1 1
          1 1 1 1 1 1 1 1 1 1 1 1
          1 1 1 1 1 1 1 1 1 1 1 1
          1 1 1 1 1 1 1 1 1 1 1 1
          1 1 1 1 1 1 1 1 1 1 1 1
          1 1 1 0.800569 1 1 0.892471 0.772918 0.993994 1 1 1
          1 1 1 1 1 1 1 1 1 1 1 1
          1 1 1 1 1 1 1 1 1 1 1 1
          1 1 1 0.621876 0.767527 0.671471 1 1 1 1 1 1
          1 1 1 1 1 1 1 1 1 1 1 1
          1 1 1 1 1 1 1 1 1 1 1 1
          1 1 1 1 1 1 1 1 1 1 1 1
          0.764008 0.7427 0.619623 1 1 1 1 1 1 0.990261 0.932276 0.999939
          1 1 1 0.991009 1 1 1 1 1 1 1 1
          1 1 1 1 1 1 1 1 1 1 1 1
          1 1 1 1 1 1 1 1 1 0.998567 1 0.864976
          0.999998 1 1 1 1 1 1 1 1 1 1 1
          1 1 1 1 1 1 1 1 1 1 1 1
          0.999699 0.947556 1 1 1 1 1 1 1 1 1 1
          1 1 1 1 1 1 1 1 1 1 1 1
          1 1 1 1 1 1 1 1 1 1 0.999995 1
          1 1 1 1 1 1 1 1 0.999939 1 1 1
          1 1 1 1 1 1 1 1 1 1 1 1
          1 1 1 1 1 1 1 1 1 1 1 1
          0.892471 0.83856 0.666826 1 1 1 1 1 1 1 1 1
          1 1 1 1 1 1 1 1 1 1 1 1
          1 1 1 1 1 1 1 1 1 1 1 1
          1 1 1 1 1 1 1 1 1 1 1 1
          1 1 1 1 1 0.998567 0.598887 0.7427 0.663335 0.924894 0.999898 0.979604
          1 1 1 0.989211 0.853259 0.999699 1 1 1 1 1 1
          1 1 1 1 1 1 1 1 1 1 1 1
          1 1 1 1 1 1 1 1 1 1 1 1
          1 1 1 1 1 1 0.622729 0.5 0.584448 1 1 1
          1 1 1 1 1 1 0.648127 0.701811 0.865087 1 1 1
          1 1 1 1 1 1 0.999939 0.995736 1 1 1 1
          1 1 1 1 1 0.998567 1 0.999928 1 1 1 1
          1 1 1 1 1 1 1 1 1 1 1 1
          1 1 1 1 1 1 1 1 1 1 1 1
          1 1 1 1 1 1 0.999062 0.998895 1 1 1 1
          1 1 1 0.619623 0.7427 0.598887 0.971587 0.798663 0.719076 1 1 1
          1 0.994168 1 1 1 1 1 1 1 1 1 1
          1 1 1 1 1 1 0.999939 1 0.990261 1 1 1
          1 1 1 1 1 1 1 1 1 1 1 1
          1 1 1 1 1 1 0.853259 0.723057 0.971251 1 1 1
          1 1 1 1 1 1 1 1 1 1 1 1
          1 1 1 1 1 1 1 1 1 1 1 1
          1 1 1 0.999975 0.999995 0.971587 1 1 1 1 1 1
          1 1 1 1 1 1 1 1 1 1 1 1
          1 1 1 1 1 1 0.598887 0.5 0.619623 0.671471 0.5 0.621876
          1 1 1 1 1 1 1 1 1 1 1 0.999062
          1 1 1 1 1 1 0.761793 0.701811 0.622729 1 1 1
          1 1 1 1 1 1 1 1 1 0.864976 0.973421 0.998567
          1 1 1 0.979604 0.999898 0.999998 1 1 1 1 1 1
          1 1 1 0.865087 0.701811 0.956356 1 1 1 1 1 1
          1 1 1 1 1 1 1 1 1 1 1 1
          1 1 1 1 1 1 1 1 1 1 1 1
          1 1 1 1 1 1 1 1 1 1 1 1
          1 1 1 1 1 1 1 1 1 1 1 1
          1 1 1 1 1 1 1 1 1 1 1 1
          1 1 1 1 1 1 1 1 1 1 1 1
          0.93618 0.787452 0.676139 1 1 1 1 1 1 1 1 1
          1 1 1 1 1 1 1 1 1 1 1 1
          1 1 1 1 1 1 1 1 1 1 1 1
          1 1 1 0.865087 0.767527 0.648127 1 1 1 0.669547 1 0.800569
          1 1 1 1 1 1 1 1 0.999579 1 1 1
          1 1 1 1 1 1 1 1 1 1 1 1
          0.622729 0.712084 0.761793 1 1 1 1 1 1 0.584448 0.712084 0.622729
          1 1 1 1 1 1 1 1 1 1 1 1
          1 1 1 1 1 1 1 1 1 1 0.995736 1
          1 1 1 0.676139 0.742288 0.93618 1 1 1 1 1 1
          1 1 1 1 1 1 1 1 1 1 1 1
          0.594509 0.701811 0.648127 1 1 1 1 1 1 1 0.999928 0.999998
          1 1 1 1 1 1 0.714506 0.798663 0.968175 1 1 1
          1 1 1 1 1 1 1 1 1 1 1 1
          1 1 1 1 1 1 1 1 1 1 1 1
          1 1 0.999699 1 1 1 1 1 1 1 1 1
          1 1 1 1 1 1 1 1 1 1 1 1
          1 1 1 1 1 1 1 1 1 1 1 1
          1 1 0.982219 1 1 1 1 1 1 1 1 1
          1 1 1 1 1 1 1 1 1 0.666826 0.772918 0.892471
          1 1 1 1 1 1 1 1 1 1 1 1
          1 1 1 1 1 1 0.800569 0.712084 0.669547 1 1 1
          1 1 1 1 1 1 1 1 1 0.999062 1 0.999975
          0.594509 0.5 0.622729 1 1 1 1 1 1 1 1 1
          1 1 1 1 1 1 1 1 1 1 1 1
          0.991009 1 0.982219 1 1 1 1 1 1 1 1 1
          1 1 1 1 1 1 1 1 1 1 1 1
          1 1 1 1 1 1 1 1 1 1 0.999997 1
          0.622729 0.701811 0.594509 1 1 1 1 1 1 1 1 1
          1 1 1 1 1 1 1 1 1 1 1 1
          1 1 1 0.677449 0.5 0.714506 0.999939 0.932276 0.968175 0.648127 0.5 0.594509
          0.986077 0.767527 0.865087 1 1 1 1 1 1 1 1 1
          1 1 1 1 1 1 1 1 1 1 1 1
          0.968175 0.995736 0.999939 1 1 1 1 1 1 0.999975 0.94749 0.999062
          1 1 1 1 1 1 1 1 1 1 1 1
          1 1 1 1 1 1 1 1 1 1 1 1
          1 1 1 1 1 1 1 1 1 1 1 1
          1 1 1 1 1 1 1 1 1 1 1 1
          1 1 1 1 1 1 1 1 1 1 1 1
          0.584448 0.5 0.669547 0.648127 0.767527 0.621876 0.669547 0.712084 0.584448 1 1 1
          1 1 1 1 1 1 1 1 1 1 1 0.999998
        </DataArray>
        <DataArray type="Float32" Name="p_aq" NumberOfComponents="1" format="ascii">
          163418 165804 162948 116626 124164 119494 186766 181003 180907 147833 149942 148270
          149942 150447 148270 165804 166735 162948 116626 123529 124164 161440 159696 164389
          159696 159709 164389 142752 142266 140917 107146 111852 112598 133562 130614 133183
          138420 140329 138796 162058 157373 157409 127866 128838 129690 161971 164658 162014
          104640 110013 110131 151144 149169 150651 149169 148433 150651 135215 136550 134009
          145359 143613 145652 169007 171612 169093 183596 181957 180102 145652 147212 145359
          138850 137891 139876 177902 180481 194731 165939 162948 169093 153233 151144 150651
          145652 144388 147122 135753 134883 132996 163884 165302 162789 148194 149760 147122
          165804 162815 166029 183596 180102 181407 134899 133040 132329 150651 152786 153233
          158250 160573 161066 124164 129633 130128 132996 134883 132727 152142 150447 152162
          140338 139351 142144 115132 120686 119749 152142 152162 153798 142872 144978 146009
          152515 153800 154859 120872 121647 124321 144281 142752 141723 141433 139238 138807
          162024 163884 162789 142555 140434 140775 150307 151621 149443 149838 149760 148194
          142094 140621 139894 148433 149177 150651 180907 187212 191981 157651 156323 158568
          138850 141120 139060 140775 140434 138845 136896 137891 138850 181633 186360 181939
          142094 142391 140621 146951 149177 148433 158647 158104 159605 161118 162948 165939
          128838 130793 129690 162014 159847 161971 174091 169963 170560 158647 156613 158104
          191981 186766 180907 177040 180481 173969 135786 133876 135432 156097 157478 154800
          158686 157478 156097 164750 168200 164658 156999 158250 159279 136550 135731 134009
          155051 154118 149302 166582 169963 168092 142752 144293 142266 162058 161822 157373
          140787 141120 138850 156097 157745 158686 115132 113320 107858 126925 123293 128230
          145625 144565 148215 158077 156160 156118 170172 172670 172527 133562 131585 130614
          159914 162521 160573 121915 124665 125220 142872 142635 144978 140329 140917 138796
          194731 182972 177902 137891 140142 139876 152609 155965 154787 154800 153798 156097
          174775 177182 177406 137527 139094 139904 161764 161495 163828 159279 158250 161066
          130614 126762 128796 153931 152609 150644 106933 109298 105585 169007 169093 166735
          161118 162058 157409 136088 139094 137527 135753 137646 137891 150644 151360 153931
          146754 145233 146951 146951 148433 146754 128230 123293 123506 179624 173870 175496
          151621 153800 152515 168101 169963 166582 171434 168238 168446 143039 144540 146987
          155051 149302 151203 145410 142752 144281 172665 169963 174091 159853 161971 159847
          154336 150933 152515 172979 175860 176043 165353 168238 166711 154800 152786 152142
          160571 160573 158077 154922 153798 152162 196369 200000 191193 164934 163815 166996
          129863 132329 130992 130793 131548 129690 143039 140338 142144 125345 124592 121667
          175496 188101 179624 163410 161764 163828 137891 137646 140142 157884 160170 158582
          169093 171612 172979 139706 137479 137056 121952 125455 121667 185807 181980 186737
          151360 154422 153931 134969 136402 134392 177426 187212 180907 123411 124125 125666
          152142 153798 154800 161971 164750 164658 188815 187542 194268 168200 166996 164658
          142094 144388 142391 142872 146009 145220 162755 162833 160571 129963 132576 130796
          135753 135618 137646 159993 159847 162014 186361 193187 185256 129266 126762 130614
          142606 144583 144165 146951 145233 144238 174091 176249 172665 124321 124015 120872
          134739 136610 135894 143020 145075 144388 181939 186360 187944 160573 162755 160571
          133367 133690 131183 146550 146865 144581 144238 146107 146951 161107 166563 161658
          134899 136689 137399 181407 183929 183596 157902 159853 159847 177406 177182 179285
          134134 133876 135786 154922 157745 156097 131112 131190 128796 139005 140434 141723
          138605 138371 141285 145652 147122 148004 133871 132996 131334 166438 165312 164374
          137648 139682 137922 147336 149443 148490 160573 162442 162755 160571 162833 160573
          147102 149521 150166 170523 170172 172527 200000 200000 196672 158077 160573 158250
          129452 128038 126950 128146 130988 130413 197017 180481 191193 137399 136610 134899
          156097 153798 154922 160573 162521 162442 146987 144921 143039 156999 157626 154336
          169244 166485 166711 137646 135618 136534 184966 187042 184171 195560 200000 200000
          139682 140094 137922 148215 144565 144833 141537 143613 143436 142619 141915 144833
          129963 132215 132576 191193 200000 197017 169583 167117 166996 107291 111686 106448
          156160 158250 156999 131334 128665 129989 107858 113320 106933 144833 141915 142270
          137370 135774 137922 148215 148441 145625 124592 119829 121667 118951 117351 115980
          135505 139094 136088 144165 142062 142606 168084 166485 169244 156717 157478 158878
          122181 119942 116954 149381 146386 147264 121457 118951 119580 144238 145233 142844
          143062 140934 140784 131565 132329 129863 140329 139005 141723 179944 181446 179157
          148516 146865 146550 113788 109277 114913 137890 138280 139982 124125 126058 125666
          195284 195560 200000 141697 140705 139493 176043 179010 181642 178047 175946 174528
          166907 161440 164389 158077 158250 156160 183019 182901 185519 169868 164018 168926
          121457 121647 118951 166029 162815 164603 117351 114732 113929 112816 106933 113320
          134478 136759 136534 126950 126058 124611 158878 157478 159569 157202 159853 157902
          164292 162521 163696 100000 100000 107858 155484 156323 157651 114732 110131 110013
          142844 141713 144238 128796 126762 124321 137646 136534 138732 137279 136402 134969
          166408 168238 165353 166996 168200 170651 163418 162815 165804 150166 147657 147102
          142346 140378 137485 168200 172407 170651 109277 112399 114913 183596 187542 184966
          170651 173197 169583 132576 134392 134836 115132 115546 120686 132215 134392 132576
          117351 118657 114732 123931 124994 122685 185256 193187 192668 164374 165312 163696
          134899 132329 133511 131334 132557 133871 147122 144388 145815 153228 154922 152162
          134739 135894 134594 125939 127574 123699 184966 181957 183596 129044 126875 129863
          138371 136150 137947 152528 150933 154336 126950 128038 126058 128038 129452 129963
          168446 170990 171434 175860 179010 176043 125666 126875 123938 126479 128727 126950
          141551 143613 141537 152598 151621 150307 161107 154118 155051 128727 129452 126950
          126488 126875 129044 139615 137089 137975 134739 133040 134899 123529 129633 124164
          107146 106148 111852 142266 144293 143988 133075 134534 131534 133040 133367 130700
          121485 115546 119248 144388 145075 146368 170523 169732 168205 119382 122181 116954
          123699 127574 124294 181642 177040 176043 139238 139682 137648 181980 182056 186737
          138383 138807 136550 129044 128693 126488 143655 140934 143062 139493 137089 139615
          118657 119248 114732 107858 100000 110397 166711 168238 169244 129989 132557 131334
          140787 138850 139876 140329 142752 140917 169244 169969 168084 146368 147336 148490
          128796 129009 131112 135432 137174 135786 150307 149760 151692 142555 142536 144581
          130700 133367 131183 198018 200000 196672 174479 169868 168926 171791 169969 169244
          166996 167117 164934 130413 128581 128146 112816 109298 106933 156118 156160 154483
          144833 144565 142619 131183 133690 132312 148756 149760 150307 123938 126875 124321
          190658 195560 195284 167939 166770 165312 116559 119129 117721 144165 144238 142529
          162068 161862 164241 165312 166770 164292 160442 162521 159914 139493 140705 138589
          147122 149760 148004 189470 190658 195284 150307 149443 148500 168926 173870 174479
          169093 162948 166735 178971 182056 181980 175257 176583 174382 139493 141537 141697
          145503 149434 148128 157409 153182 155334 152066 152609 154787 168889 172263 167078
          143988 141795 142266 156118 153750 155530 149302 144921 146987 122685 121416 123931
          176043 172519 172979 144165 146107 144238 119749 120686 122913 156939 155028 152114
          164374 166485 166438 136326 138280 137890 169732 171984 171079 179944 179157 177668
          123938 121647 121457 154483 153750 156118 170560 173197 174091 119248 115546 114732
          157884 159993 160170 126262 126003 122675 186361 183019 185519 170477 172670 170172
          156771 152802 156210 134851 135269 132753 185256 186360 181633 149169 149838 148194
          175718 172438 174313 170560 169963 168101 188815 194268 193844 178047 182056 178971
          131585 131537 129266 120686 115546 121485 124321 121647 123938 146428 147833 146138
          156210 152802 152609 148128 145932 145503 122685 124994 124611 117511 121201 121952
          144165 144583 146138 156939 152114 151992 141723 140434 142555 172979 172519 169093
          153228 155150 154922 133537 131056 133835 148004 147212 145652 135345 135774 137370