<?xml version="1.0"?>
<VTKFile type="PolyData" version="0.1" byte_order="LittleEndian">
  <PolyData>
    <Piece NumberOfLines="20" NumberOfPoints="21">
      <CellData Scalars="p">
        <DataArray type="Float32" Name="p" NumberOfComponents="1" format="ascii">
          1.99998 1.99993 1.99988 1.99984 1.9998 1.99977 1.99973 1.9997 1.99967 1.99964 1.99962 1.99959
          1.99957 1.99956 1.99954 1.99953 1.99952 1.99951 1.99951 1.9995
        </DataArray>
        <DataArray type="Float32" Name="process rank" NumberOfComponents="1" format="ascii">
          0 0 0 0 0 0 0 0 0 0 0 0
          0 0 0 0 0 0 0 0
        </DataArray>
      </CellData>
      <Points>
        <DataArray type="Float32" Name="Coordinates" NumberOfComponents="3" format="ascii">
          1 0 0 1 0.05 0 1 0.1 0 1 0.15 0
          1 0.2 0 1 0.25 0 1 0.3 0 1 0.35 0
          1 0.4 0 1 0.45 0 1 0.5 0 1 0.55 0
          1 0.6 0 1 0.65 0 1 0.7 0 1 0.75 0
          1 0.8 0 1 0.85 0 1 0.9 0 1 0.95 0
          1 1 0
        </DataArray>
      </Points>
      <Lines>
        <DataArray type="Int32" Name="connectivity" NumberOfComponents="1" format="ascii">
          0 1 1 2 2 3 3 4 4 5 5 6
          6 7 7 8 8 9 9 10 10 11 11 12
          12 13 13 14 14 15 15 16 16 17 17 18
          18 19 19 20
        </DataArray>
        <DataArray type="Int32" Name="offsets" NumberOfComponents="1" format="ascii">
          2 4 6 8 10 12 14 16 18 20 22 24
          26 28 30 32 34 36 38 40
        </DataArray>
      </Lines>
    </Piece>
  </PolyData>
</VTKFile>
