<?xml version="1.0"?>
<VTKFile type="UnstructuredGrid" version="0.1" byte_order="LittleEndian">
  <UnstructuredGrid>
    <Piece NumberOfCells="64" NumberOfPoints="81">
      <PointData Scalars="S_liq">
        <DataArray type="Float32" Name="S_liq" NumberOfComponents="1" format="ascii">
          0.962138 0.962138 0.328205 0.328204 0.962138 0.328203 0.962138 0.328201 0.962138 0.328199 0.962138 0.328197
          0.962137 0.328196 0.962138 0.328194 0.962138 0.328194 0.0862367 0.0862364 0.0862357 0.0862347 0.0862334 0.0862322
          0.0862312 0.0862305 0.0862303 0.0398506 0.0398523 0.0398557 0.0398586 0.0398607 0.0398621 0.0398632 0.0398637 0.0398638
          0.0249556 0.0249652 0.0249829 0.0249972 0.0250082 0.0250169 0.0250236 0.0250269 0.0250276 0.01749 0.0175176 0.017561
          0.0175921 0.017617 0.0176366 0.0176527 0.0176604 0.0176612 0.0116098 0.0117019 0.0118219 0.0118953 0.0119583 0.0120055
          0.0120478 0.0120666 0.0120667 0 0 0 0 0 0 0 0 0
          0 0 0 0 0 0 0 0 0
        </DataArray>
        <DataArray type="Float32" Name="p_liq" NumberOfComponents="1" format="ascii">
          99040.9 99040.9 98191.1 98191.1 99040.9 98191.1 99040.9 98191.1 99040.9 98191.1 99040.9 98191.1
          99040.9 98191.1 99040.9 98191.1 99040.9 98191.1 97624.6 97624.6 97624.6 97624.5 97624.5 97624.5
          97624.5 97624.5 97624.5 97243.5 97243.5 97243.5 97243.6 97243.6 97243.6 97243.6 97243.7 97243.7
          96965.6 96965.9 96966.3 96966.7 96967 96967.2 96967.4 96967.5 96967.5 96712.4 96713.7 96715.6
          96717 96718.1 96719 96719.7 96720 96720 96384.8 96390.2 96397.3 96401.7 96405.4 96408.2
          96410.7 96411.8 96411.8 95697.6 95697.6 95697.6 95697.6 95697.6 95697.6 95697.6 95697.6 95697.6
          95697.5 95697.5 95697.5 95697.5 95697.5 95697.5 95697.5 95697.5 95697.5
        </DataArray>
        <DataArray type="Float32" Name="rho_liq" NumberOfComponents="1" format="ascii">
          998.908 998.908 998.887 998.888 998.91 998.892 998.912 998.897 998.915 998.902 998.918 998.908
          998.921 998.912 998.923 998.915 998.923 998.916 998.84 998.843 998.853 998.865 998.879 998.891
          998.9 998.906 998.908 998.779 998.787 998.807 998.832 998.856 998.876 998.892 998.901 998.904
          998.717 998.732 998.767 998.805 998.84 998.867 998.888 998.899 998.903 998.656 998.683 998.737
          998.787 998.829 998.862 998.887 998.9 998.903 998.591 998.639 998.716 998.775 998.822 998.86
          998.887 998.901 998.904 716.594 763.26 818.62 848.218 879.311 900.652 923.641 933.066 931.694
          101.681 144.066 188.211 210.439 238.188 254.427 275.861 284.146 282.006
        </DataArray>
        <DataArray type="Float32" Name="mob_liq" NumberOfComponents="1" format="ascii">
          860.24 860.155 29.3168 29.3108 859.917 29.294 859.563 29.2695 859.148 29.2416 858.736 29.2148
          858.385 29.193 858.155 29.1786 858.074 29.1737 0.565352 0.56503 0.56416 0.562969 0.561706 0.56057
          0.559687 0.559134 0.558946 0.0514067 0.0513467 0.0511916 0.0509949 0.050802 0.0506385 0.0505172 0.0504435 0.050419
          0.010654 0.0106414 0.0106058 0.0105599 0.0105168 0.0104818 0.0104571 0.0104421 0.0104369 0.00284285 0.00284862 0.0028512
          0.0028473 0.00284349 0.00284033 0.00283939 0.00283815 0.00283699 0.000470174 0.00048622 0.000505442 0.000515925 0.00052529 0.000532157
          0.000538917 0.000541764 0.00054153 0 0 0 0 0 0 0 0 0
          0 0 0 0 0 0 0 0 0
        </DataArray>
        <DataArray type="Float32" Name="S_gas" NumberOfComponents="1" format="ascii">
          0.0378624 0.0378624 0.671795 0.671796 0.0378623 0.671797 0.0378622 0.671799 0.0378621 0.671801 0.0378617 0.671803
          0.0378627 0.671804 0.0378615 0.671806 0.0378617 0.671806 0.913763 0.913764 0.913764 0.913765 0.913767 0.913768
          0.913769 0.913769 0.91377 0.960149 0.960148 0.960144 0.960141 0.960139 0.960138 0.960137 0.960136 0.960136
          0.975044 0.975035 0.975017 0.975003 0.974992 0.974983 0.974976 0.974973 0.974972 0.98251 0.982482 0.982439
          0.982408 0.982383 0.982363 0.982347 0.98234 0.982339 0.98839 0.988298 0.988178 0.988105 0.988042 0.987994
          0.987952 0.987933 0.987933 1 1 1 1 1 1 1 1 1
          1 1 1 1 1 1 1 1 1
        </DataArray>
        <DataArray type="Float32" Name="p_gas" NumberOfComponents="1" format="ascii">
          100003 100003 100002 100002 100003 100002 100003 100002 100003 100002 100003 100002
          100003 100002 100003 100002 100003 100002 100001 100001 100001 100001 100001 100001
          100001 100001 100001 100001 100001 100001 100001 100001 100001 100001 100001 100001
          100000 100000 100000 100000 100000 100000 100000 100000 100000 100000 100000 100000
          100000 100000 100000 100000 100000 100000 100000 100000 100000 100000 100000 100000
          100000 100000 100000 100000 100000 100000 100000 100000 100000 100000 100000 100000
          100000 100000 100000 100000 100000 100000 100000 100000 100000
        </DataArray>
        <DataArray type="Float32" Name="rho_gas" NumberOfComponents="1" format="ascii">
          1.19551 1.19553 1.19492 1.19495 1.19558 1.19505 1.19565 1.1952 1.19574 1.19536 1.19583 1.19552
          1.1959 1.19565 1.19595 1.19574 1.19596 1.19577 1.19356 1.19366 1.19393 1.19429 1.19468 1.19503
          1.1953 1.19547 1.19553 1.19182 1.19205 1.19262 1.19333 1.19403 1.19461 1.19505 1.19532 1.19541
          1.19002 1.19046 1.19146 1.19257 1.19355 1.19435 1.19493 1.19527 1.19538 1.18833 1.18907 1.19059
          1.19204 1.19324 1.19421 1.19491 1.19529 1.19539 1.18681 1.18794 1.19 1.19169 1.19305 1.19413
          1.19492 1.19532 1.19541 1.18808 1.18917 1.19121 1.19276 1.19395 1.19493 1.19559 1.19592 1.19599
          1.19292 1.1943 1.19666 1.19824 1.19944 1.20045 1.20112 1.20144 1.20148
        </DataArray>
        <DataArray type="Float32" Name="mob_gas" NumberOfComponents="1" format="ascii">
          27.6345 27.6347 26748.3 26748.7 27.6351 26750.1 27.6358 26752 27.6366 26754.2 27.637 26756.4
          27.6401 26758.1 27.6381 26759.3 27.6387 26759.6 49044.9 49047.2 49053.3 49061.7 49070.6 49078.7
          49085 49089 49090.3 54251.8 54257.4 54271.4 54289 54306.2 54320.9 54331.8 54338.4 54340.6
          55352.3 55362.9 55387.7 55415.1 55439.6 55459.7 55474.2 55482.7 55485.3 55685.5 55703.2 55740.7
          55776.7 55806.8 55831 55848.3 55857.8 55860.5 55833.5 55858.4 55907.7 55949.7 55983.5 56010.5
          56029.9 56039.9 56042.2 55702.8 55771.7 55872.7 55939.6 55996.7 56039.8 56075.3 56091.3 56092.1
          55295.2 55382.7 55503.8 55577.3 55641.7 55689.3 55729.6 55746.9 55746.5
        </DataArray>
        <DataArray type="Float32" Name="pc" NumberOfComponents="1" format="ascii">
          962.052 962.052 1810.79 1810.79 962.052 1810.79 962.051 1810.8 962.05 1810.8 962.049 1810.8
          962.054 1810.8 962.048 1810.8 962.049 1810.8 2376.68 2376.69 2376.69 2376.7 2376.7 2376.71
          2376.71 2376.72 2376.72 2757.31 2757.29 2757.24 2757.2 2757.18 2757.16 2757.14 2757.13 2757.13
          3034.89 3034.64 3034.18 3033.8 3033.52 3033.29 3033.12 3033.03 3033.02 3287.87 3286.63 3284.69
          3283.31 3282.2 3281.33 3280.62 3280.28 3280.25 3615.39 3609.94 3602.83 3598.5 3594.76 3591.97
          3589.47 3588.36 3588.35 4302.49 4302.49 4302.49 4302.49 4302.49 4302.49 4302.49 4302.49 4302.49
          4302.49 4302.49 4302.49 4302.49 4302.49 4302.49 4302.49 4302.49 4302.49
        </DataArray>
        <DataArray type="Float32" Name="porosity" NumberOfComponents="1" format="ascii">
          0.41 0.41 0.41 0.41 0.41 0.41 0.41 0.41 0.41 0.41 0.41 0.41
          0.41 0.41 0.41 0.41 0.41 0.41 0.41 0.41 0.41 0.41 0.41 0.41
          0.41 0.41 0.41 0.41 0.41 0.41 0.41 0.41 0.41 0.41 0.41 0.41
          0.41 0.41 0.41 0.41 0.41 0.41 0.41 0.41 0.41 0.41 0.41 0.41
          0.41 0.41 0.41 0.41 0.41 0.41 0.41 0.41 0.41 0.41 0.41 0.41
          0.41 0.41 0.41 0.41 0.41 0.41 0.41 0.41 0.41 0.41 0.41 0.41
          0.41 0.41 0.41 0.41 0.41 0.41 0.41 0.41 0.41
        </DataArray>
        <DataArray type="Float32" Name="x^H2O_liq" NumberOfComponents="1" format="ascii">
          0.999984 0.999984 0.999984 0.999984 0.999984 0.999984 0.999984 0.999984 0.999984 0.999984 0.999984 0.999984
          0.999984 0.999984 0.999984 0.999984 0.999984 0.999984 0.999984 0.999984 0.999984 0.999984 0.999984 0.999984
          0.999984 0.999984 0.999984 0.999984 0.999984 0.999984 0.999984 0.999984 0.999984 0.999984 0.999984 0.999984
          0.999985 0.999985 0.999984 0.999984 0.999984 0.999984 0.999984 0.999984 0.999984 0.999985 0.999985 0.999985
          0.999984 0.999984 0.999984 0.999984 0.999984 0.999984 0.999985 0.999985 0.999985 0.999984 0.999984 0.999984
          0.999984 0.999984 0.999984 0.717631 0.764314 0.819668 0.84925 0.880336 0.901665 0.924653 0.934074 0.932699
          0.101812 0.144249 0.188434 0.210677 0.238447 0.254695 0.276144 0.284435 0.282292
        </DataArray>
        <DataArray type="Float32" Name="X^H2O_liq" NumberOfComponents="1" format="ascii">
          0.999974 0.999974 0.999975 0.999975 0.999974 0.999975 0.999974 0.999975 0.999974 0.999974 0.999974 0.999974
          0.999974 0.999974 0.999974 0.999974 0.999974 0.999974 0.999975 0.999975 0.999975 0.999975 0.999975 0.999975
          0.999974 0.999974 0.999974 0.999975 0.999975 0.999975 0.999975 0.999975 0.999975 0.999975 0.999974 0.999974
          0.999975 0.999975 0.999975 0.999975 0.999975 0.999975 0.999975 0.999975 0.999974 0.999975 0.999975 0.999975
          0.999975 0.999975 0.999975 0.999975 0.999974 0.999974 0.999975 0.999975 0.999975 0.999975 0.999975 0.999975
          0.999975 0.999974 0.999974 0.717622 0.764304 0.819658 0.84924 0.880326 0.901656 0.924643 0.934065 0.93269
          0.101803 0.14424 0.188424 0.210667 0.238438 0.254685 0.276135 0.284425 0.282282
        </DataArray>
        <DataArray type="Float32" Name="x^Air_liq" NumberOfComponents="1" format="ascii">
          1.58662e-05 1.58675e-05 1.58247e-05 1.58272e-05 1.5871e-05 1.58342e-05 1.58762e-05 1.58445e-05 1.58823e-05 1.58562e-05 1.58883e-05 1.58675e-05
          1.58934e-05 1.58767e-05 1.58969e-05 1.58828e-05 1.58981e-05 1.58849e-05 1.57302e-05 1.57371e-05 1.57557e-05 1.57812e-05 1.58085e-05 1.58332e-05
          1.58524e-05 1.58646e-05 1.58687e-05 1.56097e-05 1.56253e-05 1.56648e-05 1.57143e-05 1.57628e-05 1.58041e-05 1.5835e-05 1.58538e-05 1.586e-05
          1.54866e-05 1.55163e-05 1.55852e-05 1.56613e-05 1.57297e-05 1.57859e-05 1.58269e-05 1.58507e-05 1.58582e-05 1.53728e-05 1.54226e-05 1.55257e-05
          1.56247e-05 1.57083e-05 1.5776e-05 1.5825e-05 1.58519e-05 1.58594e-05 1.52726e-05 1.53473e-05 1.54855e-05 1.56007e-05 1.56949e-05 1.57708e-05
          1.58261e-05 1.58546e-05 1.58609e-05 1.52733e-05 1.53595e-05 1.5514e-05 1.56299e-05 1.57221e-05 1.57976e-05 1.58514e-05 1.58777e-05 1.58823e-05
          1.54039e-05 1.55135e-05 1.56956e-05 1.58167e-05 1.59132e-05 1.59927e-05 1.605e-05 1.60762e-05 1.60786e-05
        </DataArray>
        <DataArray type="Float32" Name="X^Air_liq" NumberOfComponents="1" format="ascii">
          2.55053e-05 2.55073e-05 2.54384e-05 2.54424e-05 2.55129e-05 2.54537e-05 2.55212e-05 2.54702e-05 2.5531e-05 2.54891e-05 2.55408e-05 2.55072e-05
          2.5549e-05 2.55221e-05 2.55545e-05 2.55319e-05 2.55565e-05 2.55352e-05 2.52866e-05 2.52976e-05 2.53275e-05 2.53686e-05 2.54124e-05 2.54521e-05
          2.54831e-05 2.55026e-05 2.55092e-05 2.50929e-05 2.51179e-05 2.51815e-05 2.52611e-05 2.53389e-05 2.54053e-05 2.5455e-05 2.54852e-05 2.54952e-05
          2.4895e-05 2.49428e-05 2.50536e-05 2.51758e-05 2.52858e-05 2.53761e-05 2.5442e-05 2.54803e-05 2.54923e-05 2.4712e-05 2.47921e-05 2.49579e-05
          2.5117e-05 2.52514e-05 2.53601e-05 2.5439e-05 2.54822e-05 2.54942e-05 2.4551e-05 2.4671e-05 2.48932e-05 2.50783e-05 2.52298e-05 2.53518e-05
          2.54408e-05 2.54866e-05 2.54967e-05 2.45521e-05 2.46906e-05 2.4939e-05 2.51253e-05 2.52735e-05 2.53948e-05 2.54814e-05 2.55237e-05 2.55311e-05
          2.47599e-05 2.49368e-05 2.52299e-05 2.54247e-05 2.55799e-05 2.57079e-05 2.58e-05 2.58421e-05 2.5846e-05
        </DataArray>
        <DataArray type="Float32" Name="rhoMolar_liq" NumberOfComponents="1" format="ascii">
          55447.6 55447.6 55446.4 55446.5 55447.7 55446.7 55447.8 55447 55448 55447.3 55448.2 55447.6
          55448.3 55447.8 55448.4 55448 55448.4 55448.1 55443.8 55444 55444.5 55445.2 55446 55446.6
          55447.2 55447.5 55447.6 55440.5 55440.9 55442 55443.4 55444.7 55445.8 55446.7 55447.2 55447.4
          55437 55437.8 55439.8 55441.9 55443.8 55445.3 55446.5 55447.1 55447.3 55433.6 55435.1 55438.1
          55440.9 55443.2 55445.1 55446.4 55447.1 55447.3 55430 55432.7 55436.9 55440.2 55442.8 55444.9
          55446.4 55447.2 55447.4 55426.7 55430.4 55436.1 55439.7 55442.5 55444.8 55446.5 55447.3 55447.4
          55423.9 55428.6 55435.6 55439.4 55442.4 55444.8 55446.6 55447.4 55447.4
        </DataArray>
        <DataArray type="Float32" Name="x^H2O_gas" NumberOfComponents="1" format="ascii">
          0.018488 0.0184837 0.0186338 0.018625 0.0184715 0.0186003 0.0184533 0.0185641 0.0184319 0.018523 0.0184107 0.0184833
          0.0183928 0.0184508 0.0183808 0.0184297 0.0183766 0.0184224 0.0189687 0.0189443 0.018878 0.0187872 0.0186907 0.0186036
          0.0185358 0.0184932 0.0184788 0.0194023 0.0193459 0.019203 0.0190253 0.0188526 0.0187061 0.018597 0.018531 0.0185091
          0.0198528 0.0197432 0.0194911 0.0192157 0.0189702 0.0187704 0.0186254 0.0185415 0.0185153 0.0202855 0.02009 0.0197087
          0.0193478 0.0190465 0.0188055 0.018632 0.0185373 0.0185111 0.0207395 0.0204006 0.0198568 0.0194349 0.0190948 0.0188239
          0.0186279 0.0185277 0.0185056 0.015187 0.0158142 0.0163619 0.0165593 0.0168398 0.0169825 0.017216 0.0172955 0.0172563
          0.00219016 0.00301654 0.00377383 0.00411674 0.00456583 0.00479769 0.00513764 0.00526242 0.00522096
        </DataArray>
        <DataArray type="Float32" Name="X^H2O_gas" NumberOfComponents="1" format="ascii">
          0.0115818 0.011579 0.0116738 0.0116682 0.0115714 0.0116526 0.0115599 0.0116298 0.0115464 0.0116038 0.011533 0.0115788
          0.0115217 0.0115583 0.0115141 0.011545 0.0115115 0.0115404 0.0118851 0.0118697 0.0118279 0.0117705 0.0117097 0.0116547
          0.0116119 0.0115851 0.0115759 0.0121588 0.0121232 0.0120329 0.0119208 0.0118118 0.0117193 0.0116505 0.0116089 0.0115951
          0.0124432 0.012374 0.0122149 0.012041 0.0118861 0.0117599 0.0116684 0.0116155 0.011599 0.0127165 0.012593 0.0123522
          0.0121244 0.0119342 0.0117821 0.0116726 0.0116129 0.0115964 0.0130034 0.0127892 0.0124458 0.0121794 0.0119647 0.0117937
          0.0116701 0.0116068 0.0115929 0.00950191 0.00989669 0.0102416 0.0103659 0.0105426 0.0106326 0.0107797 0.0108298 0.0108051
          0.00136356 0.00187865 0.00235094 0.0025649 0.00284518 0.00298992 0.00320219 0.00328013 0.00325423
        </DataArray>
        <DataArray type="Float32" Name="x^Air_gas" NumberOfComponents="1" format="ascii">
          0.981512 0.981516 0.981366 0.981375 0.981529 0.9814 0.981547 0.981436 0.981568 0.981477 0.981589 0.981517
          0.981607 0.981549 0.981619 0.98157 0.981623 0.981578 0.981031 0.981056 0.981122 0.981213 0.981309 0.981396
          0.981464 0.981507 0.981521 0.980598 0.980654 0.980797 0.980975 0.981147 0.981294 0.981403 0.981469 0.981491
          0.980147 0.980257 0.980509 0.980784 0.98103 0.98123 0.981375 0.981458 0.981485 0.979715 0.97991 0.980291
          0.980652 0.980953 0.981194 0.981368 0.981463 0.981489 0.97926 0.979599 0.980143 0.980565 0.980905 0.981176
          0.981372 0.981472 0.981494 0.984813 0.984186 0.983638 0.983441 0.98316 0.983017 0.982784 0.982704 0.982744
          0.99781 0.996983 0.996226 0.995883 0.995434 0.995202 0.994862 0.994738 0.994779
        </DataArray>
        <DataArray type="Float32" Name="X^Air_gas" NumberOfComponents="1" format="ascii">
          0.988418 0.988421 0.988326 0.988332 0.988429 0.988347 0.98844 0.98837 0.988454 0.988396 0.988467 0.988421
          0.988478 0.988442 0.988486 0.988455 0.988488 0.98846 0.988115 0.98813 0.988172 0.988229 0.98829 0.988345
          0.988388 0.988415 0.988424 0.987841 0.987877 0.987967 0.988079 0.988188 0.988281 0.988349 0.988391 0.988405
          0.987557 0.987626 0.987785 0.987959 0.988114 0.98824 0.988332 0.988384 0.988401 0.987283 0.987407 0.987648
          0.987876 0.988066 0.988218 0.988327 0.988387 0.988404 0.986997 0.987211 0.987554 0.987821 0.988035 0.988206
          0.98833 0.988393 0.988407 0.990498 0.990103 0.989758 0.989634 0.989457 0.989367 0.98922 0.98917 0.989195
          0.998636 0.998121 0.997649 0.997435 0.997155 0.99701 0.996798 0.99672 0.996746
        </DataArray>
        <DataArray type="Float32" Name="rhoMolar_gas" NumberOfComponents="1" format="ascii">
          41.5724 41.5729 41.5539 41.555 41.5744 41.5581 41.5767 41.5626 41.5793 41.5677 41.582 41.5726
          41.5842 41.5766 41.5857 41.5792 41.5862 41.5801 41.5122 41.5152 41.5234 41.5347 41.5466 41.5574
          41.5658 41.5711 41.5729 41.4585 41.4654 41.4831 41.505 41.5264 41.5445 41.558 41.5662 41.5689
          41.4028 41.4163 41.4474 41.4814 41.5117 41.5364 41.5544 41.5648 41.568 41.3508 41.3736 41.4205
          41.465 41.5022 41.532 41.5535 41.5652 41.5685 41.305 41.3392 41.4022 41.4542 41.4962 41.5297
          41.554 41.5664 41.5691 41.2619 41.3095 41.389 41.4461 41.4918 41.5282 41.5549 41.5677 41.5695
          41.2263 41.2866 41.3803 41.4402 41.4887 41.5272 41.5559 41.5688 41.5696
        </DataArray>
        <DataArray type="Float32" Name="phase presence" NumberOfComponents="1" format="ascii">
          3 3 3 3 3 3 3 3 3 3 3 3
          3 3 3 3 3 3 3 3 3 3 3 3
          3 3 3 3 3 3 3 3 3 3 3 3
          3 3 3 3 3 3 3 3 3 3 3 3
          3 3 3 3 3 3 3 3 3 3 3 3
          3 3 3 2 2 2 2 2 2 2 2 2
          2 2 2 2 2 2 2 2 2
        </DataArray>
        <DataArray type="Float32" Name="T" NumberOfComponents="1" format="ascii">
          289.323 289.319 289.448 289.441 289.308 289.419 289.293 289.388 289.274 289.353 289.256 289.318
          289.24 289.29 289.23 289.272 289.226 289.266 289.738 289.716 289.659 289.581 289.497 289.422
          289.364 289.327 289.314 290.112 290.063 289.94 289.786 289.637 289.511 289.416 289.359 289.341
          290.501 290.406 290.189 289.951 289.739 289.566 289.441 289.368 289.346 290.866 290.706 290.376
          290.065 289.805 289.596 289.447 289.365 289.342 291.189 290.948 290.504 290.14 289.846 289.612
          289.443 289.357 289.337 291.489 291.154 290.595 290.195 289.875 289.621 289.435 289.346 289.334
          291.737 291.311 290.651 290.231 289.892 289.623 289.423 289.333 289.328
        </DataArray>
      </PointData>
      <CellData Scalars="process rank">
        <DataArray type="Float32" Name="process rank" NumberOfComponents="1" format="ascii">
          0 0 0 0 0 0 0 0 0 0 0 0
          0 0 0 0 0 0 0 0 0 0 0 0
          0 0 0 0 0 0 0 0 0 0 0 0
          0 0 0 0 0 0 0 0 0 0 0 0
          0 0 0 0 0 0 0 0 0 0 0 0
          0 0 0 0
        </DataArray>
      </CellData>
      <Points>
        <DataArray type="Float32" Name="Coordinates" NumberOfComponents="3" format="ascii">
          0 0 0 0.03125 0 0 0 0.0867169 0 0.03125 0.0867169 0
          0.0625 0 0 0.0625 0.0867169 0 0.09375 0 0 0.09375 0.0867169 0
          0.125 0 0 0.125 0.0867169 0 0.15625 0 0 0.15625 0.0867169 0
          0.1875 0 0 0.1875 0.0867169 0 0.21875 0 0 0.21875 0.0867169 0
          0.25 0 0 0.25 0.0867169 0 0 0.144528 0 0.03125 0.144528 0
          0.0625 0.144528 0 0.09375 0.144528 0 0.125 0.144528 0 0.15625 0.144528 0
          0.1875 0.144528 0 0.21875 0.144528 0 0.25 0.144528 0 0 0.183069 0
          0.03125 0.183069 0 0.0625 0.183069 0 0.09375 0.183069 0 0.125 0.183069 0
          0.15625 0.183069 0 0.1875 0.183069 0 0.21875 0.183069 0 0.25 0.183069 0
          0 0.208763 0 0.03125 0.208763 0 0.0625 0.208763 0 0.09375 0.208763 0
          0.125 0.208763 0 0.15625 0.208763 0 0.1875 0.208763 0 0.21875 0.208763 0
          0.25 0.208763 0 0 0.225892 0 0.03125 0.225892 0 0.0625 0.225892 0
          0.09375 0.225892 0 0.125 0.225892 0 0.15625 0.225892 0 0.1875 0.225892 0
          0.21875 0.225892 0 0.25 0.225892 0 0 0.237312 0 0.03125 0.237312 0
          0.0625 0.237312 0 0.09375 0.237312 0 0.125 0.237312 0 0.15625 0.237312 0
          0.1875 0.237312 0 0.21875 0.237312 0 0.25 0.237312 0 0 0.244925 0
          0.03125 0.244925 0 0.0625 0.244925 0 0.09375 0.244925 0 0.125 0.244925 0
          0.15625 0.244925 0 0.1875 0.244925 0 0.21875 0.244925 0 0.25 0.244925 0
          0 0.25 0 0.03125 0.25 0 0.0625 0.25 0 0.09375 0.25 0
          0.125 0.25 0 0.15625 0.25 0 0.1875 0.25 0 0.21875 0.25 0
          0.25 0.25 0
        </DataArray>
      </Points>
      <Cells>
        <DataArray type="Int32" Name="connectivity" NumberOfComponents="1" format="ascii">
          0 1 3 2 1 4 5 3 4 6 7 5
          6 8 9 7 8 10 11 9 10 12 13 11
          12 14 15 13 14 16 17 15 2 3 19 18
          3 5 20 19 5 7 21 20 7 9 22 21
          9 11 23 22 11 13 24 23 13 15 25 24
          15 17 26 25 18 19 28 27 19 20 29 28
          20 21 30 29 21 22 31 30 22 23 32 31
          23 24 33 32 24 25 34 33 25 26 35 34
          27 28 37 36 28 29 38 37 29 30 39 38
          30 31 40 39 31 32 41 40 32 33 42 41
          33 34 43 42 34 35 44 43 36 37 46 45
          37 38 47 46 38 39 48 47 39 40 49 48
          40 41 50 49 41 42 51 50 42 43 52 51
          43 44 53 52 45 46 55 54 46 47 56 55
          47 48 57 56 48 49 58 57 49 50 59 58
          50 51 60 59 51 52 61 60 52 53 62 61
          54 55 64 63 55 56 65 64 56 57 66 65
          57 58 67 66 58 59 68 67 59 60 69 68
          60 61 70 69 61 62 71 70 63 64 73 72
          64 65 74 73 65 66 75 74 66 67 76 75
          67 68 77 76 68 69 78 77 69 70 79 78
          70 71 80 79
        </DataArray>
        <DataArray type="Int32" Name="offsets" NumberOfComponents="1" format="ascii">
          4 8 12 16 20 24 28 32 36 40 44 48
          52 56 60 64 68 72 76 80 84 88 92 96
          100 104 108 112 116 120 124 128 132 136 140 144
          148 152 156 160 164 168 172 176 180 184 188 192
          196 200 204 208 212 216 220 224 228 232 236 240
          244 248 252 256
        </DataArray>
        <DataArray type="UInt8" Name="types" NumberOfComponents="1" format="ascii">
          9 9 9 9 9 9 9 9 9 9 9 9
          9 9 9 9 9 9 9 9 9 9 9 9
          9 9 9 9 9 9 9 9 9 9 9 9
          9 9 9 9 9 9 9 9 9 9 9 9
          9 9 9 9 9 9 9 9 9 9 9 9
          9 9 9 9
        </DataArray>
      </Cells>
    </Piece>
  </UnstructuredGrid>
</VTKFile>
