<?xml version="1.0"?>
<VTKFile type="UnstructuredGrid" version="0.1" byte_order="LittleEndian">
  <UnstructuredGrid>
    <Piece NumberOfCells="4096" NumberOfPoints="4225">
      <PointData Scalars="S_liq">
        <DataArray type="Float32" Name="S_liq" NumberOfComponents="1" format="ascii">
          1 1 1 1 1 1 1 1 1 1 1 1
          1 1 1 1 1 1 1 1 1 1 1 1
          1 1 1 1 1 1 1 1 1 1 1 1
          1 1 1 1 1 1 1 1 1 1 1 0.973743
          0.8 0.842286 0.8 0.83866 0.8 0.840124 0.8 0.840975 0.8 0.841317 0.8 0.841178
          0.8 0.840213 0.8 0.835898 0.8 0.805765 0.8 0.80343 0.8 0.802629 0.8 0.802074
          0.8 0.80149 0.8 0.800746 0.8 0.799716 0.8 0.79877 0.8 0.808236 0.964866 0.939588
          1 1 1 1 1 1 1 1 1 1 1 1
          1 1 1 1 1 1 1 1 1 1 1 1
          1 1 1 1 1 1 1 1 1 1 1 1
          1 1 1 1 1 1 1 1 1 1 1 1
          1 1 1 1 1 1 1 1 1 1 1 1
          1 1 1 1 1 1 1 1 1 1 0.883264 0.884807
          0.887617 0.88904 0.889613 0.889424 0.888032 0.881446 0.840981 0.837108 0.835882 0.834974 0.833988 0.832723
          0.830933 0.828888 0.837722 0.97449 1 1 1 1 1 1 1 1
          1 1 1 1 1 1 1 1 1 1 1 1
          1 1 1 1 1 1 1 1 1 1 1 1
          1 1 1 1 1 1 1 1 1 1 1 1
          1 1 1 0.968159 0.973078 0.976425 0.978108 0.978794 0.978624 0.977178 0.969996 0.912672
          0.906924 0.904842 0.903143 0.901249 0.898824 0.895402 0.890834 0.899299 1 1 1 1
          1 1 1 1 1 1 1 1 1 1 1 1
          1 1 1 1 1 1 1 1 1 1 1 1
          1 1 1 1 1 1 1 1 1 1 1 1
          1 1 1 1 1 1 1 1 1 1 1 1
          1 1 1 1 1 1 1 1 0.999701 0.99839 0.996416 0.993566
          0.998423 1 1 1 1 1 1 1 1 1 1 1
          1 1 1 1 1 1 1 1 1 1 1 1
          1 1 1 1 1 1 1 1 1 1 1 1
          1 1 1 1 1 1 1 1 1 1 1 1
          1 1 1 1 1 1 1 1 1 1 1 1
          1 1 1 1 1 1 1 1 1 1 1 1
          1 1 1 1 1 1 1 1 1 1 1 1
          1 1 1 1 1 1 1 1 1 1 1 1
          1 1 1 1 1 1 1 1 1 1 1 1
          1 1 1 1 1 1 1 1 1 1 1 1
          1 1 1 1 1 1 1 1 1 1 1 1
          1 1 1 1 1 1 1 1 1 1 1 1
          1 1 1 1 1 1 1 1 1 1 1 1
          1 1 1 1 1 1 1 1 1 1 1 1
          1 1 1 1 1 1 1 1 1 1 1 1
          1 1 1 1 1 1 1 1 1 1 1 1
          1 1 1 1 1 1 1 1 1 1 1 1
          1 1 1 1 1 1 1 1 1 1 1 1
          1 1 1 1 1 1 1 1 1 1 1 1
          1 1 1 1 1 1 1 1 1 1 1 1
          1 1 1 1 1 1 1 1 1 1 1 1
          1 1 1 1 1 1 1 1 1 1 1 1
          1 1 1 1 1 1 1 1 1 1 1 1
          1 1 1 1 1 1 1 1 1 1 1 1
          1 1 1 1 1 1 1 1 1 1 1 1
          1 1 1 1 1 1 1 1 1 1 1 1
          1 1 1 1 1 1 1 1 1 1 1 1
          1 1 1 1 1 1 1 1 1 1 1 1
          1 1 1 1 1 1 1 1 1 1 1 1
          1 1 1 1 1 1 1 1 1 1 1 1
          1 1 1 1 1 1 1 1 1 1 1 1
          1 1 1 1 1 1 1 1 1 1 1 1
          1 1 1 1 1 1 1 1 1 1 1 1
          1 1 1 1 1 1 1 1 1 1 1 1
          1 1 1 1 1 1 1 1 1 1 1 1
          1 1 1 1 1 1 1 1 1 1 1 1
          1 1 1 1 1 1 1 1 1 1 1 1
          1 1 1 1 1 1 1 1 1 1 1 1
          1 1 1 1 1 1 1 1 1 1 1 1
          1 1 1 1 1 1 1 1 1 1 1 1
          1 1 1 1 1 1 1 1 1 1 1 1
          1 1 1 1 1 1 1 1 1 1 1 1
          1 1 1 1 1 1 1 1 1 1 1 1
          1 1 1 1 1 1 1 1 1 1 1 1
          1 1 1 1 1 1 1 1 1 1 1 1
          1 1 1 1 1 1 1 1 1 1 1 1
          1 1 1 1 1 1 1 1 1 1 1 1
          1 1 1 1 1 1 1 1 1 1 1 1
          1 1 1 1 1 1 1 1 1 1 1 1
          1 1 1 1 1 1 1 1 1 1 1 1
          1 1 1 1 1 1 1 1 1 1 1 1
          1 1 1 1 1 1 1 1 1 1 1 1
          1 1 1 1 1 1 1 1 1 1 1 1
          1 1 1 1 1 1 1 1 1 1 1 1
          1 1 1 1 1 1 1 1 1 1 1 1
          1 1 1 1 1 1 1 1 1 1 1 1
          1 1 1 1 1 1 1 1 1 1 1 1
          1 1 1 1 1 1 1 1 1 1 1 1
          1 1 1 1 1 1 1 1 1 1 1 1
          1 1 1 1 1 1 1 1 1 1 1 1
          1 1 1 1 1 1 1 1 1 1 1 1
          1 1 1 1 1 1 1 1 1 1 1 1
          1 1 1 1 1 1 1 1 1 1 1 1
          1 1 1 1 1 1 1 1 1 1 1 1
          1 1 1 1 1 1 1 1 1 1 1 1
          1 1 1 1 1 1 1 1 1 1 1 1
          1 1 1 1 1 1 1 1 1 1 1 1
          1 1 1 1 1 1 1 1 1 1 1 1
          1 1 1 1 1 1 1 1 1 1 1 1
          1 1 1 1 1 1 1 1 1 1 1 1
          1 1 1 1 1 1 1 1 1 1 1 1
          1 1 1 1 1 1 1 1 1 1 1 1
          1 1 1 1 1 1 1 1 1 1 1 1
          1 1 1 1 1 1 1 1 1 1 1 1
          1 1 1 1 1 1 1 1 1 1 1 1
          1 1 1 1 1 1 1 1 1 1 1 1
          1 1 1 1 1 1 1 1 1 1 1 1
          1 1 1 1 1 1 1 1 1 1 1 1
          1 1 1 1 1 1 1 1 1 1 1 1
          1 1 1 1 1 1 1 1 1 1 1 1
          1 1 1 1 1 1 1 1 1 1 1 1
          1 1 1 1 1 1 1 1 1 1 1 1
          1 1 1 1 1 1 1 1 1 1 1 1
          1 1 1 1 1 1 1 1 1 1 1 1
          1 1 1 1 1 1 1 1 1 1 1 1
          1 1 1 1 1 1 1 1 1 1 1 1
          1 1 1 1 1 1 1 1 1 1 1 1
          1 1 1 1 1 1 1 1 1 1 1 1
          1 1 1 1 1 1 1 1 1 1 1 1
          1 1 1 1 1 1 1 1 1 1 1 1
          1 1 1 1 1 1 1 1 1 1 1 1
          1 1 1 1 1 1 1 1 1 1 1 1
          1 1 1 1 1 1 1 1 1 1 1 1
          1 1 1 1 1 1 1 1 1 1 1 1
          1 1 1 1 1 1 1 1 1 1 1 1
          1 1 1 1 1 1 1 1 1 1 1 1
          1 1 1 1 1 1 1 1 1 1 1 1
          1 1 1 1 1 1 1 1 1 1 1 1
          1 1 1 1 1 1 1 1 1 1 1 1
          1 1 1 1 1 1 1 1 1 1 1 1
          1 1 1 1 1 1 1 1 1 1 1 1
          1 1 1 1 1 1 1 1 1 1 1 1
          1 1 1 1 1 1 1 1 1 1 1 1
          1 1 1 1 1 1 1 1 1 1 1 1
          1 1 1 1 1 1 1 1 1 1 1 1
          1 1 1 1 1 1 1 1 1 1 1 1
          1 1 1 1 1 1 1 1 1 1 1 1
          1 1 1 1 1 1 1 1 1 1 1 1
          1 1 1 1 1 1 1 1 1 1 1 1
          1 1 1 1 1 1 1 1 1 1 1 1
          1 1 1 1 1 1 1 1 1 1 1 1
          1 1 1 1 1 1 1 1 1 1 1 1
          1 1 1 1 1 1 1 1 1 1 1 1
          1 1 1 1 1 1 1 1 1 1 1 1
          1 1 1 1 1 1 1 1 1 1 1 1
          1 1 1 1 1 1 1 1 1 1 1 1
          1 1 1 1 1 1 1 1 1 1 1 1
          1 1 1 1 1 1 1 1 1 1 1 1
          1 1 1 1 1 1 1 1 1 1 1 1
          1 1 1 1 1 1 1 1 1 1 1 1
          1 1 1 1 1 1 1 1 1 1 1 1
          1 1 1 1 1 1 1 1 1 1 1 1
          1 1 1 1 1 1 1 1 1 1 1 1
          1 1 1 1 1 1 1 1 1 1 1 1
          1 1 1 1 1 1 1 1 1 1 1 1
          1 1 1 1 1 1 1 1 1 1 1 1
          1 1 1 1 1 1 1 1 1 1 1 1
          1 1 1 1 1 1 1 1 1 1 1 1
          1 1 1 1 1 1 1 1 1 1 1 1
          1 1 1 1 1 1 1 1 1 1 1 1
          1 1 1 1 1 1 1 1 1 1 1 1
          1 1 1 1 1 1 1 1 1 1 1 1
          1 1 1 1 1 1 1 1 1 1 1 1
          1 1 1 1 1 1 1 1 1 1 1 1
          1 1 1 1 1 1 1 1 1 1 1 1
          1 1 1 1 1 1 1 1 1 1 1 1
          1 1 1 1 1 1 1 1 1 1 1 1
          1 1 1 1 1 1 1 1 1 1 1 1
          1 1 1 1 1 1 1 1 1 1 1 1
          1 1 1 1 1 1 1 1 1 1 1 1
          1 1 1 1 1 1 1 1 1 1 1 1
          1 1 1 1 1 1 1 1 1 1 1 1
          1 1 1 1 1 1 1 1 1 1 1 1
          1 1 1 1 1 1 1 1 1 1 1 1
          1 1 1 1 1 1 1 1 1 1 1 1
          1 1 1 1 1 1 1 1 1 1 1 1
          1 1 1 1 1 1 1 1 1 1 1 1
          1 1 1 1 1 1 1 1 1 1 1 1
          1 1 1 1 1 1 1 1 1 1 1 1
          1 1 1 1 1 1 1 1 1 1 1 1
          1 1 1 1 1 1 1 1 1 1 1 1
          1 1 1 1 1 1 1 1 1 1 1 1
          1 1 1 1 1 1 1 1 1 1 1 1
          1 1 1 1 1 1 1 1 1 1 1 1
          1 1 1 1 1 1 1 1 1 1 1 1
          1 1 1 1 1 1 1 1 1 1 1 1
          1 1 1 1 1 1 1 1 1 1 1 1
          1 1 1 1 1 1 1 1 1 1 1 1
          1 1 1 1 1 1 1 1 1 1 1 1
          1 1 1 1 1 1 1 1 1 1 1 1
          1 1 1 1 1 1 1 1 1 1 1 1
          1 1 1 1 1 1 1 1 1 1 1 1
          1 1 1 1 1 1 1 1 1 1 1 1
          1 1 1 1 1 1 1 1 1 1 1 1
          1 1 1 1 1 1 1 1 1 1 1 1
          1 1 1 1 1 1 1 1 1 1 1 1
          1 1 1 1 1 1 1 1 1 1 1 1
          1 1 1 1 1 1 1 1 1 1 1 1
          1 1 1 1 1 1 1 1 1 1 1 1
          1 1 1 1 1 1 1 1 1 1 1 1
          1 1 1 1 1 1 1 1 1 1 1 1
          1 1 1 1 1 1 1 1 1 1 1 1
          1 1 1 1 1 1 1 1 1 1 1 1
          1 1 1 1 1 1 1 1 1 1 1 1
          1 1 1 1 1 1 1 1 1 1 1 1
          1 1 1 1 1 1 1 1 1 1 1 1
          1 1 1 1 1 1 1 1 1 1 1 1
          1 1 1 1 1 1 1 1 1 1 1 1
          1 1 1 1 1 1 1 1 1 1 1 1
          1 1 1 1 1 1 1 1 1 1 1 1
          1 1 1 1 1 1 1 1 1 1 1 1
          1 1 1 1 1 1 1 1 1 1 1 1
          1 1 1 1 1 1 1 1 1 1 1 1
          1 1 1 1 1 1 1 1 1 1 1 1
          1 1 1 1 1 1 1 1 1 1 1 1
          1 1 1 1 1 1 1 1 1 1 1 1
          1 1 1 1 1 1 1 1 1 1 1 1
          1 1 1 1 1 1 1 1 1 1 1 1
          1 1 1 1 1 1 1 1 1 1 1 1
          1 1 1 1 1 1 1 1 1 1 1 1
          1 1 1 1 1 1 1 1 1 1 1 1
          1 1 1 1 1 1 1 1 1 1 1 1
          1 1 1 1 1 1 1 1 1 1 1 1
          1 1 1 1 1 1 1 1 1 1 1 1
          1 1 1 1 1 1 1 1 1 1 1 1
          1 1 1 1 1 1 1 1 1 1 1 1
          1 1 1 1 1 1 1 1 1 1 1 1
          1 1 1 1 1 1 1 1 1 1 1 1
          1 1 1 1 1 1 1 1 1 1 1 1
          1 1 1 1 1 1 1 1 1 1 1 1
          1 1 1 1 1 1 1 1 1 1 1 1
          1 1 1 1 1 1 1 1 1 1 1 1
          1 1 1 1 1 1 1 1 1 1 1 1
          1 1 1 1 1 1 1 1 1 1 1 1
          1 1 1 1 1 1 1 1 1 1 1 1
          1 1 1 1 1 1 1 1 1 1 1 1
          1 1 1 1 1 1 1 1 1 1 1 1
          1 1 1 1 1 1 1 1 1 1 1 1
          1 1 1 1 1 1 1 1 1 1 1 1
          1 1 1 1 1 1 1 1 1 1 1 1
          1 1 1 1 1 1 1 1 1 1 1 1
          1 1 1 1 1 1 1 1 1 1 1 1
          1 1 1 1 1 1 1 1 1 1 1 1
          1 1 1 1 1 1 1 1 1 1 1 1
          1 1 1 1 1 1 1 1 1 1 1 1
          1 1 1 1 1 1 1 1 1 1 1 1
          1 1 1 1 1 1 1 1 1 1 1 1
          1 1 1 1 1 1 1 1 1 1 1 1
          1 1 1 1 1 1 1 1 1 1 1 1
          1 1 1 1 1 1 1 1 1 1 1 1
          1 1 1 1 1 1 1 1 1 1 1 1
          1 1 1 1 1 1 1 1 1 1 1 1
          1 1 1 1 1 1 1 1 1 1 1 1
          1 1 1 1 1 1 1 1 1 1 1 1
          1 1 1 1 1 1 1 1 1 1 1 1
          1 1 1 1 1 1 1 1 1 1 1 1
          1 1 1 1 1 1 1 1 1 1 1 1
          1 1 1 1 1 1 1 1 1 1 1 1
          1 1 1 1 1 1 1 1 1 1 1 1
          1 1 1 1 1 1 1 1 1 1 1 1
          1 1 1 1 1 1 1 1 1 1 1 1
          1 1 1 1 1 1 1 1 1 1 1 1
          1 1 1 1 1 1 1 1 1 1 1 1
          1 1 1 1 1 1 1 1 1 1 1 1
          1 1 1 1 1 1 1 1 1 1 1 1
          1 1 1 1 1 1 1 1 1 1 1 1
          1 1 1 1 1 1 1 1 1 1 1 1
          1 1 1 1 1 1 1 1 1 1 1 1
          1 1 1 1 1 1 1 1 1 1 1 1
          1 1 1 1 1 1 1 1 1 1 1 1
          1 1 1 1 1 1 1 1 1 1 1 1
          1 1 1 1 1 1 1 1 1 1 1 1
          1 1 1 1 1 1 1 1 1 1 1 1
          1 1 1 1 1 1 1 1 1 1 1 1
          1 1 1 1 1 1 1 1 1 1 1 1
          1 1 1 1 1 1 1 1 1 1 1 1
          1 1 1 1 1 1 1 1 1 1 1 1
          1 1 1 1 1 1 1 1 1 1 1 1
          1 1 1 1 1 1 1 1 1 1 1 1
          1 1 1 1 1 1 1 1 1 1 1 1
          1 1 1 1 1 1 1 1 1 1 1 1
          1 1 1 1 1 1 1 1 1 1 1 1
          1 1 1 1 1 1 1 1 1 1 1 1
          1 1 1 1 1 1 1 1 1 1 1 1
          1 1 1 1 1 1 1 1 1 1 1 1
          1 1 1 1 1 1 1 1 1 1 1 1
          1 1 1 1 1 1 1 1 1 1 1 1
          1 1 1 1 1 1 1 1 1 1 1 1
          1 1 1 1 1 1 1 1 1 1 1 1
          1 1 1 1 1 1 1 1 1 1 1 1
          1 1 1 1 1 1 1 1 1 1 1 1
          1 1 1 1 1 1 1 1 1 1 1 1
          1 1 1 1 1 1 1 1 1 1 1 1
          1 1 1 1 1 1 1 1 1 1 1 1
          1 1 1 1 1 1 1 1 1 1 1 1
          1 1 1 1 1 1 1 1 1 1 1 1
          1 1 1 1 1 1 1 1 1 1 1 1
          1 1 1 1 1 1 1 1 1 1 1 1
          1 1 1 1 1 1 1 1 1 1 1 1
          1 1 1 1 1 1 1 1 1 1 1 1
          1 1 1 1 1 1 1 1 1 1 1 1
          1 1 1 1 1 1 1 1 1 1 1 1
          1 1 1 1 1 1 1 1 1 1 1 1
          1 1 1 1 1 1 1 1 1 1 1 1
          1 1 1 1 1 1 1 1 1 1 1 1
          1 1 1 1 1 1 1 1 1 1 1 1
          1 1 1 1 1 1 1 1 1 1 1 1
          1 1 1 1 1 1 1 1 1 1 1 1
          1 1 1 1 1 1 1 1 1 1 1 1
          1 1 1 1 1 1 1 1 1 1 1 1
          1 1 1 1 1 1 1 1 1 1 1 1
          1 1 1 1 1 1 1 1 1 1 1 1
          1 1 1 1 1 1 1 1 1 1 1 1
          1 1 1 1 1 1 1 1 1 1 1 1
          1 1 1 1 1 1 1 1 1 1 1 1
          1 1 1 1 1 1 1 1 1 1 1 1
          1 1 1 1 1 1 1 1 1 1 1 1
          1 1 1 1 1 1 1 1 1 1 1 1
          1 1 1 1 1 1 1 1 1 1 1 1
          1 1 1 1 1 1 1 1 1 1 1 1
          1 1 1 1 1 1 1 1 1 1 1 1
          1 1 1 1 1 1 1 1 1 1 1 1
          1 1 1 1 1 1 1 1 1 1 1 1
          1 1 1 1 1 1 1 1 1 1 1 1
          1 1 1 1 1 1 1 1 1 1 1 1
          1 1 1 1 1 1 1 1 1 1 1 1
          1 1 1 1 1 1 1 1 1 1 1 1
          1 1 1 1 1 1 1 1 1 1 1 1
          1 1 1 1 1 1 1 1 1 1 1 1
          1 1 1 1 1 1 1 1 1 1 1 1
          1 1 1 1 1 1 1 1 1 1 1 1
          1 1 1 1 1 1 1 1 1 1 1 1
          1 1 1 1 1 1 1 1 1 1 1 1
          1 1 1 1 1 1 1 1 1 1 1 1
          1 1 1 1 1 1 1 1 1 1 1 1
          1 1 1 1 1 1 1 1 1 1 1 1
          1 1 1 1 1 1 1 1 1 1 1 1
          1 1 1 1 1 1 1 1 1 1 1 1
          1 1 1 1 1 1 1 1 1 1 1 1
          1 1 1 1 1 1 1 1 1 1 1 1
          1 1 1 1 1 1 1 1 1 1 1 1
          1 1 1 1 1 1 1 1 1 1 1 1
          1 1 1 1 1 1 1 1 1 1 1 1
          1 1 1 1 1 1 1 1 1 1 1 1
          1 1 1 1 1 1 1 1 1 1 1 1
          1 1 1 1 1 1 1 1 1 1 1 1
          1 1 1 1 1 1 1 1 1 1 1 1
          1 1 1 1 1 1 1 1 1 1 1 1
          1 1 1 1 1 1 1 1 1 1 1 1
          1 1 1 1 1 1 1 1 1 1 1 1
          1 1 1 1 1 1 1 1 1 1 1 1
          1 1 1 1 1 1 1 1 1 1 1 1
          1 1 1 1 1 1 1 1 1 1 1 1
          1 1 1 1 1 1 1 1 1 1 1 1
          1 1 1 1 1 1 1 1 1 1 1 1
          1 1 1 1 1 1 1 1 1 1 1 1
          1 1 1 1 1 1 1 1 1 1 1 1
          1
        </DataArray>
        <DataArray type="Float32" Name="p_liq" NumberOfComponents="1" format="ascii">
          9.91e+06 9.91012e+06 9.90387e+06 9.90401e+06 9.91026e+06 9.90415e+06 9.91041e+06 9.9043e+06 9.91057e+06 9.90445e+06 9.91072e+06 9.90461e+06
          9.91088e+06 9.90477e+06 9.91105e+06 9.90494e+06 9.91121e+06 9.9051e+06 9.91138e+06 9.90527e+06 9.91155e+06 9.90544e+06 9.91172e+06 9.90561e+06
          9.9119e+06 9.90579e+06 9.91208e+06 9.90596e+06 9.91225e+06 9.90614e+06 9.91243e+06 9.90632e+06 9.91261e+06 9.9065e+06 9.91279e+06 9.90668e+06
          9.91297e+06 9.90686e+06 9.91313e+06 9.90703e+06 9.91327e+06 9.90719e+06 9.91336e+06 9.9073e+06 9.91332e+06 9.90734e+06 9.91277e+06 9.90733e+06
          9.91e+06 9.90733e+06 9.91e+06 9.90735e+06 9.91e+06 9.90747e+06 9.91e+06 9.90754e+06 9.91e+06 9.90757e+06 9.91e+06 9.90755e+06
          9.91e+06 9.90748e+06 9.91e+06 9.90728e+06 9.91e+06 9.90675e+06 9.91e+06 9.90662e+06 9.91e+06 9.90656e+06 9.91e+06 9.90651e+06
          9.91e+06 9.90646e+06 9.91e+06 9.9064e+06 9.91e+06 9.90631e+06 9.91e+06 9.90619e+06 9.91e+06 9.90622e+06 9.91175e+06 9.90632e+06
          9.91207e+06 9.90628e+06 9.91207e+06 9.90622e+06 9.912e+06 9.90613e+06 9.91191e+06 9.90603e+06 9.91184e+06 9.90595e+06 9.91179e+06 9.9059e+06
          9.91179e+06 9.90587e+06 9.91191e+06 9.90587e+06 9.91192e+06 9.90584e+06 9.91186e+06 9.90576e+06 9.91176e+06 9.90566e+06 9.91164e+06 9.90554e+06
          9.91151e+06 9.90541e+06 9.91137e+06 9.90526e+06 9.91122e+06 9.90511e+06 9.91107e+06 9.90496e+06 9.91091e+06 9.9048e+06 9.91075e+06 9.90464e+06
          9.91059e+06 9.90448e+06 9.91044e+06 9.90432e+06 9.91028e+06 9.90417e+06 9.91013e+06 9.90402e+06 9.91e+06 9.90387e+06 9.89774e+06 9.89788e+06
          9.89803e+06 9.89818e+06 9.89834e+06 9.8985e+06 9.89866e+06 9.89882e+06 9.89899e+06 9.89916e+06 9.89933e+06 9.8995e+06 9.89967e+06 9.89985e+06
          9.90003e+06 9.90021e+06 9.9004e+06 9.90058e+06 9.90076e+06 9.90095e+06 9.90113e+06 9.90131e+06 9.90151e+06 9.90177e+06 9.90281e+06 9.90333e+06
          9.90355e+06 9.90367e+06 9.90371e+06 9.9037e+06 9.90361e+06 9.90336e+06 9.9027e+06 9.90254e+06 9.90244e+06 9.90238e+06 9.90231e+06 9.90222e+06
          9.90207e+06 9.90183e+06 9.90142e+06 9.90089e+06 9.90056e+06 9.90039e+06 9.90026e+06 9.90014e+06 9.90004e+06 9.89997e+06 9.89992e+06 9.89988e+06
          9.8998e+06 9.89969e+06 9.89958e+06 9.89945e+06 9.89931e+06 9.89916e+06 9.89901e+06 9.89885e+06 9.89869e+06 9.89853e+06 9.89837e+06 9.89821e+06
          9.89805e+06 9.89789e+06 9.89774e+06 9.89161e+06 9.89176e+06 9.89191e+06 9.89206e+06 9.89222e+06 9.89238e+06 9.89254e+06 9.8927e+06 9.89287e+06
          9.89304e+06 9.89321e+06 9.89338e+06 9.89356e+06 9.89374e+06 9.89392e+06 9.8941e+06 9.89428e+06 9.89447e+06 9.89467e+06 9.89487e+06 9.89508e+06
          9.89531e+06 9.89561e+06 9.89608e+06 9.89713e+06 9.89766e+06 9.89791e+06 9.89805e+06 9.8981e+06 9.8981e+06 9.89802e+06 9.89785e+06 9.89749e+06
          9.89734e+06 9.89725e+06 9.89719e+06 9.89713e+06 9.89705e+06 9.8969e+06 9.89661e+06 9.89606e+06 9.89512e+06 9.89479e+06 9.89454e+06 9.89436e+06
          9.89422e+06 9.89411e+06 9.89402e+06 9.89395e+06 9.89389e+06 9.89377e+06 9.89364e+06 9.89351e+06 9.89337e+06 9.89322e+06 9.89307e+06 9.89291e+06
          9.89275e+06 9.89259e+06 9.89242e+06 9.89226e+06 9.8921e+06 9.89193e+06 9.89177e+06 9.89161e+06 9.88548e+06 9.88563e+06 9.88578e+06 9.88594e+06
          9.8861e+06 9.88626e+06 9.88642e+06 9.88659e+06 9.88675e+06 9.88692e+06 9.88709e+06 9.88726e+06 9.88744e+06 9.88762e+06 9.8878e+06 9.88798e+06
          9.88817e+06 9.88836e+06 9.88856e+06 9.88877e+06 9.889e+06 9.88927e+06 9.88959e+06 9.89003e+06 9.89053e+06 9.89095e+06 9.89123e+06 9.8914e+06
          9.89148e+06 9.89148e+06 9.89141e+06 9.89125e+06 9.89097e+06 9.89087e+06 9.89078e+06 9.89072e+06 9.89069e+06 9.89067e+06 9.89053e+06 9.89027e+06
          9.88982e+06 9.88929e+06 9.8889e+06 9.88864e+06 9.88844e+06 9.88828e+06 9.88815e+06 9.88805e+06 9.88796e+06 9.8879e+06 9.88775e+06 9.8876e+06
          9.88745e+06 9.88729e+06 9.88714e+06 9.88698e+06 9.88682e+06 9.88665e+06 9.88648e+06 9.88632e+06 9.88615e+06 9.88598e+06 9.88581e+06 9.88564e+06
          9.88548e+06 9.87934e+06 9.8795e+06 9.87966e+06 9.87982e+06 9.87998e+06 9.88014e+06 9.8803e+06 9.88047e+06 9.88063e+06 9.8808e+06 9.88097e+06
          9.88114e+06 9.88132e+06 9.8815e+06 9.88168e+06 9.88186e+06 9.88205e+06 9.88225e+06 9.88245e+06 9.88266e+06 9.8829e+06 9.88316e+06 9.88346e+06
          9.88381e+06 9.88416e+06 9.88448e+06 9.88472e+06 9.88488e+06 9.88497e+06 9.88499e+06 9.88494e+06 9.88483e+06 9.88467e+06 9.88459e+06 9.88452e+06
          9.88445e+06 9.88438e+06 9.88429e+06 9.88413e+06 9.88389e+06 9.88358e+06 9.88324e+06 9.88292e+06 9.88267e+06 9.88247e+06 9.88231e+06 9.88217e+06
          9.88206e+06 9.88197e+06 9.88189e+06 9.88172e+06 9.88155e+06 9.88139e+06 9.88122e+06 9.88106e+06 9.88089e+06 9.88072e+06 9.88055e+06 9.88038e+06
          9.88021e+06 9.88004e+06 9.87986e+06 9.87969e+06 9.87952e+06 9.87934e+06 9.87321e+06 9.87337e+06 9.87353e+06 9.87369e+06 9.87385e+06 9.87401e+06
          9.87418e+06 9.87434e+06 9.87451e+06 9.87468e+06 9.87485e+06 9.87502e+06 9.8752e+06 9.87538e+06 9.87556e+06 9.87574e+06 9.87593e+06 9.87612e+06
          9.87632e+06 9.87654e+06 9.87676e+06 9.87701e+06 9.87728e+06 9.87756e+06 9.87784e+06 9.8781e+06 9.8783e+06 9.87845e+06 9.87854e+06 9.87857e+06
          9.87854e+06 9.87847e+06 9.87837e+06 9.87831e+06 9.87825e+06 9.87818e+06 9.87809e+06 9.87798e+06 9.87783e+06 9.87762e+06 9.87738e+06 9.87712e+06
          9.87688e+06 9.87665e+06 9.87646e+06 9.8763e+06 9.87617e+06 9.87606e+06 9.87596e+06 9.87587e+06 9.87569e+06 9.87551e+06 9.87533e+06 9.87516e+06
          9.87498e+06 9.87481e+06 9.87463e+06 9.87445e+06 9.87428e+06 9.8741e+06 9.87392e+06 9.87374e+06 9.87357e+06 9.87339e+06 9.87321e+06 9.86708e+06
          9.86724e+06 9.8674e+06 9.86756e+06 9.86773e+06 9.86789e+06 9.86805e+06 9.86822e+06 9.86839e+06 9.86856e+06 9.86873e+06 9.8689e+06 9.86907e+06
          9.86925e+06 9.86943e+06 9.86961e+06 9.8698e+06 9.86999e+06 9.87019e+06 9.8704e+06 9.87061e+06 9.87084e+06 9.87108e+06 9.87132e+06 9.87155e+06
          9.87176e+06 9.87194e+06 9.87207e+06 9.87215e+06 9.8722e+06 9.87219e+06 9.87215e+06 9.87208e+06 9.87204e+06 9.87198e+06 9.87191e+06 9.87182e+06
          9.87171e+06 9.87157e+06 9.8714e+06 9.87121e+06 9.871e+06 9.8708e+06 9.8706e+06 9.87043e+06 9.87028e+06 9.87015e+06 9.87003e+06 9.86993e+06
          9.86984e+06 9.86965e+06 9.86946e+06 9.86927e+06 9.86908e+06 9.8689e+06 9.86872e+06 9.86854e+06 9.86836e+06 9.86818e+06 9.86799e+06 9.86781e+06
          9.86763e+06 9.86745e+06 9.86726e+06 9.86708e+06 9.86095e+06 9.86111e+06 9.86127e+06 9.86144e+06 9.8616e+06 9.86176e+06 9.86193e+06 9.86209e+06
          9.86226e+06 9.86243e+06 9.8626e+06 9.86277e+06 9.86294e+06 9.86312e+06 9.8633e+06 9.86348e+06 9.86366e+06 9.86385e+06 9.86404e+06 9.86424e+06
          9.86445e+06 9.86466e+06 9.86487e+06 9.86508e+06 9.86528e+06 9.86546e+06 9.86562e+06 9.86574e+06 9.86582e+06 9.86587e+06 9.86588e+06 9.86586e+06
          9.86582e+06 9.86578e+06 9.86573e+06 9.86567e+06 9.86558e+06 9.86548e+06 9.86536e+06 9.86521e+06 9.86504e+06 9.86487e+06 9.8647e+06 9.86453e+06
          9.86438e+06 9.86424e+06 9.86411e+06 9.864e+06 9.86389e+06 9.8638e+06 9.8636e+06 9.8634e+06 9.86321e+06 9.86301e+06 9.86282e+06 9.86264e+06
          9.86245e+06 9.86226e+06 9.86207e+06 9.86189e+06 9.8617e+06 9.86151e+06 9.86132e+06 9.86114e+06 9.86095e+06 9.85482e+06 9.85498e+06 9.85514e+06
          9.85531e+06 9.85547e+06 9.85564e+06 9.8558e+06 9.85597e+06 9.85613e+06 9.8563e+06 9.85647e+06 9.85664e+06 9.85682e+06 9.85699e+06 9.85716e+06
          9.85734e+06 9.85752e+06 9.85771e+06 9.8579e+06 9.85809e+06 9.85828e+06 9.85847e+06 9.85867e+06 9.85885e+06 9.85903e+06 9.85919e+06 9.85933e+06
          9.85944e+06 9.85952e+06 9.85957e+06 9.8596e+06 9.8596e+06 9.85957e+06 9.85954e+06 9.8595e+06 9.85944e+06 9.85936e+06 9.85927e+06 9.85916e+06
          9.85903e+06 9.85889e+06 9.85874e+06 9.8586e+06 9.85845e+06 9.85831e+06 9.85818e+06 9.85806e+06 9.85795e+06 9.85784e+06 9.85775e+06 9.85755e+06
          9.85734e+06 9.85714e+06 9.85694e+06 9.85674e+06 9.85655e+06 9.85636e+06 9.85616e+06 9.85597e+06 9.85578e+06 9.85559e+06 9.8554e+06 9.8552e+06
          9.85501e+06 9.85482e+06 9.84869e+06 9.84885e+06 9.84901e+06 9.84918e+06 9.84934e+06 9.84951e+06 9.84967e+06 9.84984e+06 9.85e+06 9.85017e+06
          9.85034e+06 9.85051e+06 9.85068e+06 9.85086e+06 9.85103e+06 9.85121e+06 9.85138e+06 9.85156e+06 9.85174e+06 9.85192e+06 9.85211e+06 9.85229e+06
          9.85247e+06 9.85264e+06 9.8528e+06 9.85294e+06 9.85307e+06 9.85317e+06 9.85325e+06 9.85331e+06 9.85334e+06 9.85335e+06 9.85334e+06 9.85332e+06
          9.85328e+06 9.85323e+06 9.85316e+06 9.85308e+06 9.85298e+06 9.85287e+06 9.85275e+06 9.85262e+06 9.85249e+06 9.85236e+06 9.85223e+06 9.85211e+06
          9.852e+06 9.85189e+06 9.85179e+06 9.8517e+06 9.85149e+06 9.85128e+06 9.85107e+06 9.85087e+06 9.85066e+06 9.85046e+06 9.85027e+06 9.85007e+06
          9.84987e+06 9.84967e+06 9.84948e+06 9.84928e+06 9.84908e+06 9.84888e+06 9.84869e+06 9.84256e+06 9.84272e+06 9.84288e+06 9.84305e+06 9.84321e+06
          9.84338e+06 9.84354e+06 9.84371e+06 9.84388e+06 9.84404e+06 9.84421e+06 9.84438e+06 9.84455e+06 9.84472e+06 9.84489e+06 9.84507e+06 9.84524e+06
          9.84541e+06 9.84559e+06 9.84576e+06 9.84594e+06 9.84611e+06 9.84627e+06 9.84643e+06 9.84658e+06 9.84671e+06 9.84683e+06 9.84693e+06 9.84701e+06
          9.84707e+06 9.84711e+06 9.84712e+06 9.84712e+06 9.8471e+06 9.84708e+06 9.84703e+06 9.84697e+06 9.8469e+06 9.84681e+06 9.84672e+06 9.84661e+06
          9.8465e+06 9.84638e+06 9.84626e+06 9.84615e+06 9.84604e+06 9.84593e+06 9.84582e+06 9.84572e+06 9.84563e+06 9.84542e+06 9.84521e+06 9.845e+06
          9.84479e+06 9.84458e+06 9.84438e+06 9.84417e+06 9.84397e+06 9.84377e+06 9.84357e+06 9.84336e+06 9.84316e+06 9.84296e+06 9.84276e+06 9.84256e+06
          9.83642e+06 9.83659e+06 9.83675e+06 9.83692e+06 9.83708e+06 9.83725e+06 9.83741e+06 9.83758e+06 9.83775e+06 9.83791e+06 9.83808e+06 9.83825e+06
          9.83842e+06 9.83859e+06 9.83876e+06 9.83892e+06 9.8391e+06 9.83926e+06 9.83943e+06 9.8396e+06 9.83977e+06 9.83993e+06 9.84009e+06 9.84024e+06
          9.84038e+06 9.8405e+06 9.84062e+06 9.84071e+06 9.84079e+06 9.84085e+06 9.84089e+06 9.84092e+06 9.84092e+06 9.84091e+06 9.84089e+06 9.84085e+06
          9.8408e+06 9.84073e+06 9.84066e+06 9.84057e+06 9.84048e+06 9.84038e+06 9.84027e+06 9.84017e+06 9.84006e+06 9.83996e+06 9.83985e+06 9.83975e+06
          9.83966e+06 9.83956e+06 9.83935e+06 9.83913e+06 9.83892e+06 9.83871e+06 9.8385e+06 9.83829e+06 9.83808e+06 9.83787e+06 9.83767e+06 9.83746e+06
          9.83725e+06 9.83704e+06 9.83684e+06 9.83663e+06 9.83642e+06 9.83029e+06 9.83046e+06 9.83062e+06 9.83079e+06 9.83095e+06 9.83112e+06 9.83128e+06
          9.83145e+06 9.83162e+06 9.83178e+06 9.83195e+06 9.83212e+06 9.83228e+06 9.83245e+06 9.83262e+06 9.83278e+06 9.83295e+06 9.83312e+06 9.83328e+06
          9.83344e+06 9.8336e+06 9.83376e+06 9.83391e+06 9.83405e+06 9.83418e+06 9.8343e+06 9.83441e+06 9.83451e+06 9.83459e+06 9.83465e+06 9.8347e+06
          9.83473e+06 9.83474e+06 9.83473e+06 9.83471e+06 9.83468e+06 9.83463e+06 9.83458e+06 9.83451e+06 9.83444e+06 9.83435e+06 9.83426e+06 9.83417e+06
          9.83407e+06 9.83397e+06 9.83387e+06 9.83378e+06 9.83368e+06 9.83358e+06 9.83349e+06 9.83328e+06 9.83306e+06 9.83284e+06 9.83263e+06 9.83241e+06
          9.8322e+06 9.83199e+06 9.83178e+06 9.83156e+06 9.83135e+06 9.83114e+06 9.83093e+06 9.83072e+06 9.8305e+06 9.83029e+06 9.82416e+06 9.82433e+06
          9.82449e+06 9.82466e+06 9.82482e+06 9.82499e+06 9.82515e+06 9.82532e+06 9.82548e+06 9.82565e+06 9.82582e+06 9.82598e+06 9.82615e+06 9.82631e+06
          9.82648e+06 9.82664e+06 9.82681e+06 9.82697e+06 9.82713e+06 9.82729e+06 9.82744e+06 9.82759e+06 9.82774e+06 9.82787e+06 9.828e+06 9.82812e+06
          9.82823e+06 9.82832e+06 9.8284e+06 9.82847e+06 9.82852e+06 9.82856e+06 9.82856e+06 9.82856e+06 9.82855e+06 9.82852e+06 9.82848e+06 9.82844e+06
          9.82838e+06 9.82831e+06 9.82824e+06 9.82815e+06 9.82807e+06 9.82798e+06 9.82788e+06 9.82779e+06 9.8277e+06 9.8276e+06 9.82751e+06 9.82742e+06
          9.8272e+06 9.82698e+06 9.82676e+06 9.82654e+06 9.82633e+06 9.82611e+06 9.82589e+06 9.82568e+06 9.82546e+06 9.82524e+06 9.82503e+06 9.82481e+06
          9.8246e+06 9.82438e+06 9.82416e+06 9.81803e+06 9.8182e+06 9.81836e+06 9.81853e+06 9.81869e+06 9.81886e+06 9.81902e+06 9.81919e+06 9.81935e+06
          9.81952e+06 9.81968e+06 9.81985e+06 9.82001e+06 9.82018e+06 9.82034e+06 9.8205e+06 9.82066e+06 9.82082e+06 9.82098e+06 9.82114e+06 9.82129e+06
          9.82143e+06 9.82157e+06 9.82171e+06 9.82183e+06 9.82195e+06 9.82205e+06 9.82214e+06 9.82223e+06 9.8223e+06 9.82235e+06 9.82239e+06 9.82241e+06
          9.82241e+06 9.8224e+06 9.82238e+06 9.82234e+06 9.8223e+06 9.82225e+06 9.82219e+06 9.82212e+06 9.82205e+06 9.82197e+06 9.82188e+06 9.8218e+06
          9.82171e+06 9.82162e+06 9.82152e+06 9.82143e+06 9.82134e+06 9.82113e+06 9.8209e+06 9.82068e+06 9.82046e+06 9.82024e+06 9.82002e+06 9.8198e+06
          9.81958e+06 9.81936e+06 9.81914e+06 9.81892e+06 9.81869e+06 9.81847e+06 9.81825e+06 9.81803e+06 9.8119e+06 9.81207e+06 9.81223e+06 9.8124e+06
          9.81256e+06 9.81273e+06 9.81289e+06 9.81306e+06 9.81322e+06 9.81339e+06 9.81355e+06 9.81372e+06 9.81388e+06 9.81404e+06 9.8142e+06 9.81437e+06
          9.81452e+06 9.81468e+06 9.81484e+06 9.81499e+06 9.81514e+06 9.81528e+06 9.81542e+06 9.81555e+06 9.81567e+06 9.81578e+06 9.81589e+06 9.81598e+06
          9.81607e+06 9.81614e+06 9.8162e+06 9.81625e+06 9.81626e+06 9.81626e+06 9.81626e+06 9.81624e+06 9.81622e+06 9.81618e+06 9.81613e+06 9.81608e+06
          9.81602e+06 9.81595e+06 9.81588e+06 9.8158e+06 9.81571e+06 9.81563e+06 9.81554e+06 9.81545e+06 9.81536e+06 9.81527e+06 9.81505e+06 9.81483e+06
          9.8146e+06 9.81438e+06 9.81415e+06 9.81393e+06 9.8137e+06 9.81348e+06 9.81325e+06 9.81303e+06 9.8128e+06 9.81258e+06 9.81235e+06 9.81213e+06
          9.8119e+06 9.80577e+06 9.80594e+06 9.8061e+06 9.80627e+06 9.80643e+06 9.8066e+06 9.80676e+06 9.80693e+06 9.80709e+06 9.80726e+06 9.80742e+06
          9.80758e+06 9.80775e+06 9.80791e+06 9.80807e+06 9.80823e+06 9.80839e+06 9.80854e+06 9.80869e+06 9.80884e+06 9.80899e+06 9.80913e+06 9.80927e+06
          9.8094e+06 9.80952e+06 9.80963e+06 9.80974e+06 9.80983e+06 9.80992e+06 9.80999e+06 9.81006e+06 9.81011e+06 9.81013e+06 9.81013e+06 9.81013e+06
          9.81012e+06 9.8101e+06 9.81006e+06 9.81002e+06 9.80998e+06 9.80992e+06 9.80986e+06 9.80979e+06 9.80971e+06 9.80963e+06 9.80955e+06 9.80946e+06
          9.80938e+06 9.80928e+06 9.80919e+06 9.80898e+06 9.80875e+06 9.80852e+06 9.8083e+06 9.80807e+06 9.80784e+06 9.80761e+06 9.80738e+06 9.80715e+06
          9.80692e+06 9.80669e+06 9.80646e+06 9.80623e+06 9.806e+06 9.80577e+06 9.79964e+06 9.7998e+06 9.79997e+06 9.80014e+06 9.8003e+06 9.80047e+06
          9.80063e+06 9.8008e+06 9.80096e+06 9.80113e+06 9.80129e+06 9.80145e+06 9.80162e+06 9.80178e+06 9.80194e+06 9.80209e+06 9.80225e+06 9.8024e+06
          9.80256e+06 9.8027e+06 9.80285e+06 9.80299e+06 9.80312e+06 9.80325e+06 9.80337e+06 9.80349e+06 9.80359e+06 9.80369e+06 9.80378e+06 9.80386e+06
          9.80393e+06 9.80398e+06 9.804e+06 9.80401e+06 9.80401e+06 9.80401e+06 9.80399e+06 9.80396e+06 9.80392e+06 9.80388e+06 9.80383e+06 9.80377e+06
          9.8037e+06 9.80363e+06 9.80356e+06 9.80348e+06 9.80339e+06 9.8033e+06 9.80321e+06 9.80312e+06 9.8029e+06 9.80267e+06 9.80244e+06 9.80221e+06
          9.80198e+06 9.80175e+06 9.80152e+06 9.80128e+06 9.80105e+06 9.80081e+06 9.80058e+06 9.80034e+06 9.80011e+06 9.79987e+06 9.79964e+06 9.79351e+06
          9.79367e+06 9.79384e+06 9.794e+06 9.79417e+06 9.79434e+06 9.7945e+06 9.79467e+06 9.79483e+06 9.795e+06 9.79516e+06 9.79532e+06 9.79548e+06
          9.79564e+06 9.7958e+06 9.79596e+06 9.79612e+06 9.79627e+06 9.79642e+06 9.79657e+06 9.79671e+06 9.79685e+06 9.79698e+06 9.79711e+06 9.79723e+06
          9.79735e+06 9.79746e+06 9.79756e+06 9.79765e+06 9.79773e+06 9.79781e+06 9.79787e+06 9.79789e+06 9.7979e+06 9.79791e+06 9.7979e+06 9.79789e+06
          9.79786e+06 9.79783e+06 9.79779e+06 9.79774e+06 9.79769e+06 9.79762e+06 9.79756e+06 9.79748e+06 9.7974e+06 9.79732e+06 9.79723e+06 9.79714e+06
          9.79705e+06 9.79683e+06 9.7966e+06 9.79637e+06 9.79613e+06 9.7959e+06 9.79566e+06 9.79542e+06 9.79518e+06 9.79495e+06 9.79471e+06 9.79447e+06
          9.79423e+06 9.79399e+06 9.79375e+06 9.79351e+06 9.78738e+06 9.78754e+06 9.78771e+06 9.78788e+06 9.78804e+06 9.78821e+06 9.78837e+06 9.78854e+06
          9.7887e+06 9.78887e+06 9.78903e+06 9.78919e+06 9.78935e+06 9.78951e+06 9.78967e+06 9.78983e+06 9.78998e+06 9.79014e+06 9.79029e+06 9.79043e+06
          9.79058e+06 9.79072e+06 9.79085e+06 9.79098e+06 9.7911e+06 9.79122e+06 9.79133e+06 9.79144e+06 9.79153e+06 9.79162e+06 9.7917e+06 9.79176e+06
          9.79179e+06 9.7918e+06 9.79181e+06 9.79181e+06 9.7918e+06 9.79178e+06 9.79175e+06 9.79171e+06 9.79166e+06 9.79161e+06 9.79155e+06 9.79149e+06