<?xml version="1.0"?>
<VTKFile type="UnstructuredGrid" version="0.1" byte_order="LittleEndian">
  <UnstructuredGrid>
    <Piece NumberOfCells="1833" NumberOfPoints="1946">
      <CellData Scalars="S_liq">
        <DataArray type="Float32" Name="S_liq" NumberOfComponents="1" format="ascii">
          0.509989 0.541142 0.475166 0.545847 0.524568 0.565178 0.581288 0.596013 0.568013 0.491475 0.386719 0.446756
          0.370119 0.49156 0.528193 0.586678 0.554649 0.576306 0.613579 0.631685 0.650384 0.670344 0.697025 0.746168
          0.606573 0.646273 0.628187 0.597412 0.660752 0.678016 0.708307 0.667626 0.652272 0.682333 0.436881 0.343056
          0.485418 0.519767 0.413039 0.54766 0.570677 0.345239 0.449315 0.493508 0.384866 0.509767 0.525106 0.550343
          0.572508 0.538577 0.560269 0.618333 0.63046 0.592046 0.656836 0.635288 0.696681 0.61207 0.623187 0.592311
          0.611326 0.645437 0.664818 0.633048 0.674943 0.89545 1 1 1 1 0.800348 0.975181
          1 1 1 1 1 1 1 1 1 1 1 1
          1 1 1 1 1 1 1 1 1 1 1 1
          0.774392 0.94176 0.97547 1 1 0.70803 0.793882 0.741014 0.86423 1 1 1
          1 1 1 1 1 1 1 1 1 1 1 0.469788
          0.405633 0.47423 0.506416 0.535787 0.580525 0.558501 0.572462 0.588464 0.516399 0.548416 0.419156 0.485841
          0.572907 0.584537 0.595753 0.597304 0.611993 0.621483 0.601559 0.620419 0.628741 0.640479 0.657244 0.670659
          0.613652 0.623409 0.635441 0.606142 0.615809 0.62749 0.649301 0.644775 0.667279 0.410018 0.526323 0.475289
          0.510829 0.559639 0.575784 0.536715 0.55547 0.570254 0.378057 0.443442 0.510081 0.386524 0.479729 0.532006
          0.552066 0.524709 0.568836 0.587765 0.599346 0.611173 0.643076 0.620373 0.665413 0.585932 0.599559 0.611701
          0.586607 0.602614 0.61944 0.624957 0.646391 0.672324 0.703655 0.76244 0.696594 0.918344 1 1
          1 0.743986 0.866639 0.69188 0.731092 1 1 1 1 1 1 1
          1 1 1 1 1 0.684009 0.827883 0.709736 0.779366 1 1 1
          0.940418 1 0.692969 0.754209 1 0.867696 1 1 1 1 1 1
          1 1 1 1 1 1 1 1 1 1 1 1
          1 1 1 1 1 1 1 1 1 1 1 1
          1 1 1 1 1 1 1 1 1 1 1 1
          1 1 1 1 1 1 1 1 1 1 1 1
          1 1 1 1 1 1 1 1 1 1 1 1
          1 1 1 1 1 1 1 1 1 1 1 1
          1 1 1 1 1 1 1 1 1 1 1 1
          1 1 1 1 1 1 1 1 1 1 1 1
          1 1 1 1 1 1 1 1 1 1 1 1
          1 1 1 1 1 1 1 1 1 1 1 1
          1 1 1 1 1 1 1 1 1 1 1 1
          1 1 1 1 1 1 1 1 1 1 1 1
          1 1 1 1 1 1 1 1 1 1 1 1
          1 1 1 1 1 1 1 1 1 1 1 1
          1 1 1 1 1 1 1 1 1 1 1 1
          1 1 1 1 1 1 1 1 1 1 1 1
          1 1 1 1 1 1 1 1 1 1 1 1
          1 1 1 1 1 1 1 1 1 1 1 1
          1 1 1 1 1 1 1 1 1 1 0.45639 0.506577
          0.404047 0.484009 0.520369 0.548342 0.568403 0.546937 0.453296 0.386024 0.490913 0.445856 0.350757 0.486908
          0.569363 0.519977 0.54584 0.568639 0.58896 0.608525 0.628841 0.636722 0.659495 0.651006 0.590982 0.612482
          0.590607 0.633644 0.678232 0.658427 0.686512 0.415806 0.35208 0.443801 0.488693 0.520797 0.54283 0.563848
          0.552014 0.384175 0.459344 0.493255 0.40519 0.528742 0.578482 0.613161 0.633807 0.586575 0.609055 0.657903
          0.679551 0.628803 0.601871 0.621066 0.647717 0.678872 0.659566 0.691545 0.741665 0.840238 0.999451 1
          1 0.952309 1 1 0.725807 0.798544 0.737962 0.942202 1 1 1 1
          1 1 1 1 1 1 1 1 1 1 1 1
          1 1 0.795337 0.7082 0.745449 0.875484 1 1 1 0.707645 0.771331 0.700195
          0.947439 1 1 1 1 1 1 1 1 1 1 1
          1 1 1 1 1 1 1 1 1 0.441313 0.484027 0.517761
          0.477758 0.491406 0.549516 0.548567 0.580899 0.515399 0.505681 0.563978 0.577157 0.604235 0.586743 0.60461
          0.624689 0.635066 0.647816 0.639454 0.689894 0.625566 0.645486 0.679958 0.666107 0.706274 0.693553 0.723956
          0.527137 0.534735 0.574268 0.550442 0.584674 0.611326 0.618014 0.593395 0.61186 0.54634 0.565701 0.563082
          0.596209 0.606411 0.626719 0.623712 0.627341 0.637156 0.640086 0.659064 0.680822 0.713617 0.783369 0.632149
          0.65607 0.675976 0.645883 0.671088 0.69663 0.702682 0.754186 0.910891 0.737829 0.841113 1 0.746552
          0.900485 1 1 1 1 0.858915 1 0.982361 1 1 1 1
          1 1 1 1 1 1 1 1 1 1 1 1
          1 1 1 1 1 1 1 1 1 1 1 1
          1 1 1 1 1 1 1 1 1 1 1 1
          1 1 1 1 1 1 1 1 1 1 1 1
          1 1 1 1 1 1 1 1 1 1 1 1
          1 1 1 1 1 1 1 1 1 1 1 1
          1 1 1 1 1 1 1 1 1 1 1 1
          1 1 1 1 1 1 1 1 1 1 1 1
          1 1 1 1 1 1 1 1 1 1 1 1
          1 1 1 1 1 1 1 1 1 1 1 1
          1 1 1 1 1 1 1 1 1 1 1 1
          1 1 1 1 1 1 1 1 1 1 1 1
          1 1 1 1 1 1 1 1 1 1 1 1
          1 1 1 1 1 1 1 1 1 1 1 1
          1 1 1 1 1 1 1 1 1 1 1 1
          1 1 1 1 1 1 1 1 1 1 1 1
          1 1 1 1 1 1 1 1 1 1 1 1
          1 1 1 1 1 1 1 1 1 1 1 1
          1 1 1 1 1 1 1 1 1 1 1 1
          1 1 1 1 1 1 1 1 1 1 1 1
          1 1 1 1 1 1 1 1 1 1 1 1
          1 1 1 1 1 1 1 1 1 1 1 1
          1 1 1 1 1 1 1 1 1 1 1 1
          1 1 1 1 1 1 1 1 1 1 1 1
          1 1 1 1 1 1 1 1 1 1 1 1
          1 1 1 1 1 1 1 1 1 1 1 1
          1 1 1 1 1 1 1 1 1 1 1 1
          1 1 1 1 1 1 1 1 1 1 1 1
          1 1 1 1 1 1 1 1 1 1 1 1
          1 1 1 1 1 1 1 1 1 1 1 1
          1 1 1 1 1 1 1 1 1 1 1 1
          1 1 1 1 1 1 1 1 1 1 1 1
          1 1 1 1 1 1 1 1 1 1 1 1
          1 1 1 1 1 1 1 1 1 1 1 1
          1 1 1 1 1 1 1 1 1 1 1 1
          1 1 1 1 1 1 1 1 1 1 1 1
          1 1 1 1 1 1 1 1 1 1 1 1
          1 1 1 1 1 1 1 1 1 1 1 1
          1 1 1 1 1 1 1 1 1 1 1 1
          1 1 1 1 1 1 1 1 1 1 1 1
          1 1 1 1 1 1 1 1 1 1 1 1
          1 1 1 1 1 1 1 1 1 1 1 1
          1 1 1 1 1 1 1 1 1 1 1 1
          1 1 1 1 1 1 1 1 1 1 1 1
          1 1 1 1 1 1 1 1 1 1 1 1
          1 1 1 1 1 1 1 1 1 1 1 1
          1 1 1 1 1 1 1 1 1 1 1 1
          1 1 1 1 1 1 1 1 1 1 1 1
          1 1 1 1 1 1 1 1 1 1 1 1
          1 1 1 1 1 1 1 1 1 1 1 1
          1 1 1 1 1 1 1 1 1 1 1 1
          1 1 1 1 1 1 1 1 1 1 1 1
          1 1 1 1 1 1 1 1 1 1 1 1
          1 1 1 1 1 1 1 1 1 1 1 1
          1 1 1 1 1 1 1 1 1 1 1 1
          1 1 1 1 1 1 1 1 1 1 1 1
          1 1 1 1 1 1 1 1 1 1 1 1
          1 1 1 1 1 1 1 1 1 1 1 1
          1 1 1 1 1 1 1 1 1 1 1 1
          1 1 1 1 1 1 1 1 1 1 1 1
          1 1 1 1 1 1 1 1 1 1 1 1
          1 1 1 1 1 1 1 1 1 1 1 1
          1 1 1 1 1 1 1 1 1 1 1 1
          1 1 1 1 1 1 1 1 1 1 1 1
          1 1 1 1 1 1 1 1 1 1 1 1
          1 1 1 1 1 1 1 1 1 1 1 1
          1 1 1 1 1 1 1 1 1 1 1 1
          1 1 1 1 1 1 1 1 1 1 1 1
          1 1 1 1 1 1 1 1 1 1 1 1
          1 1 1 1 1 1 1 1 1 1 1 1
          1 1 1 1 1 1 1 1 1 1 1 1
          1 1 1 1 1 1 1 1 1 1 1 1
          1 1 1 1 1 1 1 1 1 1 1 1
          1 1 1 1 1 1 1 1 1 1 1 1
          1 1 1 1 1 1 1 1 1 1 1 1
          1 1 1 1 1 1 1 1 1 1 1 1
          1 1 1 1 1 1 1 1 1 1 1 1
          1 1 1 1 1 1 1 1 1 1 1 1
          1 1 1 1 1 1 1 1 1 1 1 1
          1 1 1 1 1 1 1 1 1 1 1 1
          1 1 1 1 1 1 1 1 1 1 1 1
          1 1 1 1 1 1 1 1 1 1 1 1
          1 1 1 1 1 1 1 1 1 1 1 1
          1 1 1 1 1 1 1 1 1 1 1 1
          1 1 1 1 1 1 1 1 1 1 1 1
          1 1 1 1 1 1 1 1 1 1 1 1
          1 1 1 1 1 1 1 1 1 1 1 1
          1 1 1 1 1 1 1 1 1 1 1 1
          1 1 1 1 1 1 1 1 1 1 1 1
          1 1 1 1 1 1 1 1 1 1 1 1
          1 1 1 1 1 1 1 1 1 1 1 1
          1 1 1 1 1 1 1 1 1 1 1 1
          1 1 1 1 1 1 1 1 1 1 1 1
          1 1 1 1 1 1 1 1 1 1 1 1
          1 1 1 1 1 1 1 1 1 1 1 1
          1 1 1 1 1 1 1 1 1 1 1 1
          1 1 1 1 1 1 1 1 1 1 1 1
          1 1 1 1 1 1 1 1 1 1 1 1
          1 1 1 1 1 1 1 1 1
        </DataArray>
        <DataArray type="Float32" Name="p_liq" NumberOfComponents="1" format="ascii">
          4.40824e+07 4.39415e+07 4.42096e+07 4.37828e+07 4.39536e+07 4.37096e+07 4.34009e+07 4.30637e+07 4.34582e+07 4.41066e+07 4.43662e+07 4.42294e+07
          4.44786e+07 4.40662e+07 4.3857e+07 4.30807e+07 4.35157e+07 4.31186e+07 4.26688e+07 4.22267e+07 4.17856e+07 4.13182e+07 4.08042e+07 4.02021e+07
          4.26636e+07 4.16817e+07 4.21809e+07 4.26916e+07 4.12564e+07 4.08306e+07 4.02776e+07 4.10268e+07 4.13806e+07 4.05944e+07 4.4332e+07 4.45617e+07
          4.41085e+07 4.38487e+07 4.44652e+07 4.35301e+07 4.31486e+07 4.45723e+07 4.43438e+07 4.41087e+07 4.45117e+07 4.40387e+07 4.38344e+07 4.35311e+07
          4.3171e+07 4.37818e+07 4.35056e+07 4.2194e+07 4.16835e+07 4.27276e+07 4.09977e+07 4.13324e+07 4.00724e+07 4.22336e+07 4.17308e+07 4.27781e+07
          4.23268e+07 4.10607e+07 4.06125e+07 4.15182e+07 4.02113e+07 3.93534e+07 3.84589e+07 3.79547e+07 3.75626e+07 3.72162e+07 3.94022e+07 3.84201e+07
          3.79005e+07 3.74899e+07 3.7814e+07 3.73928e+07 3.666e+07 3.69208e+07 3.63815e+07 3.71252e+07 3.68062e+07 3.65555e+07 3.56997e+07 3.53474e+07
          3.49849e+07 3.6054e+07 3.55862e+07 3.52964e+07 3.49578e+07 3.63373e+07 3.66396e+07 3.70034e+07 3.583e+07 3.557e+07 3.60626e+07 3.52644e+07
          3.92856e+07 3.83499e+07 3.81815e+07 3.77156e+07 3.7279e+07 3.96685e+07 3.90026e+07 3.93039e+07 3.87162e+07 3.71624e+07 3.80319e+07 3.76087e+07
          3.68553e+07 3.64277e+07 3.56558e+07 3.52602e+07 3.57032e+07 3.52477e+07 3.67087e+07 3.62263e+07 3.61115e+07 3.56452e+07 3.51963e+07 4.42474e+07
          4.44267e+07 4.43026e+07 4.41571e+07 4.39642e+07 4.31769e+07 4.37093e+07 4.34641e+07 4.31936e+07 4.41082e+07 4.38922e+07 4.43521e+07 4.41123e+07
          4.35986e+07 4.33058e+07 4.29702e+07 4.2821e+07 4.24204e+07 4.1874e+07 4.28758e+07 4.20363e+07 4.16708e+07 4.12717e+07 4.07573e+07 4.05302e+07
          4.24873e+07 4.20647e+07 4.16102e+07 4.25543e+07 4.21011e+07 4.1595e+07 4.11046e+07 4.09809e+07 4.0396e+07 4.43463e+07 4.38442e+07 4.41055e+07
          4.37934e+07 4.34953e+07 4.30547e+07 4.34475e+07 4.307e+07 4.26594e+07 4.43138e+07 4.41265e+07 4.36752e+07 4.4208e+07 4.38841e+07 4.33961e+07
          4.3064e+07 4.345e+07 4.26745e+07 4.26173e+07 4.21594e+07 4.1677e+07 4.07768e+07 4.12136e+07 4.02344e+07 4.22172e+07 4.17732e+07 4.13602e+07
          4.22541e+07 4.18136e+07 4.13671e+07 4.09624e+07 4.05322e+07 3.99588e+07 3.96972e+07 3.91525e+07 3.98692e+07 3.85218e+07 3.70451e+07 3.79157e+07
          3.74912e+07 3.92117e+07 3.85168e+07 3.98494e+07 3.92402e+07 3.78113e+07 3.69137e+07 3.73626e+07 3.65839e+07 3.60062e+07 3.55688e+07 3.51335e+07
          3.64576e+07 3.63359e+07 3.59048e+07 3.54856e+07 3.50651e+07 3.97817e+07 3.85504e+07 3.92819e+07 3.86476e+07 3.774e+07 3.72259e+07 3.6777e+07
          3.7813e+07 3.70038e+07 3.94841e+07 3.87646e+07 3.7295e+07 3.7934e+07 3.73564e+07 3.70899e+07 3.68161e+07 3.6212e+07 3.66135e+07 3.58055e+07
          3.54077e+07 3.49968e+07 3.64661e+07 3.60918e+07 3.57046e+07 3.53293e+07 3.49263e+07 3.52641e+07 3.49172e+07 3.46369e+07 3.42752e+07 3.38867e+07
          3.46185e+07 3.34655e+07 3.29934e+07 3.42813e+07 3.49308e+07 3.45989e+07 3.43114e+07 3.40232e+07 3.38916e+07 3.34379e+07 3.29565e+07 3.25865e+07
          3.22472e+07 3.19432e+07 3.16509e+07 3.1355e+07 3.10373e+07 3.19276e+07 3.12485e+07 3.24981e+07 3.21842e+07 3.20031e+07 3.22463e+07 3.1616e+07
          3.09777e+07 3.16636e+07 3.48884e+07 3.45375e+07 3.42474e+07 3.48363e+07 3.44442e+07 3.40812e+07 3.3734e+07 3.33795e+07 3.29646e+07 3.31544e+07
          3.47665e+07 3.43319e+07 3.38919e+07 3.35081e+07 3.27773e+07 3.33406e+07 3.25324e+07 3.18676e+07 3.12441e+07 3.14359e+07 3.21419e+07 3.23976e+07
          3.18896e+07 3.10779e+07 3.14835e+07 3.11326e+07 3.08629e+07 3.03115e+07 2.9938e+07 3.06857e+07 2.95608e+07 2.91881e+07 2.91146e+07 3.01795e+07
          3.04197e+07 3.015e+07 2.98723e+07 2.95114e+07 2.98347e+07 2.90528e+07 2.94669e+07 2.88458e+07 2.85359e+07 2.87326e+07 2.82167e+07 2.79229e+07
          2.75999e+07 2.76874e+07 2.84736e+07 2.86457e+07 2.81903e+07 2.79277e+07 2.72906e+07 2.77249e+07 2.73363e+07 3.06202e+07 3.02108e+07 3.08715e+07
          2.98327e+07 2.94476e+07 2.90295e+07 3.06031e+07 3.02165e+07 2.9835e+07 3.04664e+07 3.01908e+07 2.9858e+07 2.94375e+07 2.90248e+07 2.86288e+07
          2.83757e+07 2.81772e+07 2.79864e+07 2.77169e+07 2.73211e+07 2.84359e+07 2.86579e+07 2.81847e+07 2.79091e+07 2.76222e+07 2.7246e+07 3.47113e+07
          3.42792e+07 3.38516e+07 3.36428e+07 3.2948e+07 3.33746e+07 3.30744e+07 3.46692e+07 3.42821e+07 3.39338e+07 3.35079e+07 3.32102e+07 3.27109e+07
          3.35959e+07 3.32448e+07 3.29403e+07 3.21156e+07 3.18102e+07 3.25575e+07 3.22036e+07 3.14663e+07 3.10873e+07 3.18277e+07 3.22805e+07 3.18576e+07
          3.1462e+07 3.10672e+07 3.14801e+07 3.11107e+07 3.42595e+07 3.46162e+07 3.39821e+07 3.37287e+07 3.41906e+07 3.39362e+07 3.31336e+07 3.3489e+07
          3.27445e+07 3.45278e+07 3.38024e+07 3.40819e+07 3.43423e+07 3.40494e+07 3.36805e+07 3.29952e+07 3.26223e+07 3.33357e+07 3.22955e+07 3.1859e+07
          3.07652e+07 3.14792e+07 3.11323e+07 3.08514e+07 3.22249e+07 3.18233e+07 3.11138e+07 3.08361e+07 3.14542e+07 3.07197e+07 3.02747e+07 3.04553e+07
          2.99867e+07 2.94291e+07 2.90276e+07 2.93615e+07 2.89798e+07 3.06492e+07 3.01452e+07 2.98543e+07 3.02878e+07 2.96909e+07 2.95779e+07 2.92781e+07
          2.89133e+07 2.87002e+07 2.84236e+07 2.86318e+07 2.82799e+07 2.79619e+07 2.74036e+07 2.85445e+07 2.81336e+07 2.77388e+07 2.72263e+07 2.74639e+07
          3.04134e+07 2.99429e+07 3.002e+07 2.95947e+07 2.92496e+07 2.88718e+07 3.05983e+07 3.04049e+07 3.0047e+07 2.96253e+07 2.92424e+07 2.96619e+07
          2.88485e+07 2.84812e+07 2.80389e+07 2.71564e+07 2.75772e+07 2.71655e+07 2.84481e+07 2.80243e+07 2.75969e+07 2.7161e+07 4.40142e+07 4.36329e+07
          4.40293e+07 4.37873e+07 4.34054e+07 4.30846e+07 4.2682e+07 4.30564e+07 4.38292e+07 4.40154e+07 4.36333e+07 4.38199e+07 4.40044e+07 4.35405e+07
          4.26617e+07 4.32593e+07 4.29636e+07 4.26103e+07 4.22656e+07 4.18156e+07 4.13426e+07 4.08784e+07 4.03533e+07 4.08115e+07 4.22581e+07 4.18046e+07
          4.22265e+07 4.13154e+07 4.02271e+07 4.07624e+07 4.01457e+07 4.38628e+07 4.39495e+07 4.36335e+07 4.33671e+07 4.30856e+07 4.28496e+07 4.25588e+07
          4.2599e+07 4.38147e+07 4.343e+07 4.30768e+07 4.3665e+07 4.27928e+07 4.21564e+07 4.17799e+07 4.12908e+07 4.21909e+07 4.17543e+07 4.07243e+07
          4.00492e+07 4.1297e+07 4.17128e+07 4.12958e+07 4.08078e+07 3.98056e+07 4.02979e+07 3.96674e+07 3.87974e+07 3.79291e+07 3.73153e+07 3.70021e+07
          3.6691e+07 3.7702e+07 3.72653e+07 3.69318e+07 3.9471e+07 3.85265e+07 3.94023e+07 3.79394e+07 3.71702e+07 3.68767e+07 3.7456e+07 3.69259e+07
          3.63417e+07 3.59775e+07 3.65957e+07 3.62358e+07 3.58647e+07 3.56022e+07 3.50884e+07 3.5464e+07 3.47257e+07 3.65365e+07 3.61595e+07 3.57724e+07
          3.53516e+07 3.48754e+07 3.85183e+07 3.9363e+07 3.8697e+07 3.8014e+07 3.74811e+07 3.716e+07 3.68852e+07 3.92499e+07 3.86249e+07 3.93541e+07
          3.78258e+07 3.71448e+07 3.68012e+07 3.7252e+07 3.65116e+07 3.6101e+07 3.57062e+07 3.64945e+07 3.53135e+07 3.49257e+07 3.52505e+07 3.45408e+07
          3.49304e+07 3.60645e+07 3.56278e+07 3.64628e+07 3.60474e+07 3.54827e+07 3.46309e+07 3.48299e+07 3.51153e+07 4.29687e+07 4.29455e+07 4.26617e+07
          4.1954e+07 4.24095e+07 4.23479e+07 4.24287e+07 4.20534e+07 4.1675e+07 4.06387e+07 4.16234e+07 4.21301e+07 4.18315e+07 4.12709e+07 4.16278e+07
          4.12344e+07 4.09197e+07 4.06116e+07 4.08894e+07 3.9933e+07 4.14676e+07 4.10977e+07 4.03825e+07 4.07249e+07 3.89597e+07 3.94416e+07 3.82319e+07
          3.91674e+07 4.04886e+07 4.03338e+07 3.90711e+07 3.89655e+07 3.99543e+07 4.05662e+07 4.00798e+07 3.925e+07 3.76418e+07 3.75284e+07 3.61012e+07
          3.74078e+07 3.89219e+07 3.84053e+07 3.74213e+07 3.78701e+07 3.71102e+07 4.04869e+07 4.01535e+07 3.96081e+07 3.8579e+07 3.76341e+07 3.87125e+07
          3.87084e+07 3.84154e+07 3.71994e+07 3.70869e+07 3.67498e+07 3.78929e+07 3.71141e+07 3.62201e+07 3.62529e+07 3.55078e+07 3.46962e+07 3.85232e+07
          3.77877e+07 3.6836e+07 3.65048e+07 3.72354e+07 3.68156e+07 3.80723e+07 3.77191e+07 3.77182e+07 3.75455e+07 3.72781e+07 3.64828e+07 3.66565e+07
          3.69214e+07 3.57908e+07 3.62142e+07 3.48924e+07 3.46496e+07 3.51023e+07 3.44742e+07 3.46927e+07 3.62477e+07 3.54941e+07 3.56479e+07 3.56275e+07
          3.47888e+07 3.48282e+07 3.42202e+07 3.41212e+07 3.72228e+07 3.68256e+07 3.57306e+07 3.57329e+07 3.46359e+07 3.61807e+07 3.5509e+07 3.49345e+07
          3.45784e+07 3.43672e+07 3.36082e+07 3.35954e+07 3.45952e+07 3.4706e+07 3.46494e+07 3.40948e+07 3.38192e+07 3.3351e+07 3.34369e+07 3.35516e+07
          3.34249e+07 3.25493e+07 3.23926e+07 3.3119e+07 3.27933e+07 3.26022e+07 3.21953e+07 3.1984e+07 3.45429e+07 3.41496e+07 3.37694e+07 3.32275e+07
          3.35223e+07 3.28989e+07 3.32338e+07 3.28257e+07 3.43239e+07 3.44617e+07 3.39754e+07 3.36497e+07 3.34087e+07 3.30733e+07 3.27133e+07 3.253e+07
          3.21482e+07 3.17636e+07 3.2434e+07 3.20579e+07 3.13961e+07 3.07217e+07 3.10432e+07 3.16871e+07 3.23379e+07 3.19718e+07 3.1607e+07 3.13333e+07
          3.09648e+07 3.12787e+07 3.09537e+07 3.41242e+07 3.38654e+07 3.41588e+07 3.3675e+07 3.25502e+07 3.33642e+07 3.28028e+07 3.2477e+07 3.40428e+07
          3.43736e+07 3.38685e+07 3.30249e+07 3.34463e+07 3.24541e+07 3.22318e+07 3.18806e+07 3.1496e+07 3.11265e+07 3.05798e+07 3.08071e+07 3.21543e+07
          3.18129e+07 3.20916e+07 3.17857e+07 3.14169e+07 3.09627e+07 3.04984e+07 3.0608e+07 3.02928e+07 3.05806e+07 3.00293e+07 2.92691e+07 2.97028e+07
          2.88572e+07 3.01097e+07 2.97964e+07 3.03279e+07 2.93138e+07 2.88829e+07 2.94049e+07 2.84267e+07 2.80063e+07 2.75971e+07 2.71972e+07 2.68332e+07
          2.79751e+07 2.83987e+07 2.75906e+07 2.72643e+07 2.72244e+07 2.70054e+07 2.99644e+07 3.02356e+07 2.89842e+07 2.95017e+07 2.90806e+07 2.99775e+07
          2.95113e+07 3.03159e+07 2.87618e+07 2.91097e+07 2.87676e+07 2.82908e+07 2.78995e+07 2.86314e+07 2.78156e+07 2.75345e+07 2.67514e+07 2.74452e+07
          2.70815e+07 2.84821e+07 2.81785e+07 2.81055e+07 2.84355e+07 2.77375e+07 2.73533e+07 2.69537e+07 3.41909e+07 3.34434e+07 3.36932e+07 3.28794e+07
          3.22321e+07 3.39399e+07 3.27854e+07 3.30243e+07 3.26021e+07 3.20621e+07 3.14424e+07 3.19915e+07 3.17829e+07 3.15918e+07 3.10043e+07 3.05929e+07
          3.1864e+07 3.17114e+07 3.1062e+07 3.11046e+07 3.0516e+07 3.00407e+07 3.32075e+07 3.21892e+07 3.19603e+07 3.16687e+07 3.24019e+07 3.18099e+07
          3.15653e+07 3.13245e+07 3.11559e+07 3.09204e+07 3.13218e+07 3.06833e+07 3.0372e+07 2.99347e+07 3.00761e+07 2.96461e+07 3.05853e+07 3.01317e+07
          2.96274e+07 2.90006e+07 2.92461e+07 3.02359e+07 2.94211e+07 2.98519e+07 2.90926e+07 2.87487e+07 2.99029e+07 2.95343e+07 2.92243e+07 2.91008e+07
          2.92279e+07 2.90994e+07 2.87591e+07 2.90246e+07 2.86405e+07 2.76759e+07 2.83974e+07 2.80531e+07 2.72879e+07 2.6894e+07 2.66895e+07 2.63858e+07
          2.83068e+07 2.79101e+07 2.75111e+07 2.72457e+07 2.71132e+07 2.68685e+07 2.62939e+07 2.64797e+07 2.94437e+07 2.96346e+07 2.89691e+07 2.90366e+07
          2.92956e+07 2.87304e+07 2.88639e+07 2.86888e+07 2.81078e+07 2.83555e+07 2.79226e+07 2.89176e+07 2.85482e+07 2.87195e+07 2.82123e+07 2.85039e+07
          2.82279e+07 2.79669e+07 2.786e+07 2.74778e+07 2.76397e+07 2.72781e+07 2.70032e+07 2.6646e+07 2.62747e+07 2.59573e+07 2.74089e+07 2.68741e+07
          2.6421e+07 2.69072e+07 2.60532e+07 2.57853e+07 2.72237e+07 2.68277e+07 2.64132e+07 2.60657e+07 2.55149e+07 2.57658e+07 2.56462e+07 2.69099e+07
          2.6584e+07 2.59119e+07 2.61208e+07 2.58575e+07 2.55498e+07 2.52974e+07 2.50278e+07 2.46996e+07 2.53878e+07 2.50937e+07 2.40588e+07 2.37397e+07
          2.43806e+07 2.36247e+07 2.47676e+07 2.51673e+07 2.4814e+07 2.42347e+07 2.45044e+07 2.39506e+07 2.4188e+07 2.38593e+07 2.69672e+07 2.62635e+07
          2.66864e+07 2.69569e+07 2.64499e+07 2.66812e+07 2.59041e+07 2.55484e+07 2.62678e+07 2.68854e+07 2.65735e+07 2.59226e+07 2.55658e+07 2.51901e+07
          2.4837e+07 2.45079e+07 2.45095e+07 2.4159e+07 2.37998e+07 2.52181e+07 2.48598e+07 2.44988e+07 2.37456e+07 2.41236e+07 2.34793e+07 2.32683e+07
          2.29954e+07 2.33511e+07 2.30247e+07 2.26647e+07 2.26723e+07 2.23402e+07 2.20154e+07 2.23167e+07 2.19926e+07 2.17179e+07 2.30507e+07 2.34899e+07
          2.26541e+07 2.16906e+07 2.22817e+07 2.19454e+07 2.17298e+07 2.14706e+07 2.12079e+07 2.09321e+07 2.1459e+07 2.11932e+07 2.08723e+07 2.06357e+07
          2.03391e+07 2.05299e+07 2.00413e+07 2.14624e+07 2.11987e+07 2.15664e+07 2.08449e+07 2.02991e+07 2.0481e+07 2.00341e+07 2.34175e+07 2.30081e+07
          2.26045e+07 2.22099e+07 2.18361e+07 2.21115e+07 2.17021e+07 2.33554e+07 2.29576e+07 2.29143e+07 2.25365e+07 2.24618e+07 2.19673e+07 2.1257e+07
          2.08821e+07 2.13101e+07 2.09758e+07 2.04989e+07 2.02297e+07 2.00435e+07 2.12167e+07 2.06644e+07 2.1553e+07 2.0339e+07 2.00596e+07 2.67591e+07
          2.64541e+07 2.70826e+07 2.61628e+07 2.58812e+07 2.55746e+07 2.58262e+07 2.60429e+07 2.55966e+07 2.53403e+07 2.69381e+07 2.66221e+07 2.63117e+07
          2.6132e+07 2.64829e+07 2.58752e+07 2.56914e+07 2.54756e+07 2.56543e+07 2.52552e+07 2.48962e+07 2.44888e+07 2.40943e+07 2.37106e+07 2.50265e+07
          2.5198e+07 2.44139e+07 2.47496e+07 2.4041e+07 2.36678e+07 2.36379e+07 2.68358e+07 2.6779e+07 2.63864e+07 2.60128e+07 2.5867e+07 2.54085e+07
          2.56166e+07 2.52397e+07 2.5959e+07 2.67118e+07 2.63052e+07 2.57575e+07 2.55549e+07 2.54362e+07 2.52136e+07 2.5718e+07 2.52839e+07 2.49065e+07
          2.46253e+07 2.43318e+07 2.49249e+07 2.3994e+07 2.39471e+07 2.32493e+07 2.36068e+07 2.45993e+07 2.42767e+07 2.49279e+07 2.45881e+07 2.42193e+07
          2.35868e+07 2.32481e+07 2.39002e+07 2.33158e+07 2.32821e+07 2.28984e+07 2.24757e+07 2.17549e+07 2.32637e+07 2.28944e+07 2.25128e+07 2.20675e+07
          2.21841e+07 2.18858e+07 2.13549e+07 2.09861e+07 2.07025e+07 2.03675e+07 1.97825e+07 2.00628e+07 2.11405e+07 2.15569e+07 2.03248e+07 1.97778e+07
          1.9972e+07 2.28912e+07 2.2523e+07 2.21802e+07 2.18254e+07 2.28937e+07 2.25251e+07 2.21538e+07 2.21653e+07 2.17904e+07 2.14061e+07 2.17754e+07
          2.13959e+07 2.14509e+07 2.10081e+07 2.04979e+07 1.96997e+07 2.00838e+07 1.97349e+07 2.09889e+07 2.0559e+07 2.09997e+07 2.01395e+07 1.97242e+07
          1.97628e+07 1.94644e+07 1.95358e+07 1.91362e+07 1.87803e+07 1.84439e+07 1.84271e+07 1.97679e+07 1.9165e+07 1.95765e+07 1.91631e+07 1.87738e+07
          1.87457e+07 1.83898e+07 1.80754e+07 1.81565e+07 1.78667e+07 1.75938e+07 1.73046e+07 1.812e+07 1.78267e+07 1.75534e+07 1.72712e+07 1.69874e+07
          1.66609e+07 1.63415e+07 1.69666e+07 1.66432e+07 1.6331e+07 1.77917e+07 1.75179e+07 1.72332e+07 1.63073e+07 1.69345e+07 1.66201e+07 1.98437e+07
          1.95624e+07 1.91164e+07 1.80274e+07 1.83387e+07 1.86924e+07 1.79692e+07 1.97505e+07 1.94459e+07 1.90198e+07 1.86052e+07 1.82587e+07 1.78954e+07
          1.81388e+07 1.77491e+07 1.74812e+07 1.72067e+07 1.77193e+07 1.74656e+07 1.71879e+07 1.69089e+07 1.65844e+07 1.62399e+07 1.6883e+07 1.65499e+07
          1.61758e+07 1.76937e+07 1.747e+07 1.77495e+07 1.71988e+07 1.68856e+07 1.65366e+07 1.61441e+07 1.60418e+07 1.57608e+07 1.54598e+07 1.60473e+07
          1.57727e+07 1.51251e+07 1.47419e+07 1.60422e+07 1.54815e+07 1.58041e+07 1.59428e+07 1.55451e+07 1.51084e+07 1.46519e+07 1.43448e+07 1.40001e+07
          1.38687e+07 1.36985e+07 1.34481e+07 1.3231e+07 1.42288e+07 1.41013e+07 1.37138e+07 1.36144e+07 1.33438e+07 1.28254e+07 1.30706e+07 1.56762e+07
          1.5794e+07 1.53434e+07 1.51875e+07 1.44959e+07 1.48202e+07 1.54993e+07 1.57484e+07 1.5248e+07 1.50375e+07 1.45461e+07 1.47078e+07 1.43183e+07
          1.39839e+07 1.36381e+07 1.3447e+07 1.27338e+07 1.32102e+07 1.29147e+07 1.42558e+07 1.39171e+07 1.35451e+07 1.33849e+07 1.26721e+07 1.30911e+07
          1.28414e+07 1.88664e+07 1.95269e+07 1.92164e+07 1.84904e+07 1.79123e+07 1.83957e+07 1.87268e+07 1.80642e+07 1.93204e+07 1.90356e+07 1.95627e+07
          1.88678e+07 1.91362e+07 1.8333e+07 1.86035e+07 1.80808e+07 1.78481e+07 1.82745e+07 1.84878e+07 1.8027e+07 1.77221e+07 1.75276e+07 1.72368e+07
          1.7649e+07 1.73107e+07 1.69067e+07 1.65553e+07 1.61683e+07 1.69541e+07 1.73505e+07 1.69964e+07 1.66096e+07 1.62575e+07 1.94331e+07 1.86915e+07
          1.94142e+07 1.89136e+07 1.86684e+07 1.83067e+07 1.80056e+07 1.76777e+07 1.84753e+07 1.79759e+07 1.90899e+07 1.94256e+07 1.88177e+07 1.91874e+07
          1.93242e+07 1.89518e+07 1.82715e+07 1.84412e+07 1.82059e+07 1.85463e+07 1.79376e+07 1.73469e+07 1.70202e+07 1.66735e+07 1.63521e+07 1.67335e+07
          1.60333e+07 1.76499e+07 1.73334e+07 1.70187e+07 1.76194e+07 1.67684e+07 1.64502e+07 1.61672e+07 1.65411e+07 1.55012e+07 1.5751e+07 1.51882e+07
          1.42959e+07 1.49367e+07 1.59054e+07 1.54047e+07 1.46569e+07 1.42791e+07 1.49145e+07 1.39291e+07 1.36204e+07 1.32266e+07 1.25861e+07 1.33287e+07
          1.29431e+07 1.26304e+07 1.39167e+07 1.36493e+07 1.35597e+07 1.30476e+07 1.34097e+07 1.31577e+07 1.27031e+07 1.55622e+07 1.51028e+07 1.52375e+07
          1.47055e+07 1.4856e+07 1.44812e+07 1.4637e+07 1.43958e+07 1.56953e+07 1.58367e+07 1.5351e+07 1.49394e+07 1.46597e+07 1.50194e+07 1.43704e+07
          1.41811e+07 1.38385e+07 1.41064e+07 1.37645e+07 1.32931e+07 1.28597e+07 1.30349e+07 1.26412e+07 1.33974e+07 1.40681e+07 1.37379e+07 1.34036e+07
          1.31106e+07 1.28865e+07 1.25289e+07 1.30834e+07 1.27815e+07 2.65672e+07 2.62458e+07 2.63388e+07 2.58853e+07 2.53973e+07 2.50791e+07 2.65295e+07
          2.60329e+07 2.5522e+07 2.51781e+07 2.56656e+07 2.49845e+07 2.46446e+07 2.40873e+07 2.47526e+07 2.43074e+07 2.38501e+07 2.35811e+07 2.32598e+07
          2.38896e+07 2.36314e+07 2.33102e+07 2.29068e+07 2.44487e+07 2.40226e+07 2.48452e+07 2.45725e+07 2.43559e+07 2.41584e+07 2.38388e+07 2.37336e+07
          2.34376e+07 2.35674e+07 2.28552e+07 2.31806e+07 2.62102e+07 2.63943e+07 2.58716e+07 2.52663e+07 2.48955e+07 2.52604e+07 2.48689e+07 2.6515e+07
          2.60579e+07 2.6176e+07 2.58157e+07 2.56208e+07 2.55773e+07 2.52294e+07 2.48163e+07 2.46016e+07 2.38524e+07 2.45177e+07 2.41887e+07 2.33728e+07
          2.35783e+07 2.30238e+07 2.32114e+07 2.28339e+07 2.4391e+07 2.37698e+07 2.40652e+07 2.36752e+07 2.34812e+07 2.29693e+07 2.3394e+07 2.3102e+07
          2.28985e+07 2.29e+07 2.25244e+07 2.25176e+07 2.21465e+07 2.17738e+07 2.14054e+07 2.25061e+07 2.21479e+07 2.17776e+07 2.1407e+07 2.06116e+07
          2.10305e+07 2.06795e+07 2.02253e+07 1.95588e+07 1.98387e+07 2.03474e+07 2.10522e+07 2.0739e+07 2.04556e+07 2.00316e+07 1.95347e+07 2.27993e+07
          2.25089e+07 2.21647e+07 2.25573e+07 2.22162e+07 2.1788e+07 2.13874e+07 2.10572e+07 2.10127e+07 2.267e+07 2.18523e+07 2.22736e+07 2.19173e+07
          2.12698e+07 2.15173e+07 2.16242e+07 2.11107e+07 2.07918e+07 2.05588e+07 2.08117e+07 2.06453e+07 2.03466e+07 2.01958e+07 1.97446e+07 1.99295e+07
          1.94866e+07 2.07644e+07 2.05019e+07 2.09181e+07 2.06537e+07 2.0349e+07 2.00996e+07 1.96895e+07 1.92353e+07 1.97906e+07 1.95228e+07 2.65087e+07
          2.59265e+07 2.62191e+07 2.59695e+07 2.57794e+07 2.57347e+07 2.52864e+07 2.46262e+07 2.62681e+07 2.58148e+07 2.59619e+07 2.55982e+07 2.54527e+07
          2.52864e+07 2.45309e+07 2.51262e+07 2.45779e+07 2.40885e+07 2.41497e+07 2.39282e+07 2.38332e+07 2.35942e+07 2.31088e+07 2.33361e+07 2.28862e+07
          2.40386e+07 2.37345e+07 2.3111e+07 2.33333e+07 2.27213e+07 2.60047e+07 2.54721e+07 2.54956e+07 2.49993e+07 2.50347e+07 2.45617e+07 2.40844e+07
          2.55877e+07 2.49769e+07 2.52341e+07 2.48774e+07 2.4466e+07 2.45152e+07 2.40327e+07 2.35791e+07 2.33781e+07 2.3647e+07 2.32659e+07 2.30605e+07
          2.29424e+07 2.26542e+07 2.24237e+07 2.29518e+07 2.31212e+07 2.27741e+07 2.23188e+07 2.24011e+07 2.18415e+07 2.22221e+07 2.26363e+07 2.20703e+07
          2.17073e+07 2.13392e+07 2.14727e+07 2.09083e+07 2.13035e+07 2.11308e+07 2.0992e+07 2.23297e+07 2.20188e+07 2.16546e+07 2.24989e+07 2.13114e+07
          2.09817e+07 2.07895e+07 2.05401e+07 2.06819e+07 2.07949e+07 2.02817e+07 1.97079e+07 1.92561e+07 2.00934e+07 2.05281e+07 2.07322e+07 2.02171e+07
          1.99052e+07 1.95431e+07 1.90608e+07 1.98658e+07 1.94954e+07 2.20484e+07 2.16309e+07 2.19995e+07 2.15717e+07 2.12629e+07 2.09092e+07 2.19039e+07
          2.14858e+07 2.10605e+07 2.11811e+07 2.08186e+07 2.0519e+07 2.07162e+07 2.04802e+07 2.05966e+07 2.03848e+07 2.01572e+07 1.98609e+07 2.02223e+07
          2.03888e+07 1.90811e+07 1.94681e+07 1.9085e+07 2.01725e+07 1.99909e+07 2.03181e+07 1.97404e+07 1.93971e+07 1.9039e+07 1.9105e+07 1.86741e+07
          1.93069e+07 1.82498e+07 1.79382e+07 1.83415e+07 1.88348e+07 1.90388e+07 1.79599e+07 1.85219e+07 1.72974e+07 1.69647e+07 1.75987e+07 1.72605e+07
          1.69183e+07 1.66942e+07 1.63082e+07 1.64671e+07 1.75825e+07 1.71967e+07 1.68604e+07 1.65837e+07 1.6222e+07 1.65717e+07 1.63653e+07 1.92599e+07
          1.87535e+07 1.89916e+07 1.79326e+07 1.8223e+07 1.77638e+07 1.84839e+07 1.87327e+07 1.7975e+07 1.822e+07 1.7629e+07 1.73226e+07 1.70551e+07
          1.67476e+07 1.64543e+07 1.62111e+07 1.62842e+07 1.69029e+07 1.75267e+07 1.71e+07 1.68568e+07 1.66157e+07 1.54442e+07 1.60329e+07 1.47072e+07
          1.43868e+07 1.50864e+07 1.47691e+07 1.58163e+07 1.54809e+07 1.60428e+07 1.5816e+07 1.51208e+07 1.44375e+07 1.48339e+07 1.45829e+07 1.40604e+07
          1.37221e+07 1.33844e+07 1.24403e+07 1.26004e+07 1.2419e+07 1.30507e+07 1.27248e+07 1.40634e+07 1.37066e+07 1.33717e+07 1.3054e+07 1.24538e+07
          1.27526e+07 1.24604e+07 1.54553e+07 1.60028e+07 1.54141e+07 1.50897e+07 1.47986e+07 1.43578e+07 1.50152e+07 1.46575e+07 1.57927e+07 1.60721e+07
          1.56978e+07 1.41974e+07 1.44578e+07 1.53388e+07 1.49103e+07 1.40487e+07 1.4017e+07 1.36675e+07 1.33368e+07 1.39393e+07 1.36248e+07 1.32716e+07
          1.30374e+07 1.27635e+07 1.24616e+07 1.30066e+07 1.27866e+07 1.3949e+07 1.36439e+07 1.33302e+07 1.28827e+07 1.30998e+07 1.24979e+07 1.28605e+07
          1.26358e+07 1.89201e+07 1.85339e+07 1.87292e+07 1.77384e+07 1.7918e+07 1.75448e+07 1.82294e+07 1.85373e+07 1.77316e+07 1.79437e+07 1.72655e+07
          1.68957e+07 1.65621e+07 1.62367e+07 1.65618e+07 1.73242e+07 1.68967e+07 1.62725e+07 1.65438e+07 1.87261e+07 1.82297e+07 1.87627e+07 1.84749e+07