<?xml version="1.0"?>
<VTKFile type="UnstructuredGrid" version="0.1" byte_order="LittleEndian">
  <UnstructuredGrid>
    <Piece NumberOfCells="2351" NumberOfPoints="3116">
      <CellData Scalars="wetting pressure">
        <DataArray type="Float32" Name="wetting pressure" NumberOfComponents="1" format="ascii">
          265456 270486 271894 270807 267733 262857 256135 247307 235826 220587 265459 270496
          271913 270838 267778 262927 256235 247423 235924 220626 265465 270513 271944 270884
          267841 263032 256406 247647 236123 220706 265470 270530 271973 270924 267860 263089
          256564 247943 236424 220832 265473 270540 271993 270962 236774 220984 265473 270541
          271994 270965 236790 220988 265470 270531 271975 270930 267881 256592 247954 236433
          220835 265465 270514 271945 270886 267846 263035 256413 247653 236128 220708 265459
          270497 271914 270839 267780 262928 256237 247426 235926 220627 265456 270486 271894
          270808 267734 262858 256136 247309 235828 220588 261905 264289 264562 262957 259682
          254825 248335 240037 229679 217055 261909 264302 264587 262998 259746 254924 248475
          240197 229812 217107 261915 264323 264627 263064 259845 255092 248742 240533 230108
          217225 261922 264345 264668 263136 241065 230640 217449 261926 264357 264689 263152
          217880 261926 264358 264689 263153 217889 261922 264345 264669 263137 241073 230653
          217453 261915 264324 264628 263065 259843 255084 248740 240536 230112 217227 261909
          264302 264587 262998 259746 254923 248475 240199 229814 217108 261905 264289 264562
          262957 259682 254825 248335 240038 229680 217055 260151 260190 259084 256734 253151
          248328 242201 234667 225667 215334 260157 260208 259120 256795 253249 248483 242415
          234904 225858 215407 260166 260238 259178 256896 253412 248770 242861 235439 226317
          215583 260175 260268 259238 257003 227276 215941 260181 260287 259272 257054 260181
          260287 259272 257054 260175 260269 259238 257003 227277 215944 260166 260238 259178
          256896 253411 248767 242862 235441 226318 215584 260157 260208 259120 256795 253248
          248482 242414 234904 225859 215407 260151 260190 259084 256734 253150 248328 242201
          234667 225667 215334 259034 257217 254815 251685 247761 242981 237262 230528 222795
          214254 259042 257243 254866 251774 247908 243211 237565 230847 223042 214346 259054
          257285 254950 251926 248173 243676 238236 231587 223637 214567 259067 257328 255038
          252091 224877 215007 259075 257355 255093 252195 259075 257355 255093 252195 259067
          257328 255038 252091 224870 215004 259054 257285 254950 251926 248173 243674 238236
          231587 223636 214566 259042 257243 254865 251773 247907 243209 237564 230846 223041
          214346 259034 257217 254815 251685 247760 242980 237261 230527 222794 214254 258170
          254805 251225 247342 243080 238346 233034 227071 220483 213428 258181 254839 251293
          247463 243281 238653 233419 227456 220769 213532 258198 254896 251408 247674 243656
          239294 234277 228340 221436 213771 258215 254954 251529 247903 222750 214214 258226
          254991 251607 248056 214934 258226 254991 251607 248056 214931 258215 254954 251529
          247903 222740 214211 258198 254896 251408 247674 243656 239294 234274 228337 221432
          213769 258181 254839 251292 247462 243280 238651 233416 227453 220767 213531 258170
          254804 251224 247341 243078 238344 233032 227069 220482 213427 257381 252572 247869
          243258 238669 233985 229073 223855 218355 212676 257395 252616 247958 243415 238926
          234365 229531 224292 218664 212786 257417 252690 248107 243687 239406 235157 230531
          225263 219351 213025 257439 252766 248263 243979 220575 213414 257454 252814 248364
          244176 213878 257454 252814 248364 244176 213875 257439 252766 248263 243979 220564
          213411 257417 252690 248107 243687 239405 235155 230520 225257 219346 213023 257394
          252616 247957 243414 238924 234362 229525 224287 218661 212785 257381 252572 247868
          243257 238667 233982 229068 223851 218352 212675 256527 250189 244332 238997 234096
          229472 224960 220485 216094 211867 256544 250246 244446 239197 234421 229941 225504
          220982 216434 211985 256572 250340 244636 239543 235018 230890 226652 222039 217146
          212227 256601 250436 244834 239906 218294 212586 256619 250497 244961 240150 212950
          256619 250497 244961 240150 212948 256601 250436 244834 239906 218284 212583 256572
          250339 244636 239542 235017 230884 226630 222028 217139 212225 256544 250245 244445
          239196 234419 229936 225495 220975 216429 211984 256527 250189 244331 238995 234093
          229467 224954 220479 216091 211865 255426 247268 240160 234102 228920 224379 220265
          216533 213332 210822 255447 247340 240306 234363 229350 224996 220961 217140 213732
          210959 255482 247457 240549 234812 230124 226179 222341 218360 214530 211228 255518
          247578 240801 235281 215684 211594 255540 247655 240963 235591 211915 255540 247655
          240963 235591 211913 255518 247578 240801 235281 215678 211592 255482 247457 240549
          234811 230121 226171 222326 218350 214524 211226 255447 247339 240305 234361 229347
          224990 220953 217133 213727 210957 255426 247268 240159 234100 228916 224374 220259
          216527 213328 210821 253690 243227 234795 228068 222673 218245 214496 211442 209481
          209153 253716 243314 234977 228413 223276 219164 215522 212272 209998 209325 253757
          243456 235283 229012 224376 220790 217388 213935 211029 209665 253799 243602 235601
          229676 212440 210123 253826 243695 235806 230092 210568 253826 243696 235806 230092
          210567 253800 243603 235602 229675 212445 210120 253757 243456 235283 229012 224374
          220785 217382 213931 211022 209661 253716 243313 234976 228412 223273 219159 215518
          212266 209992 209323 253690 243227 234794 228066 222669 218239 214490 211436 209476
          209151 250151 237070 227542 220360 214855 210513 207005 204429 203480 205665 250179
          237166 227752 220783 215682 205598 204151 205880 250224 237324 228101 221515 205609
          206324 250270 237483 228438 206975 250300 237587 228679 250300 237588 228681 250271
          237485 228444 206956 250224 237325 228102 221516 205582 206315 250179 237166 227752
          220782 215679 205585 204140 205876 250151 237069 227541 220358 214850 210503 206999
          204421 203473 205663 270962 269042 269024 270974 266577 264586 264540 266559 266632
          263835 263784 266594 262178 259409 259336 262112 270976 269026 269047 270969 266561
          264542 264589 266581 266599 263784 263826 266626 262116 259340 259403 262177 262623
          260589 260512 262592 259073 257011 256970 259056 258194 255492 255451 258121 254676
          252113 252228 254720 262593 260511 260585 262624 259057 256969 257008 259070 258121
          255451 255474 258181 254718 252225 252098 254667 255949 253879 253916 255959 253173
          251154 251254 253214 251686 249315 249552 251852 249127 246932 247210 249349 255960
          253917 253880 255948 253215 251257 251159 253174 251852 249552 249313 251686 249355
          247216 246942 249135 250699 248740 248874 250761 248423 246523 246676 248501 246843
          244784 245064 247082 244719 242761 243035 244960 250762 248876 248744 250700 248502
          246675 246526 248424 247087 245071 244796 246852 244962 243039 242771 244726 246300
          244428 244588 246388 244244 242396 242564 244341 242686 240807 241076 242925 240699
          238890 239157 240943 246388 244590 244429 246299 244342 242566 242395 244243 242926
          241078 240812 242688 240941 239157 238890 240696 242234 240386 240566 242339 240192
          238350 238545 240307 238719 236971 237243 238973 236710 235018 235297 236976 242340
          240564 240382 242230 240308 238540 238347 240190 238968 237240 236971 238715 236970
          235295 235022 236710 238108 236258 236464 238232 235911 234072 234287 236046 234643
          233008 233291 234916 232493 230924 231207 232770 238232 236461 236258 238106 236047
          234286 234074 235912 234911 233290 233017 234647 232768 231208 230931 232499 233593
          231772 231999 233738 231097 229330 229576 231262 230242 228743 229033 230527 227872
          226452 226755 228173 233738 231997 231772 233591 231260 229571 229329 231099 230527
          229034 228747 230245 228172 226755 226449 227872 228402 226736 227013 228588 225483
          223999 224320 225701 225386 224055 224383 225715 222808 221580 221945 223176 228586
          227009 226736 228401 225699 224322 224002 225488 225714 224382 224050 225386 223179
          221946 221578 222810 222261 221137 221516 222487 218858 218162 218549 219171 220177
          219066 219482 220592 217425 216427 216864 217843 222487 221520 221139 222260 219168
          218548 218158 218853 220596 219483 219068 220180 217844 216866 216432 217427 217751
          216276 216648 218148 215156 213681 214091 215583 260587 256934 256887 260610 256200
          252606 252646 256260 266615 263803 263756 266575 262222 259433 259427 262226 237965
          236068 236528 238339 235912 234089 234565 236314 235012 232809 233054 235276 233146
          231062 231309 233414 218529 217352 218301 219429 215471 214414 215570 216584 221810
          220490 219716 221183 218299 217393 216372 217417 235276 233055 232812 235014 233415
          231312 231069 233153 237645 235672 235980 237912 235404 233443 233775 235697 252428
          248964 248950 252424 249367 246073 245929 249212 246624 243540 243765 246873 244408
          241502 241761 244692 246872 243763 243540 246621 244697 241766 241517 244419 242402
          239658 239917 242685 240503 237906 238159 240776 238660 236202 236449 238926 236841
          234513 234757 237103 227417 225657 225405 227143 225222 223565 223297 224931 218148
          216648 216277 217752 215586 214094 213687 215163 219428 218301 217351 218527 216584
          215575 214419 215471 252436 248957 248966 252429 249228 245945 246080 249372 242692
          239924 239676 242416 240781 238165 237921 240514 238929 236453 236210 238666 237104
          234759 234516 236843 231225 229257 229506 231495 229231 227379 227629 229501 221184
          219719 220491 221811 217419 216379 217399 218302 260594 256877 256938 260584 256258
          252643 252603 256196 246420 244117 244410 246580 244182 242005 242361 244414 238340
          236531 236075 237978 236319 234574 234099 235924 233795 232044 232544 234229 231608
          229938 230450 232063 231497 229510 229267 231235 229503 227631 227387 229239 227142
          225407 225657 227416 224938 223307 223568 225224 222621 221081 221360 222931 220216
          218735 219046 220561 222928 221355 221067 222612 220559 219042 218725 220210 251641
          249079 249152 251646 248885 246457 246626 248951 251642 249147 249076 251634 248955
          246633 246459 248882 250537 248560 248638 250627 248194 246244 246368 248320 246587
          244422 244122 246421 244421 242375 241995 244178 242060 239968 240381 242357 240025
          238030 238458 240346 242360 240388 239977 242063 240340 238459 238034 240019 234241
          232559 232061 233818 232074 230461 229939 231616 233027 231072 231448 233356 230459
          228552 228971 230832 229285 227691 228249 229786 226824 225313 225923 227381 229792
          228252 227686 229289 227381 225916 225294 226813 227659 225826 226325 228095 224604
          222923 223506 225119 224187 222761 223471 224837 221437 220123 220923 222178 228092
          226325 225829 227656 225117 223507 222919 224604 224835 223463 222751 224183 222176
          220917 220115 221425 258349 255609 255604 258319 254781 252118 252130 254759 258278
          255554 255550 258296 254742 252109 252098 254762 255920 253929 253928 255945 253082
          251102 251129 253135 255945 253926 253925 255914 253135 251131 251100 253075 250627
          248642 248562 250531 248321 246371 246242 248188 246173 244241 244065 246007 244098
          242180 241968 243902 241853 239898 240148 242071 239771 237817 238093 240012 237912
          235985 235681 237640 235699 233781 233444 235400 233356 231452 231076 233022 230832
          228973 228548 230455 262681 260715 260686 262670 259085 257114 257099 259091 262674
          260675 260700 262683 259090 257092 257105 259078 246013 244062 244238 246174 243909
          241972 242181 244098 242069 240147 239903 241847 240013 238094 237818 239766 226091
          223842 224011 226210 222005 219882 220078 222138 226210 224013 223836 226088 222138
          220077 219880 222005 216039 214575 215564 217009 213156 211700 212867 214317 217009
          215568 214576 216044 214324 212873 211700 213162 214693 213068 213476 215064 212075
          210388 210791 212473 215065 213482 213102 214699 212476 210795 210394 212082 245008
          240484 240553 245019 242197 238066 238124 242335 245014 240542 240492 244998 242326
          238116 238049 242176 240046 236076 236252 240229 238209 234490 234687 238426 240227
          236252 236085 240049 238432 234694 234510 238228 236557 233054 233257 236774 234981
          231680 231889 235196 236783 233266 233075 236580 235204 231897 231696 235000 233446
          230343 230556 233659 231918 229017 229230 232134 233664 230561 230352 233456 232136
          229233 229022 231922 233914 231500 232356 234568 232072 229741 230604 232693 230374
          227704 227890 230592 228778 226304 226466 228996 230594 227894 227725 230380 229001
          226469 226303 228786 246189 242933 243317 246393 243721 240652 241129 244046 241521
          238615 239242 241985 239527 236765 237475 240071 242001 239264 238630 241527 240083
          237491 236771 239522 230152 227918 228800 230764 228124 226003 226923 228770 227118
          224784 224976 227338 225382 223209 223426 225607 227343 224981 224796 227133 225610
          223429 223216 225392 216338 214831 216146 217479 212998 211713 213051 214212 217488
          216145 214821 216338 214215 213055 211715 213002 246389 243325 242943 246188 244056
          241149 240663 243722 237618 234978 235762 238223 235769 233244 234069 236403 238230
          235771 234983 237618 236404 234071 233242 235763 234572 232360 231497 233906 232706
          230614 229726 232016 230784 228815 227893 230074 228782 226937 225978 228050 225986
          223971 224974 226670 223740 221818 222838 224429 223547 221546 221834 223787 221571
          219745 220017 221824 223786 221834 221541 223543 221820 220011 219724 221557 226668
          224963 223946 225934 224412 222822 221807 223707 221295 219518 220569 222053 218752
          217108 218165 219580 219465 217759 218033 219718 217188 215503 215858 217463 219712
          218030 217763 219438 217460 215860 215554 217170 222038 220553 219509 221278 219571
          218157 217109 218741 252445 248853 248968 252496 249077 245601 245843 249190 252481
          248967 248859 252428 249177 245841 245614 249066 219729 217948 218876 220493 215763
          214377 215318 216570 220490 218878 217944 219726 216568 215315 214369 215759 252561
          247499 247620 252670 248436 243568 243695 248451 252680 247628 247511 252572 248459
          243692 243590 248441 213276 211702 213112 214676 210377 208947 210349 211759 212772
          211032 212150 213961 210150 208679 209616 211270 213966 212157 211024 212767 211272
          209612 208664 210145 214681 213103 211685 213277 211761 210346 208938 210381 211171
          209644 209962 211615 208748 207412 207759 209103 211620 209963 209645 211184 209105
          207758 207404 208746 231668 226319 226955 231825 230422 225396 226024 230558 231830
          226961 226338 231703 230566 226030 225406 230444 229230 224464 225114 229382 228077
          223521 224216 228246 229391 225120 224449 229254 228255 224223 223513 228095 235244
          229188 229668 235560 233190 227329 227989 233358 235531 229723 229211 235252 233362
          228000 227385 233256 235315 231474 232486 236224 233628 229952 231057 234628 226960
          222533 223340 227144 225844 221446 222364 226044 227149 223339 222526 226974 226044
          222354 221449 225842 239227 235049 235648 239783 237153 233097 233943 237887 239797
          235650 235056 239230 237912 233954 233126 237162 236250 232486 231503 235327 234648
          231059 229974 233634 232008 228539 229697 233083 230418 227112 228292 231539 233089
          229687 228556 232012 231539 228290 227126 230418 228828 225722 226910 229981 227201
          224257 225439 228369 224637 220352 221132 224996 223129 219179 219920 223702 224992
          221120 220347 224615 223702 219909 219195 223143 229986 226905 225734 228829 228384
          225429 224267 227198 209992 208398 209855 211458 207100 205184 207435 208949 211451
          209834 208380 209979 208939 207379 205142 207084 225524 222784 223938 226722 223734
          221166 222303 224978 221796 218181 218849 222408 220366 217046 217630 221030 222410
          218839 218202 221797 221031 217618 217071 220368 226749 223926 222792 225517 224979
          222276 221172 223718 225522 223055 223521 225877 221419 219020 219520 221768 209371
          208195 209092 210412 206919 205168 206406 208124 225875 223522 223055 225523 221769
          219519 219020 221421 210411 209088 208178 209348 208109 206384 205129 206836 221797
          219477 220553 222953 219746 217601 218675 220894 218839 215923 216360 219415 217149
          214596 214967 217634 219406 216349 215949 218837 217633 214961 214632 217163 222934
          220538 219486 221782 220879 218661 217616 219739 214336 212543 213616 215278 210310
          208558 209997 211564 215277 213608 212534 214330 211564 209994 208551 210304 217563
          215608 216688 218735 215237 213405 214484 216427 218726 216699 215628 217556 216426
          214498 213411 215235 210810 209202 210343 211955 206886 205310 206859 208444 211956
          210325 209193 210803 208436 206844 205300 206878 215828 213599 213285 215393 213831
          211890 211580 213389 219999 213309 213479 220715 219358 212990 213194 220117 220729
          213481 213310 219985 220121 213195 212991 219364 218754 212742 212954 219488 218149
          212506 212681 218849 219482 212953 212740 218740 218841 212680 212505 218146 215366
          213247 213604 215824 213354 211561 211892 213823 208659 209011 209232 208917 206220
          207420 207579 206523 208919 209232 209007 208643 206519 207577 207415 206208
        </DataArray>
        <DataArray type="Float32" Name="nonwetting pressure" NumberOfComponents="1" format="ascii">
          265456 270486 271894 270807 267733 262857 256135 247307 235826 220587 265459 270496
          271913 270838 267778 262927 256235 247423 235924 220626 265465 270513 271944 270884
          267841 263032 256406 247647 236123 220706 265470 270530 271973 270924 267860 263089
          256564 247943 236424 220832 265473 270540 271993 270962 236774 220984 265473 270541
          271994 270965 236790 220988 265470 270531 271975 270930 267881 256592 247954 236433
          220835 265465 270514 271945 270886 267846 263035 256413 247653 236128 220708 265459
          270497 271914 270839 267780 262928 256237 247426 235926 220627 265456 270486 271894
          270808 267734 262858 256136 247309 235828 220588 261905 264289 264562 262957 259682
          254825 248335 240037 229679 217055 261909 264302 264587 262998 259746 254924 248475
          240197 229812 217107 261915 264323 264627 263064 259845 255092 248742 240533 230108
          217225 261922 264345 264668 263136 241065 230640 217449 261926 264357 264689 263152
          217880 261926 264358 264689 263153 217889 261922 264345 264669 263137 241073 230653
          217453 261915 264324 264628 263065 259843 255084 248740 240536 230112 217227 261909
          264302 264587 262998 259746 254923 248475 240199 229814 217108 261905 264289 264562
          262957 259682 254825 248335 240038 229680 217055 260151 260190 259084 256734 253151
          248328 242201 234667 225667 215334 260157 260208 259120 256795 253249 248483 242415
          234904 225858 215407 260166 260238 259178 256896 253412 248770 242861 235439 226317
          215583 260175 260268 259238 257003 227276 215941 260181 260287 259272 257054 260181
          260287 259272 257054 260175 260269 259238 257003 227277 215944 260166 260238 259178
          256896 253411 248767 242862 235441 226318 215584 260157 260208 259120 256795 253248
          248482 242414 234904 225859 215407 260151 260190 259084 256734 253150 248328 242201
          234667 225667 215334 259034 257217 254815 251685 247761 242981 237262 230528 222795
          214254 259042 257243 254866 251774 247908 243211 237565 230847 223042 214346 259054
          257285 254950 251926 248173 243676 238236 231587 223637 214567 259067 257328 255038
          252091 224877 215007 259075 257355 255093 252195 259075 257355 255093 252195 259067
          257328 255038 252091 224870 215004 259054 257285 254950 251926 248173 243674 238236
          231587 223636 214566 259042 257243 254865 251773 247907 243209 237564 230846 223041
          214346 259034 257217 254815 251685 247760 242980 237261 230527 222794 214254 258170
          254805 251225 247342 243080 238346 233034 227071 220483 213428 258181 254839 251293
          247463 243281 238653 233419 227456 220769 213532 258198 254896 251408 247674 243656
          239294 234277 228340 221436 213771 258215 254954 251529 247903 222750 214214 258226
          254991 251607 248056 214934 258226 254991 251607 248056 214931 258215 254954 251529
          247903 222740 214211 258198 254896 251408 247674 243656 239294 234274 228337 221432
          213769 258181 254839 251292 247462 243280 238651 233416 227453 220767 213531 258170
          254804 251224 247341 243078 238344 233032 227069 220482 213427 257381 252572 247869
          243258 238669 233985 229073 223855 218355 212676 257395 252616 247958 243415 238926
          234365 229531 224292 218664 212786 257417 252690 248107 243687 239406 235157 230531
          225263 219351 213025 257439 252766 248263 243979 220575 213414 257454 252814 248364
          244176 213878 257454 252814 248364 244176 213875 257439 252766 248263 243979 220564
          213411 257417 252690 248107 243687 239405 235155 230520 225257 219346 213023 257394
          252616 247957 243414 238924 234362 229525 224287 218661 212785 257381 252572 247868
          243257 238667 233982 229068 223851 218352 212675 256527 250189 244332 238997 234096
          229472 224960 220485 216094 211867 256544 250246 244446 239197 234421 229941 225504
          220982 216434 211985 256572 250340 244636 239543 235018 230890 226652 222039 217146
          212227 256601 250436 244834 239906 218294 212586 256619 250497 244961 240150 212950
          256619 250497 244961 240150 212948 256601 250436 244834 239906 218284 212583 256572
          250339 244636 239542 235017 230884 226630 222028 217139 212225 256544 250245 244445
          239196 234419 229936 225495 220975 216429 211984 256527 250189 244331 238995 234093
          229467 224954 220479 216091 211865 255426 247268 240160 234102 228920 224379 220265
          216533 213332 210822 255447 247340 240306 234363 229350 224996 220961 217140 213732
          210959 255482 247457 240549 234812 230124 226179 222341 218360 214530 211228 255518
          247578 240801 235281 215684 211594 255540 247655 240963 235591 211915 255540 247655
          240963 235591 211913 255518 247578 240801 235281 215678 211592 255482 247457 240549
          234811 230121 226171 222326 218350 214524 211226 255447 247339 240305 234361 229347
          224990 220953 217133 213727 210957 255426 247268 240159 234100 228916 224374 220259
          216527 213328 210821 253690 243227 234795 228068 222673 218245 214496 211442 209481
          209153 253716 243314 234977 228413 223276 219164 215522 212272 209998 209325 253757
          243456 235283 229012 224376 220790 217388 213935 211029 209665 253799 243602 235601
          229676 212440 210123 253826 243695 235806 230092 210568 253826 243696 235806 230092
          210567 253800 243603 235602 229675 212445 210120 253757 243456 235283 229012 224374
          220785 217382 213931 211022 209661 253716 243313 234976 228412 223273 219159 215518
          212266 209992 209323 253690 243227 234794 228066 222669 218239 214490 211436 209476
          209151 250151 237070 227542 220360 214855 210513 207005 204429 203480 205665 250179
          237166 227752 220783 215682 205598 204151 205880 250224 237324 228101 221515 205609
          206324 250270 237483 228438 206975 250300 237587 228679 250300 237588 228681 250271
          237485 228444 206956 250224 237325 228102 221516 205582 206315 250179 237166 227752
          220782 215679 205585 204140 205876 250151 237069 227541 220358 214850 210503 206999
          204421 203473 205663 270962 269042 269219 270974 266577 264600 264882 266559 266639
          263835 263881 266840 262213 259430 259589 262567 270976 269221 269047 270969 266561
          264883 264604 266581 266844 263881 263830 266633 262569 259591 259426 262212 262623
          260626 260971 262592 259073 257086 257525 259056 258283 255568 255879 258755 254857
          252293 252784 255483 262593 260970 260623 262624 259057 257525 257083 259070 258754
          255876 255553 258271 255480 252780 252281 254849 255949 254005 254541 255959 253173
          251330 251923 253214 251964 249594 250167 252683 249471 247268 247845 250214 255960
          254542 254006 255948 253215 251925 251334 253174 252683 250166 249594 251964 250217
          247849 247276 249477 250699 248949 249567 250761 248423 246752 247382 248501 247221
          245144 245705 247962 245114 243132 243677 245848 250762 249569 248953 250700 248502
          247382 246754 248424 247965 245709 245153 247228 245849 243679 243139 245118 246300
          244666 245303 246388 244244 242639 243283 244341 243089 241182 241719 243820 241105
          239265 239798 241840 246388 245304 244667 246299 244342 243284 242638 244243 243820
          241720 241185 243090 241839 239798 239265 241103 242234 240630 241284 242339 240192
          238594 239261 240307 239127 237345 237879 239870 237119 235391 235928 237871 242340
          241282 240627 242230 240308 239258 238593 240190 239867 237878 237346 239125 237869
          235929 235396 237121 238108 236502 237179 238232 235911 234318 235005 236046 235054
          233382 233921 235813 232909 231298 231837 233674 238232 237178 236503 238106 236047
          235005 234321 235912 235813 233923 233390 235059 233675 231840 231305 232914 233593
          232022 232724 233738 231097 229589 230314 231262 230663 229119 229664 231439 228303
          226831 227388 229096 233738 232723 232023 233591 231260 230313 229589 231099 231440
          229666 229122 230666 229096 227388 226828 228303 228402 227014 227776 228588 225483
          224313 225131 225701 225833 224440 225019 226653 223283 221981 222594 224143 228586
          227775 227015 228401 225699 225133 224316 225488 226653 225018 224436 225832 224145
          222593 221978 223284 222261 221574 222484 222489 219342 219421 220354 219966 220764
          219552 220225 221684 218832 217688 218421 219775 222489 222486 221574 222260 219966
          220353 219420 219341 221685 220226 219552 220765 219775 218422 217689 218832 218119
          216540 217011 218665 216234 214575 215133 216857 260627 256952 256887 260610 256338
          252683 252648 256272 266615 263803 263756 266575 262222 259433 259427 262226 237978
          236094 236704 238485 235931 234122 234744 236463 235319 233051 233400 235739 233451
          231300 231648 233871 218632 217472 218583 219718 216162 215117 216545 217602 221810
          220646 219745 221183 218507 218234 216877 217417 235740 233402 233055 235321 233873
          231652 231307 233457 237645 235672 236036 237912 235404 233443 233832 235697 252708
          249150 248987 252481 249767 246368 246048 249365 246861 243732 244115 247331 244695
          241736 242129 245169 247331 244115 243736 246862 245173 242134 241751 244705 242707
          239908 240287 243164 240814 238160 238526 241253 238972 236454 236810 239400 237151
          234761 235112 237573 227861 225976 225629 227439 225663 223877 223517 225226 218666
          217011 216542 218119 216858 215134 214578 216236 219716 218582 217471 218630 217602
          216547 215120 216164 252492 248993 249154 252711 249377 246059 246375 249773 243168
          240293 239924 242719 241257 238530 238172 240822 239402 236813 236460 238976 237573
          235113 234763 237152 231527 229492 229838 231946 229531 227609 227954 229949 221184
          219747 220647 221811 217419 216879 218236 218508 260594 256877 256956 260624 256269
          252643 252680 256335 246420 244117 244540 246673 244182 242010 242514 244532 238487
          236707 236101 237991 236469 234753 234129 235942 233818 232083 232727 234382 231634
          229979 230635 232221 231950 229842 229501 231537 229952 227957 227615 229537 227440
          225632 225976 227860 225234 223527 223880 225664 222918 221299 221667 223369 220520
          218954 219354 221005 223366 221663 221286 222910 221003 219352 218947 220515 251641
          249079 249195 251670 248885 246457 246718 249010 251666 249191 249076 251634 249014
          246725 246459 248882 250537 248560 248662 250627 248194 246244 246404 248320 246680
          244551 244122 246421 244538 242526 241995 244178 242060 239983 240548 242489 240031
          238050 238631 240487 242491 240553 239990 242063 240481 238631 238053 240027 234394