<?xml version="1.0"?>
<VTKFile type="UnstructuredGrid" version="0.1" byte_order="LittleEndian">
  <UnstructuredGrid>
    <Piece NumberOfCells="10" NumberOfPoints="18">
      <PointData Scalars="S_liq" Vectors="velocity_liq (m/s)">
        <DataArray type="Float32" Name="S_liq" NumberOfComponents="1" format="ascii">
          0.371984 0.371984 0.354843 0.354843 0.371984 0.354843 0.328174 0.328174 0.328174 0.315211 0.315211 0.315211
          0.300497 0.300497 0.300497 0.283998 0.283998 0.283998
        </DataArray>
        <DataArray type="Float32" Name="p_liq" NumberOfComponents="1" format="ascii">
          92441.6 92441.6 92339 92339 92441.6 92339 92142.7 92142.7 92142.7 92022.3 92022.3 92022.3
          91852.6 91852.6 91852.6 91588 91588 91588
        </DataArray>
        <DataArray type="Float32" Name="rho_liq" NumberOfComponents="1" format="ascii">
          1012.93 1012.93 1012.93 1012.93 1012.93 1012.93 1012.94 1012.94 1012.94 1013.27 1013.27 1013.27
          1021.12 1021.12 1021.12 1201.64 1201.64 1201.64
        </DataArray>
        <DataArray type="Float32" Name="mob_liq" NumberOfComponents="1" format="ascii">
          6.36632 6.36632 4.25221 4.25221 6.36632 4.25221 1.94624 1.94624 1.94624 1.20048 1.20048 1.20048
          0.597725 0.597725 0.597725 0.11228 0.11228 0.11228
        </DataArray>
        <DataArray type="Float32" Name="S_gas" NumberOfComponents="1" format="ascii">
          0.628016 0.628016 0.645157 0.645157 0.628016 0.645157 0.671826 0.671826 0.671826 0.684789 0.684789 0.684789
          0.699503 0.699503 0.699503 0.716002 0.716002 0.716002
        </DataArray>
        <DataArray type="Float32" Name="p_gas" NumberOfComponents="1" format="ascii">
          100002 100002 100002 100002 100002 100002 100002 100002 100002 100002 100002 100002
          100002 100002 100002 100001 100001 100001
        </DataArray>
        <DataArray type="Float32" Name="rho_gas" NumberOfComponents="1" format="ascii">
          1.21011 1.21011 1.2101 1.2101 1.21011 1.2101 1.21009 1.21009 1.21009 1.21009 1.21009 1.21009
          1.21011 1.21011 1.21011 1.21071 1.21071 1.21071
        </DataArray>
        <DataArray type="Float32" Name="mob_gas" NumberOfComponents="1" format="ascii">
          39279.5 39279.5 41574 41574 39279.5 41574 45232.2 45232.2 45232.2 47142.3 47142.3 47142.3
          49750.6 49750.6 49750.6 52716.7 52716.7 52716.7
        </DataArray>
        <DataArray type="Float32" Name="pc" NumberOfComponents="1" format="ascii">
          7560.12 7560.12 7662.66 7662.66 7560.12 7662.66 7858.87 7858.87 7858.87 7979.25 7979.25 7979.25
          8148.96 8148.96 8148.96 8413.16 8413.16 8413.16
        </DataArray>
        <DataArray type="Float32" Name="porosity" NumberOfComponents="1" format="ascii">
          0.4 0.4 0.4 0.4 0.4 0.4 0.4 0.4 0.4 0.4 0.4 0.4
          0.4 0.4 0.4 0.399882 0.399882 0.399882
        </DataArray>
        <DataArray type="Float32" Name="x^H2O_liq" NumberOfComponents="1" format="ascii">
          0.993731 0.993731 0.993731 0.993731 0.993731 0.993731 0.993726 0.993726 0.993726 0.993572 0.993572 0.993572
          0.989937 0.989937 0.989937 0.901552 0.901552 0.901552
        </DataArray>
        <DataArray type="Float32" Name="x^Air_liq" NumberOfComponents="1" format="ascii">
          1.69646e-05 1.69646e-05 1.69643e-05 1.69643e-05 1.69646e-05 1.69643e-05 1.69634e-05 1.69634e-05 1.69634e-05 1.69631e-05 1.69631e-05 1.69631e-05
          1.69638e-05 1.69638e-05 1.69638e-05 1.69863e-05 1.69863e-05 1.69863e-05
        </DataArray>
        <DataArray type="Float32" Name="x^NaCl_liq" NumberOfComponents="1" format="ascii">
          0.00625221 0.00625221 0.00625235 0.00625235 0.00625221 0.00625235 0.00625695 0.00625695 0.00625695 0.00641112 0.00641112 0.00641112
          0.0100457 0.0100457 0.0100457 0.0984311 0.0984311 0.0984311
        </DataArray>
        <DataArray type="Float32" Name="rhoMolar_liq" NumberOfComponents="1" format="ascii">
          55447.8 55447.8 55447.8 55447.8 55447.8 55447.8 55447.8 55447.8 55447.8 55447.1 55447.1 55447.1
          55430.8 55430.8 55430.8 54633 54633 54633
        </DataArray>
        <DataArray type="Float32" Name="x^H2O_gas" NumberOfComponents="1" format="ascii">
          0.0149489 0.0149489 0.0149496 0.0149496 0.0149489 0.0149496 0.0149519 0.0149519 0.0149519 0.0149504 0.0149504 0.0149504
          0.0148965 0.0148965 0.0148965 0.0135672 0.0135672 0.0135672
        </DataArray>
        <DataArray type="Float32" Name="x^Air_gas" NumberOfComponents="1" format="ascii">
          0.985051 0.985051 0.98505 0.98505 0.985051 0.98505 0.985048 0.985048 0.985048 0.98505 0.98505 0.98505
          0.985103 0.985103 0.985103 0.986433 0.986433 0.986433
        </DataArray>
        <DataArray type="Float32" Name="x^NaCl_gas" NumberOfComponents="1" format="ascii">
          -0 -0 -0 -0 -0 -0 -0 -0 -0 -0 -0 -0
          -0 -0 -0 -0 -0 -0
        </DataArray>
        <DataArray type="Float32" Name="rhoMolar_gas" NumberOfComponents="1" format="ascii">
          42.0231 42.0231 42.023 42.023 42.0231 42.023 42.0226 42.0226 42.0226 42.0225 42.0225 42.0225
          42.0223 42.0223 42.0223 42.022 42.022 42.022
        </DataArray>
        <DataArray type="Float32" Name="phase presence" NumberOfComponents="1" format="ascii">
          3 3 3 3 3 3 3 3 3 3 3 3
          3 3 3 3 3 3
        </DataArray>
        <DataArray type="Float32" Name="precipitateVolumeFraction^NaCl" NumberOfComponents="1" format="ascii">
          0 0 0 0 0 0 0 0 0 0 0 0
          0 0 0 0.000118297 0.000118297 0.000118297
        </DataArray>
        <DataArray type="Float32" Name="T" NumberOfComponents="1" format="ascii">
          286.214 286.214 286.215 286.215 286.214 286.215 286.217 286.217 286.217 286.218 286.218 286.218
          286.219 286.219 286.219 286.22 286.22 286.22
        </DataArray>
        <DataArray type="Float32" Name="velocity_liq (m/s)" NumberOfComponents="3" format="ascii">
          -1.38963e-22 2.3853e-09 0 1.57492e-22 2.3853e-09 0 -8.97228e-23 4.64412e-09 0 -8.97228e-23 4.64412e-09 0
          4.53946e-22 2.3853e-09 0 -8.97228e-23 4.64412e-09 0 -5.3811e-23 8.40782e-09 0 -5.3811e-23 8.40782e-09 0
          -5.3811e-23 8.40782e-09 0 -2.81706e-23 1.05383e-08 0 -2.81706e-23 1.05383e-08 0 -2.81706e-23 1.05383e-08 0
          -2.5837e-23 1.10092e-08 0 -1.19201e-23 1.10092e-08 0 1.99672e-24 1.10092e-08 0 1.36688e-23 1.08545e-08 0
          8.44536e-24 1.08545e-08 0 3.22192e-24 1.08545e-08 0
        </DataArray>
        <DataArray type="Float32" Name="velocity_gas (m/s)" NumberOfComponents="3" format="ascii">
          7.08774e-18 -2.41298e-09 0 3.62961e-18 -2.41298e-09 0 4.99109e-18 -4.71036e-09 0 9.52845e-19 -4.71036e-09 0
          1.71477e-19 -2.41298e-09 0 -3.0854e-18 -4.71036e-09 0 5.59483e-19 -7.87089e-09 0 3.29107e-20 -7.87089e-09 0
          -4.93661e-19 -7.87089e-09 0 -5.67903e-18 1.09679e-08 0 -3.91255e-18 1.09679e-08 0 -2.14607e-18 1.09679e-08 0
          -5.57915e-18 6.71252e-07 0 -5.65121e-18 6.71252e-07 0 -5.72328e-18 6.71252e-07 0 4.87011e-18 1.31183e-06 0
          -2.90876e-18 1.31183e-06 0 -1.06876e-17 1.31183e-06 0
        </DataArray>
        <DataArray type="Float32" Name="Permeability" NumberOfComponents="1" format="ascii">
          1e-13 1e-13 1e-13 1e-13 1e-13 1e-13 1e-13 1e-13 1e-13 1e-13 1e-13 1e-13
          9.9968e-14 9.9968e-14 9.9968e-14 9.99039e-14 9.99039e-14 9.99039e-14
        </DataArray>
      </PointData>
      <CellData Scalars="process rank">
        <DataArray type="Float32" Name="process rank" NumberOfComponents="1" format="ascii">
          0 0 0 0 0 0 0 0 0 0
        </DataArray>
      </CellData>
      <Points>
        <DataArray type="Float32" Name="Coordinates" NumberOfComponents="3" format="ascii">
          0 0 0 0.01 0 0 0 0.0075 0 0.01 0.0075 0
          0.02 0 0 0.02 0.0075 0 0 0.015 0 0.01 0.015 0
          0.02 0.015 0 0 0.016978 0 0.01 0.016978 0 0.02 0.016978 0
          0 0.0186264 0 0.01 0.0186264 0 0.02 0.0186264 0 0 0.02 0
          0.01 0.02 0 0.02 0.02 0
        </DataArray>
      </Points>
      <Cells>
        <DataArray type="Int32" Name="connectivity" NumberOfComponents="1" format="ascii">
          0 1 3 2 1 4 5 3 2 3 7 6
          3 5 8 7 6 7 10 9 7 8 11 10
          9 10 13 12 10 11 14 13 12 13 16 15
          13 14 17 16
        </DataArray>
        <DataArray type="Int32" Name="offsets" NumberOfComponents="1" format="ascii">
          4 8 12 16 20 24 28 32 36 40
        </DataArray>
        <DataArray type="UInt8" Name="types" NumberOfComponents="1" format="ascii">
          9 9 9 9 9 9 9 9 9 9
        </DataArray>
      </Cells>
    </Piece>
  </UnstructuredGrid>
</VTKFile>
