<?xml version="1.0"?>
<VTKFile type="UnstructuredGrid" version="0.1" byte_order="LittleEndian">
  <UnstructuredGrid>
    <Piece NumberOfCells="200" NumberOfPoints="231">
      <PointData Scalars="S_liq">
        <DataArray type="Float32" Name="S_liq" NumberOfComponents="1" format="ascii">
          1 1 1 1 1 1 1 1 1 1 1 1
          1 1 1 1 1 1 1 1 1 1 1 1
          1 1 1 1 1 1 1 1 1 1 1 1
          1 1 1 1 1 1 1 1 1 1 1 1
          1 1 1 1 1 1 1 1 1 1 1 1
          1 1 1 1 1 1 0.757928 1 1 1 1 1
          1 1 1 1 1 0.683022 1 1 1 1 1 1
          1 1 1 1 1 1 1 1 1 1 1 1
          1 1 1 1 1 1 1 1 1 1 1 1
          1 1 1 1 1 1 1 1 1 1 1 1
          1 1 1 1 1 1 1 1 1 1 1 1
          1 1 1 1 1 1 1 1 1 1 1 1
          1 1 1 1 1 1 1 1 1 1 1 1
          1 1 1 1 1 1 1 1 1 1 1 1
          1 1 1 1 1 1 1 1 1 1 1 1
          1 1 1 1 1 1 1 1 1 1 1 1
          1 1 1 1 1 1 1 1 1 1 1 1
          1 1 1 1 1 1 1 1 1 1 1 1
          1 1 1 1 1 1 1 1 1 1 1 1
          1 1 1
        </DataArray>
        <DataArray type="Float32" Name="p_liq" NumberOfComponents="1" format="ascii">
          179943 179941 176023 176020 179933 176012 179921 175999 179905 175983 179886 175964
          179866 175944 179845 175922 179823 175900 179801 175878 179780 175856 172108 172105
          172096 172082 172064 172044 172022 172000 171977 171955 171932 168200 168197 168186
          168168 168147 168124 168101 168078 168054 168031 168008 164295 164297 164283 164258
          164231 164206 164180 164156 164131 164108 164084 160402 160431 160383 160347 160315
          160286 160259 160233 160208 160184 160160 156765 156527 156478 156434 156397 156365
          156336 156309 156284 156260 156236 153055 152592 152563 152513 152473 152440 152411
          152384 152359 152336 152312 148672 148717 148630 148581 148543 148512 148483 148458
          148434 148411 148388 144740 144713 144678 144641 144608 144580 144554 144530 144507
          144485 144464 140751 140741 140720 140695 140669 140645 140622 140601 140580 140560
          140540 136783 136778 136765 136748 136728 136709 136689 136670 136652 136634 136616
          132827 132823 132815 132803 132788 132772 132756 132740 132724 132708 132692 128877
          128875 128869 128860 128848 128836 128823 128809 128795 128782 128768 124931 124930
          124925 124919 124910 124900 124890 124878 124867 124856 124844 120989 120988 120985
          120979 120973 120965 120957 120948 120939 120929 120920 117049 117048 117046 117042
          117037 117031 117025 117018 117011 117003 116996 113110 113110 113108 113105 113102
          113098 113093 113088 113083 113077 113072 109173 109173 109171 109170 109168 109165
          109162 109159 109155 109152 109148 105236 105236 105236 105235 105234 105232 105231
          105229 105228 105226 105224 101300 101300 101300 101300 101300 101300 101300 101300
          101300 101300 101300
        </DataArray>
        <DataArray type="Float32" Name="rho_liq" NumberOfComponents="1" format="ascii">
          999.729 999.729 999.727 999.727 999.729 999.727 999.729 999.727 999.729 999.727 999.729 999.727
          999.729 999.727 999.729 999.727 999.729 999.727 999.729 999.727 999.729 999.727 999.725 999.725
          999.725 999.725 999.725 999.725 999.725 999.725 999.725 999.725 999.725 999.722 999.723 999.723
          999.723 999.723 999.723 999.723 999.723 999.723 999.723 999.723 999.615 999.719 999.721 999.721
          999.721 999.721 999.721 999.721 999.721 999.721 999.721 977.276 999.571 999.718 999.719 999.719
          999.719 999.719 999.719 999.719 999.719 999.719 948.838 998.564 999.703 999.717 999.717 999.717
          999.717 999.717 999.717 999.717 999.717 949.38 996.901 999.665 999.714 999.716 999.716 999.716
          999.716 999.715 999.715 999.715 988.708 999.499 999.709 999.714 999.714 999.714 999.714 999.714
          999.714 999.714 999.714 999.496 999.705 999.712 999.712 999.712 999.712 999.712 999.712 999.712
          999.712 999.712 999.705 999.71 999.71 999.71 999.71 999.71 999.71 999.71 999.71 999.71
          999.71 999.708 999.708 999.708 999.708 999.708 999.708 999.708 999.708 999.708 999.708 999.708
          999.706 999.706 999.706 999.706 999.706 999.706 999.706 999.706 999.706 999.706 999.706 999.704
          999.704 999.704 999.704 999.704 999.704 999.704 999.704 999.704 999.704 999.704 999.702 999.702
          999.702 999.702 999.702 999.702 999.702 999.702 999.702 999.702 999.702 999.701 999.701 999.701
          999.701 999.701 999.701 999.701 999.701 999.7 999.7 999.7 999.699 999.699 999.699 999.699
          999.699 999.699 999.699 999.699 999.699 999.699 999.699 999.697 999.697 999.697 999.697 999.697
          999.697 999.697 999.697 999.697 999.697 999.697 999.695 999.695 999.695 999.695 999.695 999.695
          999.695 999.695 999.695 999.695 999.695 999.693 999.693 999.693 999.693 999.693 999.693 999.693
          999.693 999.693 999.693 999.693 999.691 999.691 999.691 999.691 999.691 999.691 999.691 999.691
          999.691 999.691 999.691
        </DataArray>
        <DataArray type="Float32" Name="mob_liq" NumberOfComponents="1" format="ascii">
          764.381 764.381 764.378 764.378 764.381 764.378 764.381 764.378 764.381 764.378 764.381 764.378
          764.381 764.378 764.381 764.378 764.381 764.378 764.381 764.378 764.381 764.378 764.378 764.376
          764.376 764.376 764.376 764.376 764.376 764.376 764.376 764.376 764.376 764.67 764.383 764.374
          764.374 764.374 764.374 764.374 764.374 764.374 764.374 764.374 789.943 765.13 764.383 764.372
          764.372 764.372 764.372 764.372 764.372 764.372 764.372 2508.91 797.401 764.914 764.376 764.37
          764.37 764.37 764.37 764.37 764.37 764.37 347.81 955.556 768.986 764.445 764.369 764.368
          764.368 764.368 764.368 764.368 764.368 182.845 1138.34 780.026 764.777 764.373 764.366 764.366
          764.366 764.366 764.366 764.366 1784.36 809.631 766.013 764.4 764.365 764.364 764.364 764.364
          764.364 764.364 764.364 809.756 766.416 764.424 764.364 764.362 764.362 764.362 764.362 764.362
          764.362 764.362 765.921 764.417 764.362 764.36 764.36 764.36 764.36 764.36 764.36 764.36
          764.36 764.389 764.36 764.358 764.358 764.358 764.358 764.358 764.358 764.358 764.358 764.358
          764.357 764.356 764.356 764.356 764.356 764.356 764.356 764.356 764.356 764.356 764.355 764.354
          764.354 764.354 764.354 764.354 764.354 764.354 764.354 764.354 764.353 764.353 764.352 764.352
          764.352 764.352 764.352 764.352 764.352 764.352 764.351 764.351 764.351 764.35 764.35 764.35
          764.35 764.35 764.349 764.349 764.349 764.349 764.349 764.349 764.348 764.348 764.348 764.347
          764.347 764.347 764.347 764.347 764.347 764.347 764.347 764.345 764.345 764.345 764.345 764.345
          764.345 764.345 764.345 764.345 764.345 764.345 764.343 764.343 764.343 764.343 764.343 764.343
          764.343 764.343 764.343 764.343 764.343 764.341 764.341 764.341 764.341 764.341 764.341 764.341
          764.341 764.341 764.341 764.341 764.339 764.339 764.339 764.339 764.339 764.339 764.339 764.339
          764.339 764.339 764.339
        </DataArray>
        <DataArray type="Float32" Name="S_gas" NumberOfComponents="1" format="ascii">
          0 0 0 0 0 0 0 0 0 0 0 0
          0 0 0 0 0 0 0 0 0 0 0 0
          0 0 0 0 0 0 0 0 0 0 0 0
          0 0 0 0 0 0 0 0 0 0 0 0
          0 0 0 0 0 0 0 0 0 0 0 0
          0 0 0 0 0 0 0.242072 0 0 0 0 0
          0 0 0 0 0 0.316978 0 0 0 0 0 0
          0 0 0 0 0 0 0 0 0 0 0 0
          0 0 0 0 0 0 0 0 0 0 0 0
          0 0 0 0 0 0 0 0 0 0 0 0
          0 0 0 0 0 0 0 0 0 0 0 0
          0 0 0 0 0 0 0 0 0 0 0 0
          0 0 0 0 0 0 0 0 0 0 0 0
          0 0 0 0 0 0 0 0 0 0 0 0
          0 0 0 0 0 0 0 0 0 0 0 0
          0 0 0 0 0 0 0 0 0 0 0 0
          0 0 0 0 0 0 0 0 0 0 0 0
          0 0 0 0 0 0 0 0 0 0 0 0
          0 0 0 0 0 0 0 0 0 0 0 0
          0 0 0
        </DataArray>
        <DataArray type="Float32" Name="p_gas" NumberOfComponents="1" format="ascii">
          179943 179941 176023 176020 179933 176012 179921 175999 179905 175983 179886 175964
          179866 175944 179845 175922 179823 175900 179801 175878 179780 175856 172108 172105
          172096 172082 172064 172044 172022 172000 171977 171955 171932 168200 168197 168186
          168168 168147 168124 168101 168078 168054 168031 168008 164295 164297 164283 164258
          164231 164206 164180 164156 164131 164108 164084 160402 160431 160383 160347 160315
          160286 160259 160233 160208 160184 160160 157098 156527 156478 156434 156397 156365
          156336 156309 156284 156260 156236 153475 152592 152563 152513 152473 152440 152411
          152384 152359 152336 152312 148672 148717 148630 148581 148543 148512 148483 148458
          148434 148411 148388 144740 144713 144678 144641 144608 144580 144554 144530 144507
          144485 144464 140751 140741 140720 140695 140669 140645 140622 140601 140580 140560
          140540 136783 136778 136765 136748 136728 136709 136689 136670 136652 136634 136616
          132827 132823 132815 132803 132788 132772 132756 132740 132724 132708 132692 128877
          128875 128869 128860 128848 128836 128823 128809 128795 128782 128768 124931 124930
          124925 124919 124910 124900 124890 124878 124867 124856 124844 120989 120988 120985
          120979 120973 120965 120957 120948 120939 120929 120920 117049 117048 117046 117042
          117037 117031 117025 117018 117011 117003 116996 113110 113110 113108 113105 113102
          113098 113093 113088 113083 113077 113072 109173 109173 109171 109170 109168 109165
          109162 109159 109155 109152 109148 105236 105236 105236 105235 105234 105232 105231
          105229 105228 105226 105224 101300 101300 101300 101300 101300 101300 101300 101300
          101300 101300 101300
        </DataArray>
        <DataArray type="Float32" Name="rho_gas" NumberOfComponents="1" format="ascii">
          1.37962 1.3796 1.34957 1.34955 1.37954 1.34948 1.37945 1.34939 1.37933 1.34926 1.37919 1.34912
          1.37903 1.34896 1.37887 1.34879 1.3787 1.34862 1.37853 1.34846 1.37837 1.34829 1.31955 1.31953
          1.31946 1.31935 1.31921 1.31906 1.31889 1.31872 1.31855 1.31837 1.3182 1.28953 1.28956 1.28948
          1.28934 1.28918 1.28901 1.28883 1.28865 1.28847 1.28829 1.28812 1.25469 1.25952 1.25955 1.25936
          1.25916 1.25896 1.25877 1.25858 1.25839 1.25821 1.25803 1.02376 1.22372 1.22956 1.22938 1.22914
          1.22891 1.2287 1.2285 1.22831 1.22813 1.22794 0.900661 1.16682 1.19889 1.19936 1.19909 1.19885
          1.19863 1.19842 1.19823 1.19804 1.19786 0.881211 1.11043 1.16698 1.16924 1.16901 1.16876 1.16853
          1.16833 1.16814 1.16795 1.16777 1.00873 1.1322 1.13926 1.13916 1.13888 1.13864 1.13842 1.13822
          1.13804 1.13786 1.13769 1.1019 1.10917 1.10924 1.10896 1.10871 1.10849 1.10829 1.10811 1.10793
          1.10777 1.1076 1.07888 1.07905 1.0789 1.0787 1.07851 1.07832 1.07815 1.07798 1.07782 1.07767
          1.07752 1.04871 1.04867 1.04858 1.04844 1.04829 1.04814 1.04799 1.04785 1.04771 1.04757 1.04743
          1.01838 1.01835 1.01829 1.01819 1.01808 1.01796 1.01784 1.01771 1.01759 1.01747 1.01735 0.988094
          0.988078 0.988032 0.987963 0.987877 0.987781 0.98768 0.987576 0.987471 0.987366 0.987261 0.957844 0.957833
          0.957799 0.957748 0.957682 0.957606 0.957525 0.95744 0.957352 0.957264 0.957176 0.927618 0.927609 0.927585
          0.927546 0.927496 0.927438 0.927373 0.927305 0.927235 0.927163 0.92709 0.897409 0.897403 0.897385 0.897356
          0.897319 0.897275 0.897226 0.897173 0.897118 0.897062 0.897005 0.867212 0.867208 0.867195 0.867175 0.867149
          0.867117 0.867082 0.867043 0.867003 0.866961 0.866919 0.837024 0.837022 0.837014 0.837001 0.836984 0.836963
          0.83694 0.836915 0.836889 0.836861 0.836834 0.806842 0.806841 0.806837 0.806831 0.806822 0.806812 0.806801
          0.806789 0.806775 0.806762 0.806748 0.776663 0.776663 0.776663 0.776663 0.776663 0.776663 0.776663 0.776663
          0.776663 0.776663 0.776663
        </DataArray>
        <DataArray type="Float32" Name="mob_gas" NumberOfComponents="1" format="ascii">
          0 0 0 0 0 0 0 0 0 0 0 0
          0 0 0 0 0 0 0 0 0 0 0 0
          0 0 0 0 0 0 0 0 0 0 0 0
          0 0 0 0 0 0 0 0 0 0 0 0
          0 0 0 0 0 0 0 0 0 0 0 0
          0 0 0 0 0 0 19051 0 0 0 0 0
          0 0 0 0 0 27225.9 0 0 0 0 0 0
          0 0 0 0 0 0 0 0 0 0 0 0
          0 0 0 0 0 0 0 0 0 0 0 0
          0 0 0 0 0 0 0 0 0 0 0 0
          0 0 0 0 0 0 0 0 0 0 0 0
          0 0 0 0 0 0 0 0 0 0 0 0
          0 0 0 0 0 0 0 0 0 0 0 0
          0 0 0 0 0 0 0 0 0 0 0 0
          0 0 0 0 0 0 0 0 0 0 0 0
          0 0 0 0 0 0 0 0 0 0 0 0
          0 0 0 0 0 0 0 0 0 0 0 0
          0 0 0 0 0 0 0 0 0 0 0 0
          0 0 0 0 0 0 0 0 0 0 0 0
          0 0 0
        </DataArray>
        <DataArray type="Float32" Name="pc" NumberOfComponents="1" format="ascii">
          0 0 0 0 0 0 0 0 0 0 0 0
          0 0 0 0 0 0 0 0 0 0 0 0
          0 0 0 0 0 0 0 0 0 0 0 0
          0 0 0 0 0 0 0 0 0 0 0 0
          0 0 0 0 0 0 0 0 0 0 0 0
          0 0 0 0 0 0 333.357 0 0 0 0 0
          0 0 0 0 0 419.996 0 0 0 0 0 0
          0 0 0 0 0 0 0 0 0 0 0 0
          0 0 0 0 0 0 0 0 0 0 0 0
          0 0 0 0 0 0 0 0 0 0 0 0
          0 0 0 0 0 0 0 0 0 0 0 0
          0 0 0 0 0 0 0 0 0 0 0 0
          0 0 0 0 0 0 0 0 0 0 0 0
          0 0 0 0 0 0 0 0 0 0 0 0
          0 0 0 0 0 0 0 0 0 0 0 0
          0 0 0 0 0 0 0 0 0 0 0 0
          0 0 0 0 0 0 0 0 0 0 0 0
          0 0 0 0 0 0 0 0 0 0 0 0
          0 0 0 0 0 0 0 0 0 0 0 0
          0 0 0
        </DataArray>
        <DataArray type="Float32" Name="porosity" NumberOfComponents="1" format="ascii">
          0.4 0.4 0.4 0.4 0.4 0.4 0.4 0.4 0.4 0.4 0.4 0.4
          0.4 0.4 0.4 0.4 0.4 0.4 0.4 0.4 0.4 0.4 0.4 0.4
          0.4 0.4 0.4 0.4 0.4 0.4 0.4 0.4 0.4 0.4 0.4 0.4
          0.4 0.4 0.4 0.4 0.4 0.4 0.4 0.4 0.4 0.4 0.4 0.4
          0.4 0.4 0.4 0.4 0.4 0.4 0.4 0.4 0.4 0.4 0.4 0.4
          0.4 0.4 0.4 0.4 0.4 0.4 0.4 0.4 0.4 0.4 0.4 0.4
          0.4 0.4 0.4 0.4 0.4 0.4 0.4 0.4 0.4 0.4 0.4 0.4
          0.4 0.4 0.4 0.4 0.4 0.4 0.4 0.4 0.4 0.4 0.4 0.4
          0.4 0.4 0.4 0.4 0.4 0.4 0.4 0.4 0.4 0.4 0.4 0.4
          0.4 0.4 0.4 0.4 0.4 0.4 0.4 0.4 0.4 0.4 0.4 0.4
          0.4 0.4 0.4 0.4 0.4 0.4 0.4 0.4 0.4 0.4 0.4 0.4
          0.4 0.4 0.4 0.4 0.4 0.4 0.4 0.4 0.4 0.4 0.4 0.4
          0.4 0.4 0.4 0.4 0.4 0.4 0.4 0.4 0.4 0.4 0.4 0.4
          0.4 0.4 0.4 0.4 0.4 0.4 0.4 0.4 0.4 0.4 0.4 0.4
          0.4 0.4 0.4 0.4 0.4 0.4 0.4 0.4 0.4 0.4 0.4 0.4
          0.4 0.4 0.4 0.4 0.4 0.4 0.4 0.4 0.4 0.4 0.4 0.4
          0.4 0.4 0.4 0.4 0.4 0.4 0.4 0.4 0.4 0.4 0.4 0.4
          0.4 0.4 0.4 0.4 0.4 0.4 0.4 0.4 0.4 0.4 0.4 0.4
          0.4 0.4 0.4 0.4 0.4 0.4 0.4 0.4 0.4 0.4 0.4 0.4
          0.4 0.4 0.4
        </DataArray>
        <DataArray type="Float32" Name="phase presence" NumberOfComponents="1" format="ascii">
          2 2 2 2 2 2 2 2 2 2 2 2
          2 2 2 2 2 2 2 2 2 2 2 2
          2 2 2 2 2 2 2 2 2 2 2 2
          2 2 2 2 2 2 2 2 2 2 2 2
          2 2 2 2 2 2 2 2 2 2 2 2
          2 2 2 2 2 2 1 2 2 2 2 2
          2 2 2 2 2 1 2 2 2 2 2 2
          2 2 2 2 2 2 2 2 2 2 2 2
          2 2 2 2 2 2 2 2 2 2 2 2
          2 2 2 2 2 2 2 2 2 2 2 2
          2 2 2 2 2 2 2 2 2 2 2 2
          2 2 2 2 2 2 2 2 2 2 2 2
          2 2 2 2 2 2 2 2 2 2 2 2
          2 2 2 2 2 2 2 2 2 2 2 2
          2 2 2 2 2 2 2 2 2 2 2 2
          2 2 2 2 2 2 2 2 2 2 2 2
          2 2 2 2 2 2 2 2 2 2 2 2
          2 2 2 2 2 2 2 2 2 2 2 2
          2 2 2 2 2 2 2 2 2 2 2 2
          2 2 2
        </DataArray>
        <DataArray type="Float32" Name="T" NumberOfComponents="1" format="ascii">
          283.13 283.13 283.13 283.13 283.13 283.13 283.13 283.13 283.13 283.13 283.13 283.13
          283.13 283.13 283.13 283.13 283.13 283.13 283.13 283.13 283.13 283.13 283.13 283.13
          283.13 283.13 283.13 283.13 283.13 283.13 283.13 283.13 283.13 283.143 283.13 283.13
          283.13 283.13 283.13 283.13 283.13 283.13 283.13 283.13 284.273 283.163 283.13 283.13
          283.13 283.13 283.13 283.13 283.13 283.13 283.13 344.07 284.623 283.153 283.13 283.13
          283.13 283.13 283.13 283.13 283.13 283.13 385.893 291.416 283.328 283.133 283.13 283.13
          283.13 283.13 283.13 283.13 283.13 385.189 298.766 283.797 283.148 283.13 283.13 283.13
          283.13 283.13 283.13 283.13 321.702 285.184 283.201 283.132 283.13 283.13 283.13 283.13
          283.13 283.13 283.13 285.189 283.218 283.133 283.13 283.13 283.13 283.13 283.13 283.13
          283.13 283.13 283.197 283.132 283.13 283.13 283.13 283.13 283.13 283.13 283.13 283.13
          283.13 283.131 283.13 283.13 283.13 283.13 283.13 283.13 283.13 283.13 283.13 283.13
          283.13 283.13 283.13 283.13 283.13 283.13 283.13 283.13 283.13 283.13 283.13 283.13
          283.13 283.13 283.13 283.13 283.13 283.13 283.13 283.13 283.13 283.13 283.13 283.13
          283.13 283.13 283.13 283.13 283.13 283.13 283.13 283.13 283.13 283.13 283.13 283.13
          283.13 283.13 283.13 283.13 283.13 283.13 283.13 283.13 283.13 283.13 283.13 283.13
          283.13 283.13 283.13 283.13 283.13 283.13 283.13 283.13 283.13 283.13 283.13 283.13
          283.13 283.13 283.13 283.13 283.13 283.13 283.13 283.13 283.13 283.13 283.13 283.13
          283.13 283.13 283.13 283.13 283.13 283.13 283.13 283.13 283.13 283.13 283.13 283.13
          283.13 283.13 283.13 283.13 283.13 283.13 283.13 283.13 283.13 283.13 283.13 283.13
          283.13 283.13 283.13
        </DataArray>
      </PointData>
      <CellData Scalars="process rank">
        <DataArray type="Float32" Name="process rank" NumberOfComponents="1" format="ascii">
          0 0 0 0 0 0 0 0 0 0 0 0
          0 0 0 0 0 0 0 0 0 0 0 0
          0 0 0 0 0 0 0 0 0 0 0 0
          0 0 0 0 0 0 0 0 0 0 0 0
          0 0 0 0 0 0 0 0 0 0 0 0
          0 0 0 0 0 0 0 0 0 0 0 0
          0 0 0 0 0 0 0 0 0 0 0 0
          0 0 0 0 0 0 0 0 0 0 0 0
          0 0 0 0 0 0 0 0 0 0 0 0
          0 0 0 0 0 0 0 0 0 0 0 0
          0 0 0 0 0 0 0 0 0 0 0 0
          0 0 0 0 0 0 0 0 0 0 0 0
          0 0 0 0 0 0 0 0 0 0 0 0
          0 0 0 0 0 0 0 0 0 0 0 0
          0 0 0 0 0 0 0 0 0 0 0 0
          0 0 0 0 0 0 0 0 0 0 0 0
          0 0 0 0 0 0 0 0
        </DataArray>
      </CellData>
      <Points>
        <DataArray type="Float32" Name="Coordinates" NumberOfComponents="3" format="ascii">
          0 0 0 0.4 0 0 0 0.4 0 0.4 0.4 0
          0.8 0 0 0.8 0.4 0 1.2 0 0 1.2 0.4 0
          1.6 0 0 1.6 0.4 0 2 0 0 2 0.4 0
          2.4 0 0 2.4 0.4 0 2.8 0 0 2.8 0.4 0
          3.2 0 0 3.2 0.4 0 3.6 0 0 3.6 0.4 0
          4 0 0 4 0.4 0 0 0.8 0 0.4 0.8 0
          0.8 0.8 0 1.2 0.8 0 1.6 0.8 0 2 0.8 0
          2.4 0.8 0 2.8 0.8 0 3.2 0.8 0 3.6 0.8 0
          4 0.8 0 0 1.2 0 0.4 1.2 0 0.8 1.2 0
          1.2 1.2 0 1.6 1.2 0 2 1.2 0 2.4 1.2 0
          2.8 1.2 0 3.2 1.2 0 3.6 1.2 0 4 1.2 0
          0 1.6 0 0.4 1.6 0 0.8 1.6 0 1.2 1.6 0
          1.6 1.6 0 2 1.6 0 2.4 1.6 0 2.8 1.6 0
          3.2 1.6 0 3.6 1.6 0 4 1.6 0 0 2 0
          0.4 2 0 0.8 2 0 1.2 2 0 1.6 2 0
          2 2 0 2.4 2 0 2.8 2 0 3.2 2 0
          3.6 2 0 4 2 0 0 2.4 0 0.4 2.4 0
          0.8 2.4 0 1.2 2.4 0 1.6 2.4 0 2 2.4 0
          2.4 2.4 0 2.8 2.4 0 3.2 2.4 0 3.6 2.4 0
          4 2.4 0 0 2.8 0 0.4 2.8 0 0.8 2.8 0
          1.2 2.8 0 1.6 2.8 0 2 2.8 0 2.4 2.8 0
          2.8 2.8 0 3.2 2.8 0 3.6 2.8 0 4 2.8 0
          0 3.2 0 0.4 3.2 0 0.8 3.2 0 1.2 3.2 0
          1.6 3.2 0 2 3.2 0 2.4 3.2 0 2.8 3.2 0
          3.2 3.2 0 3.6 3.2 0 4 3.2 0 0 3.6 0
          0.4 3.6 0 0.8 3.6 0 1.2 3.6 0 1.6 3.6 0
          2 3.6 0 2.4 3.6 0 2.8 3.6 0 3.2 3.6 0
          3.6 3.6 0 4 3.6 0 0 4 0 0.4 4 0
          0.8 4 0 1.2 4 0 1.6 4 0 2 4 0
          2.4 4 0 2.8 4 0 3.2 4 0 3.6 4 0
          4 4 0 0 4.4 0 0.4 4.4 0 0.8 4.4 0
          1.2 4.4 0 1.6 4.4 0 2 4.4 0 2.4 4.4 0
          2.8 4.4 0 3.2 4.4 0 3.6 4.4 0 4 4.4 0
          0 4.8 0 0.4 4.8 0 0.8 4.8 0 1.2 4.8 0
          1.6 4.8 0 2 4.8 0 2.4 4.8 0 2.8 4.8 0
          3.2 4.8 0 3.6 4.8 0 4 4.8 0 0 5.2 0
          0.4 5.2 0 0.8 5.2 0 1.2 5.2 0 1.6 5.2 0
          2 5.2 0 2.4 5.2 0 2.8 5.2 0 3.2 5.2 0
          3.6 5.2 0 4 5.2 0 0 5.6 0 0.4 5.6 0
          0.8 5.6 0 1.2 5.6 0 1.6 5.6 0 2 5.6 0
          2.4 5.6 0 2.8 5.6 0 3.2 5.6 0 3.6 5.6 0
          4 5.6 0 0 6 0 0.4 6 0 0.8 6 0
          1.2 6 0 1.6 6 0 2 6 0 2.4 6 0
          2.8 6 0 3.2 6 0 3.6 6 0 4 6 0
          0 6.4 0 0.4 6.4 0 0.8 6.4 0 1.2 6.4 0
          1.6 6.4 0 2 6.4 0 2.4 6.4 0 2.8 6.4 0
          3.2 6.4 0 3.6 6.4 0 4 6.4 0 0 6.8 0
          0.4 6.8 0 0.8 6.8 0 1.2 6.8 0 1.6 6.8 0
          2 6.8 0 2.4 6.8 0 2.8 6.8 0 3.2 6.8 0
          3.6 6.8 0 4 6.8 0 0 7.2 0 0.4 7.2 0
          0.8 7.2 0 1.2 7.2 0 1.6 7.2 0 2 7.2 0
          2.4 7.2 0 2.8 7.2 0 3.2 7.2 0 3.6 7.2 0
          4 7.2 0 0 7.6 0 0.4 7.6 0 0.8 7.6 0
          1.2 7.6 0 1.6 7.6 0 2 7.6 0 2.4 7.6 0
          2.8 7.6 0 3.2 7.6 0 3.6 7.6 0 4 7.6 0
          0 8 0 0.4 8 0 0.8 8 0 1.2 8 0
          1.6 8 0 2 8 0 2.4 8 0 2.8 8 0
          3.2 8 0 3.6 8 0 4 8 0
        </DataArray>
      </Points>
      <Cells>
        <DataArray type="Int32" Name="connectivity" NumberOfComponents="1" format="ascii">
          0 1 3 2 1 4 5 3 4 6 7 5
          6 8 9 7 8 10 11 9 10 12 13 11
          12 14 15 13 14 16 17 15 16 18 19 17
          18 20 21 19 2 3 23 22 3 5 24 23
          5 7 25 24 7 9 26 25 9 11 27 26
          11 13 28 27 13 15 29 28 15 17 30 29
          17 19 31 30 19 21 32 31 22 23 34 33
          23 24 35 34 24 25 36 35 25 26 37 36
          26 27 38 37 27 28 39 38 28 29 40 39
          29 30 41 40 30 31 42 41 31 32 43 42
          33 34 45 44 34 35 46 45 35 36 47 46
          36 37 48 47 37 38 49 48 38 39 50 49
          39 40 51 50 40 41 52 51 41 42 53 52
          42 43 54 53 44 45 56 55 45 46 57 56
          46 47 58 57 47 48 59 58 48 49 60 59
          49 50 61 60 50 51 62 61 51 52 63 62
          52 53 64 63 53 54 65 64 55 56 67 66
          56 57 68 67 57 58 69 68 58 59 70 69
          59 60 71 70 60 61 72 71 61 62 73 72
          62 63 74 73 63 64 75 74 64 65 76 75
          66 67 78 77 67 68 79 78 68 69 80 79
          69 70 81 80 70 71 82 81 71 72 83 82
          72 73 84 83 73 74 85 84 74 75 86 85
          75 76 87 86 77 78 89 88 78 79 90 89
          79 80 91 90 80 81 92 91 81 82 93 92
          82 83 94 93 83 84 95 94 84 85 96 95
          85 86 97 96 86 87 98 97 88 89 100 99
          89 90 101 100 90 91 102 101 91 92 103 102
          92 93 104 103 93 94 105 104 94 95 106 105
          95 96 107 106 96 97 108 107 97 98 109 108
          99 100 111 110 100 101 112 111 101 102 113 112
          102 103 114 113 103 104 115 114 104 105 116 115
          105 106 117 116 106 107 118 117 107 108 119 118
          108 109 120 119 110 111 122 121 111 112 123 122
          112 113 124 123 113 114 125 124 114 115 126 125
          115 116 127 126 116 117 128 127 117 118 129 128
          118 119 130 129 119 120 131 130 121 122 133 132
          122 123 134 133 123 124 135 134 124 125 136 135
          125 126 137 136 126 127 138 137 127 128 139 138
          128 129 140 139 129 130 141 140 130 131 142 141
          132 133 144 143 133 134 145 144 134 135 146 145
          135 136 147 146 136 137 148 147 137 138 149 148
          138 139 150 149 139 140 151 150 140 141 152 151
          141 142 153 152 143 144 155 154 144 145 156 155
          145 146 157 156 146 147 158 157 147 148 159 158
          148 149 160 159 149 150 161 160 150 151 162 161
          151 152 163 162 152 153 164 163 154 155 166 165
          155 156 167 166 156 157 168 167 157 158 169 168
          158 159 170 169 159 160 171 170 160 161 172 171
          161 162 173 172 162 163 174 173 163 164 175 174
          165 166 177 176 166 167 178 177 167 168 179 178
          168 169 180 179 169 170 181 180 170 171 182 181
          171 172 183 182 172 173 184 183 173 174 185 184
          174 175 186 185 176 177 188 187 177 178 189 188
          178 179 190 189 179 180 191 190 180 181 192 191
          181 182 193 192 182 183 194 193 183 184 195 194
          184 185 196 195 185 186 197 196 187 188 199 198
          188 189 200 199 189 190 201 200 190 191 202 201
          191 192 203 202 192 193 204 203 193 194 205 204
          194 195 206 205 195 196 207 206 196 197 208 207
          198 199 210 209 199 200 211 210 200 201 212 211
          201 202 213 212 202 203 214 213 203 204 215 214
          204 205 216 215 205 206 217 216 206 207 218 217
          207 208 219 218 209 210 221 220 210 211 222 221
          211 212 223 222 212 213 224 223 213 214 225 224
          214 215 226 225 215 216 227 226 216 217 228 227
          217 218 229 228 218 219 230 229
        </DataArray>
        <DataArray type="Int32" Name="offsets" NumberOfComponents="1" format="ascii">
          4 8 12 16 20 24 28 32 36 40 44 48
          52 56 60 64 68 72 76 80 84 88 92 96
          100 104 108 112 116 120 124 128 132 136 140 144
          148 152 156 160 164 168 172 176 180 184 188 192
          196 200 204 208 212 216 220 224 228 232 236 240
          244 248 252 256 260 264 268 272 276 280 284 288
          292 296 300 304 308 312 316 320 324 328 332 336
          340 344 348 352 356 360 364 368 372 376 380 384
          388 392 396 400 404 408 412 416 420 424 428 432
          436 440 444 448 452 456 460 464 468 472 476 480
          484 488 492 496 500 504 508 512 516 520 524 528
          532 536 540 544 548 552 556 560 564 568 572 576
          580 584 588 592 596 600 604 608 612 616 620 624
          628 632 636 640 644 648 652 656 660 664 668 672
          676 680 684 688 692 696 700 704 708 712 716 720
          724 728 732 736 740 744 748 752 756 760 764 768
          772 776 780 784 788 792 796 800
        </DataArray>
        <DataArray type="UInt8" Name="types" NumberOfComponents="1" format="ascii">
          9 9 9 9 9 9 9 9 9 9 9 9
          9 9 9 9 9 9 9 9 9 9 9 9
          9 9 9 9 9 9 9 9 9 9 9 9
          9 9 9 9 9 9 9 9 9 9 9 9
          9 9 9 9 9 9 9 9 9 9 9 9
          9 9 9 9 9 9 9 9 9 9 9 9
          9 9 9 9 9 9 9 9 9 9 9 9
          9 9 9 9 9 9 9 9 9 9 9 9
          9 9 9 9 9 9 9 9 9 9 9 9
          9 9 9 9 9 9 9 9 9 9 9 9
          9 9 9 9 9 9 9 9 9 9 9 9
          9 9 9 9 9 9 9 9 9 9 9 9
          9 9 9 9 9 9 9 9 9 9 9 9
          9 9 9 9 9 9 9 9 9 9 9 9
          9 9 9 9 9 9 9 9 9 9 9 9
          9 9 9 9 9 9 9 9 9 9 9 9
          9 9 9 9 9 9 9 9
        </DataArray>
      </Cells>
    </Piece>
  </UnstructuredGrid>
</VTKFile>
