<?xml version="1.0"?>
<VTKFile type="UnstructuredGrid" version="0.1" byte_order="LittleEndian">
  <UnstructuredGrid>
    <Piece NumberOfCells="1833" NumberOfPoints="1946">
      <PointData Scalars="S_liq">
        <DataArray type="Float32" Name="S_liq" NumberOfComponents="1" format="ascii">
          0.530856 0.535985 0.481545 0.505309 0.556166 0.564499 0.397918 0.459883 0.554328 0.574494 0.522645 0.587831
          0.603713 0.592026 0.620021 0.608497 0.576408 0.488901 0.329879 0.426522 0.474291 0.310546 0.411778 0.512442
          0.542478 0.59459 0.564589 0.583797 0.637824 0.62561 0.656452 0.643786 0.676473 0.660543 0.701314 0.677145
          0.739906 0.700916 0.850291 0.765374 0.612583 0.632701 0.651993 0.601777 0.665271 0.678968 0.711802 0.659543
          0.640689 0.669698 0.465075 0.282064 0.3804 0.504847 0.534509 0.417729 0.558692 0.579376 0.318512 0.437866
          0.485507 0.519017 0.343886 0.532048 0.502659 0.544157 0.564906 0.583176 0.553024 0.570521 0.616799 0.625031
          0.598413 0.64676 0.629911 0.730537 0.680281 0.616623 0.599383 0.612299 0.641007 0.657633 0.628243 0.699074
          0.677399 1 0.92477 1 1 1 1 1 1 1 1 0.805224
          0.984957 1 1 1 1 1 1 1 1 1 1 1
          1 1 1 1 1 1 1 1 1 1 1 1
          1 1 1 1 1 1 1 1 0.849497 1 0.913718 1
          1 0.758363 0.813015 0.727306 0.986178 1 1 1 1 1 1 1
          1 1 1 1 1 1 1 0.462529 0.390575 0.468475 0.49354 0.524126
          0.54983 0.586885 0.567422 0.577069 0.58665 0.510544 0.542646 0.362763 0.455469 0.500654 0.570264 0.600524
          0.587606 0.601549 0.614142 0.619942 0.624607 0.636719 0.65282 0.663528 0.689628 0.61396 0.628029 0.644417
          0.602605 0.617878 0.636213 0.659266 0.681679 0.347778 0.442577 0.531291 0.491146 0.521698 0.555556 0.573256
          0.545699 0.564796 0.58228 0.589289 0.327119 0.412975 0.456692 0.531233 0.513844 0.384524 0.48879 0.552103
          0.571704 0.537511 0.589975 0.604492 0.617671 0.644491 0.667105 0.627609 0.690046 0.598992 0.614713 0.630176
          0.607576 0.624682 0.643192 0.649828 0.678347 0.723602 0.710908 0.780187 0.723182 0.944183 1 1
          1 0.799159 0.967817 0.707478 0.767467 1 1 1 1 1 1 1
          1 1 1 1 1 0.708024 0.923931 0.760209 0.893334 1 1 1
          1 1 0.808533 1 0.968591 1 1 1 1 1 1 1
          1 1 1 1 1 1 1 1 1 1 1 1
          1 1 1 1 1 1 1 1 1 1 1 1
          1 1 1 1 1 1 1 1 1 1 1 1
          1 1 1 1 1 1 1 1 1 1 1 1
          1 1 1 1 1 1 1 1 1 1 1 1
          1 1 1 1 1 1 1 1 1 1 1 1
          1 1 1 1 1 1 1 1 1 1 1 1
          1 1 1 1 1 1 1 1 1 1 1 1
          1 1 1 1 1 1 1 1 1 1 1 1
          1 1 1 1 1 1 1 1 1 1 1 1
          1 1 1 1 1 1 1 1 1 1 1 1
          1 1 1 1 1 1 1 1 1 1 1 1
          1 1 1 1 1 1 1 1 1 1 1 1
          1 1 1 1 1 1 1 1 1 1 1 1
          1 1 1 1 1 1 1 1 1 1 1 1
          1 1 1 1 1 1 1 1 1 1 1 1
          1 1 1 1 1 1 1 1 1 1 1 1
          1 1 1 1 1 1 1 1 1 1 1 1
          1 1 1 1 1 1 1 1 1 1 1 1
          1 1 1 1 1 1 1 1 1 1 1 1
          1 1 1 1 1 1 1 0.453561 0.508694 0.343729 0.43457 0.480504
          0.512478 0.541299 0.562429 0.583352 0.564225 0.478452 0.322258 0.420232 0.467694 0.293636 0.388692 0.507974
          0.585115 0.536768 0.558699 0.580048 0.602816 0.621758 0.642022 0.666485 0.702338 0.666466 0.604922 0.624184
          0.60043 0.644728 0.704266 0.668585 0.697717 0.416568 0.321678 0.433653 0.477005 0.512704 0.539924 0.556821
          0.576229 0.559277 0.346405 0.456449 0.489547 0.524859 0.388671 0.597819 0.585873 0.619994 0.640073 0.617507
          0.661562 0.685983 0.634631 0.606616 0.622035 0.645744 0.674043 0.690888 0.661731 0.773662 0.911008 1
          1 1 1 0.963357 1 1 1 0.792325 0.740299 1 0.937919 1
          1 1 1 1 1 1 1 1 1 1 1 1
          1 1 1 1 0.797478 0.721841 0.80806 0.999466 1 1 1 0.731056
          0.838007 0.705536 1 1 1 1 1 1 1 1 1 1
          1 1 1 1 1 1 1 1 1 1 1 0.468949
          0.483072 0.513974 0.547246 0.442831 0.497087 0.536235 0.569085 0.579194 0.604501 0.550535 0.479496 0.520359
          0.580104 0.599949 0.624982 0.605038 0.625539 0.64391 0.631392 0.654264 0.689264 0.646575 0.668924 0.686979
          0.70841 0.759771 0.718767 0.868122 0.50656 0.540176 0.564121 0.591669 0.578551 0.608913 0.621528 0.619886
          0.641123 0.609944 0.62458 0.528189 0.557091 0.59107 0.546216 0.571232 0.624343 0.634405 0.634136 0.641805
          0.642887 0.645458 0.663765 0.687128 0.714243 0.774182 0.982534 0.657412 0.682489 0.712012 0.673322 0.708209
          0.756877 0.760485 0.89567 1 0.861739 1 1 0.786593 0.96109 1 1 1
          1 0.93508 1 1 1 1 1 1 1 1 1 1
          1 1 1 1 1 1 1 1 1 1 1 1
          1 1 1 1 1 1 1 1 1 1 1 1
          1 1 1 1 1 1 1 1 1 1 1 1
          1 1 1 1 1 1 1 1 1 1 1 1
          1 1 1 1 1 1 1 1 1 1 1 1
          1 1 1 1 1 1 1 1 1 1 1 1
          1 1 1 1 1 1 1 1 1 1 1 1
          1 1 1 1 1 1 1 1 1 1 1 1
          1 1 1 1 1 1 1 1 1 1 1 1
          1 1 1 1 1 1 1 1 1 1 1 1
          1 1 1 1 1 1 1 1 1 1 1 1
          1 1 1 1 1 1 1 1 1 1 1 1
          1 1 1 1 1 1 1 1 1 1 1 1
          1 1 1 1 1 1 1 1 1 1 1 1
          1 1 1 1 1 1 1 1 1 1 1 1
          1 1 1 1 1 1 1 1 1 1 1 1
          1 1 1 1 1 1 1 1 1 1 1 1
          1 1 1 1 1 1 1 1 1 1 1 1
          1 1 1 1 1 1 1 1 1 1 1 1
          1 1 1 1 1 1 1 1 1 1 1 1
          1 1 1 1 1 1 1 1 1 1 1 1
          1 1 1 1 1 1 1 1 1 1 1 1
          1 1 1 1 1 1 1 1 1 1 1 1
          1 1 1 1 1 1 1 1 1 1 1 1
          1 1 1 1 1 1 1 1 1 1 1 1
          1 1 1 1 1 1 1 1 1 1 1 1
          1 1 1 1 1 1 1 1 1 1 1 1
          1 1 1 1 1 1 1 1 1 1 1 1
          1 1 1 1 1 1 1 1 1 1 1 1
          1 1 1 1 1 1 1 1 1 1 1 1
          1 1 1 1 1 1 1 1 1 1 1 1
          1 1 1 1 1 1 1 1 1 1 1 1
          1 1 1 1 1 1 1 1 1 1 1 1
          1 1 1 1 1 1 1 1 1 1 1 1
          1 1 1 1 1 1 1 1 1 1 1 1
          1 1 1 1 1 1 1 1 1 1 1 1
          1 1 1 1 1 1 1 1 1 1 1 1
          1 1 1 1 1 1 1 1 1 1 1 1
          1 1 1 1 1 1 1 1 1 1 1 1
          1 1 1 1 1 1 1 1 1 1 1 1
          1 1 1 1 1 1 1 1 1 1 1 1
          1 1 1 1 1 1 1 1 1 1 1 1
          1 1 1 1 1 1 1 1 1 1 1 1
          1 1 1 1 1 1 1 1 1 1 1 1
          1 1 1 1 1 1 1 1 1 1 1 1
          1 1 1 1 1 1 1 1 1 1 1 1
          1 1 1 1 1 1 1 1 1 1 1 1
          1 1 1 1 1 1 1 1 1 1 1 1
          1 1 1 1 1 1 1 1 1 1 1 1
          1 1 1 1 1 1 1 1 1 1 1 1
          1 1 1 1 1 1 1 1 1 1 1 1
          1 1 1 1 1 1 1 1 1 1 1 1
          1 1 1 1 1 1 1 1 1 1 1 1
          1 1 1 1 1 1 1 1 1 1 1 1
          1 1 1 1 1 1 1 1 1 1 1 1
          1 1 1 1 1 1 1 1 1 1 1 1
          1 1 1 1 1 1 1 1 1 1 1 1
          1 1 1 1 1 1 1 1 1 1 1 1
          1 1 1 1 1 1 1 1 1 1 1 1
          1 1 1 1 1 1 1 1 1 1 1 1
          1 1 1 1 1 1 1 1 1 1 1 1
          1 1 1 1 1 1 1 1 1 1 1 1
          1 1 1 1 1 1 1 1 1 1 1 1
          1 1 1 1 1 1 1 1 1 1 1 1
          1 1 1 1 1 1 1 1 1 1 1 1
          1 1 1 1 1 1 1 1 1 1 1 1
          1 1 1 1 1 1 1 1 1 1 1 1
          1 1 1 1 1 1 1 1 1 1 1 1
          1 1 1 1 1 1 1 1 1 1 1 1
          1 1 1 1 1 1 1 1 1 1 1 1
          1 1 1 1 1 1 1 1 1 1 1 1
          1 1 1 1 1 1 1 1 1 1 1 1
          1 1 1 1 1 1 1 1 1 1 1 1
          1 1 1 1 1 1 1 1 1 1 1 1
          1 1 1 1 1 1 1 1 1 1 1 1
          1 1 1 1 1 1 1 1 1 1 1 1
          1 1 1 1 1 1 1 1 1 1 1 1
          1 1 1 1 1 1 1 1 1 1 1 1
          1 1 1 1 1 1 1 1 1 1 1 1
          1 1 1 1 1 1 1 1 1 1 1 1
          1 1 1 1 1 1 1 1 1 1 1 1
          1 1 1 1 1 1 1 1 1 1 1 1
          1 1 1 1 1 1 1 1 1 1 1 1
          1 1 1 1 1 1 1 1 1 1 1 1
          1 1 1 1 1 1 1 1 1 1 1 1
          1 1 1 1 1 1 1 1 1 1 1 1
          1 1 1 1 1 1 1 1 1 1 1 1
          1 1 1 1 1 1 1 1 1 1 1 1
          1 1 1 1 1 1 1 1 1 1 1 1
          1 1 1 1 1 1 1 1 1 1 1 1
          1 1 1 1 1 1 1 1 1 1 1 1
          1 1 1 1 1 1 1 1 1 1 1 1
          1 1 1 1 1 1 1 1 1 1 1 1
          1 1 1 1 1 1 1 1 1 1 1 1
          1 1 1 1 1 1 1 1 1 1 1 1
          1 1 1 1 1 1 1 1 1 1 1 1
          1 1 1 1 1 1 1 1 1 1 1 1
          1 1 1 1 1 1 1 1 1 1 1 1
          1 1 1 1 1 1 1 1 1 1 1 1
          1 1 1 1 1 1 1 1 1 1 1 1
          1 1 1 1 1 1 1 1 1 1 1 1
          1 1 1 1 1 1 1 1 1 1 1 1
          1 1
        </DataArray>
        <DataArray type="Float32" Name="p_liq" NumberOfComponents="1" format="ascii">
          4.348e+07 4.33108e+07 4.35418e+07 4.34539e+07 4.3162e+07 4.3219e+07 4.36543e+07 4.35634e+07 4.30785e+07 4.29418e+07 4.3329e+07 4.28532e+07
          4.25922e+07 4.26327e+07 4.23093e+07 4.22863e+07 4.26765e+07 4.34636e+07 4.37071e+07 4.36148e+07 4.34755e+07 4.3728e+07 4.36478e+07 4.32686e+07
          4.29931e+07 4.2283e+07 4.26259e+07 4.22255e+07 4.19054e+07 4.18523e+07 4.1466e+07 4.13736e+07 4.09726e+07 4.08815e+07 4.04334e+07 4.04129e+07
          3.98421e+07 3.98776e+07 3.91327e+07 3.91875e+07 4.18011e+07 4.12173e+07 4.0724e+07 4.17584e+07 4.03947e+07 4.00003e+07 3.93266e+07 4.0338e+07
          4.07043e+07 3.98785e+07 4.35043e+07 4.3726e+07 4.36769e+07 4.3226e+07 4.29241e+07 4.36353e+07 4.25575e+07 4.21506e+07 4.37177e+07 4.35735e+07
          4.33934e+07 4.31263e+07 4.36915e+07 4.30165e+07 4.32929e+07 4.28161e+07 4.2472e+07 4.20858e+07 4.2695e+07 4.23881e+07 4.12665e+07 4.08896e+07
          4.16927e+07 4.03054e+07 4.06852e+07 3.88931e+07 3.94574e+07 4.1138e+07 4.16912e+07 4.1264e+07 4.0376e+07 3.99119e+07 4.07597e+07 3.90683e+07
          3.94719e+07 3.80353e+07 3.81652e+07 3.73598e+07 3.7452e+07 3.70115e+07 3.69989e+07 3.66806e+07 3.66118e+07 3.63913e+07 3.62598e+07 3.83233e+07
          3.74211e+07 3.69121e+07 3.64839e+07 3.67581e+07 3.72263e+07 3.6295e+07 3.57211e+07 3.5954e+07 3.57074e+07 3.61063e+07 3.53136e+07 3.55021e+07
          3.60831e+07 3.57406e+07 3.49622e+07 3.47855e+07 3.50565e+07 3.46138e+07 3.44645e+07 3.42869e+07 3.41349e+07 3.52557e+07 3.4659e+07 3.48898e+07
          3.43394e+07 3.40034e+07 3.54913e+07 3.58784e+07 3.49731e+07 3.4631e+07 3.51328e+07 3.42646e+07 3.80536e+07 3.70614e+07 3.7734e+07 3.65897e+07
          3.60888e+07 3.85424e+07 3.82326e+07 3.87106e+07 3.74681e+07 3.64784e+07 3.59934e+07 3.6955e+07 3.56442e+07 3.46269e+07 3.41934e+07 3.45811e+07
          3.50485e+07 3.4121e+07 3.55407e+07 3.49974e+07 3.54766e+07 3.45281e+07 3.40478e+07 4.34939e+07 4.3665e+07 4.34046e+07 4.33621e+07 4.31796e+07
          4.29043e+07 4.20374e+07 4.25775e+07 4.23673e+07 4.21266e+07 4.31278e+07 4.28016e+07 4.35822e+07 4.33769e+07 4.30939e+07 4.2361e+07 4.17909e+07
          4.19275e+07 4.16895e+07 4.12833e+07 4.09937e+07 4.09493e+07 4.05638e+07 4.01082e+07 3.99928e+07 3.93928e+07 4.13887e+07 4.09956e+07 4.05271e+07
          4.15165e+07 4.10837e+07 4.05436e+07 3.98839e+07 3.92808e+07 4.34949e+07 4.33288e+07 4.27757e+07 4.30464e+07 4.27415e+07 4.24125e+07 4.20307e+07
          4.24409e+07 4.20934e+07 4.17418e+07 4.16485e+07 4.33981e+07 4.33133e+07 4.31775e+07 4.26636e+07 4.28009e+07 4.33169e+07 4.29564e+07 4.24371e+07
          4.20824e+07 4.24928e+07 4.17069e+07 4.12224e+07 4.08157e+07 4.01791e+07 3.96206e+07 4.04757e+07 3.90467e+07 4.13068e+07 4.08962e+07 4.04211e+07
          4.1248e+07 4.07851e+07 4.02539e+07 3.99472e+07 3.93088e+07 3.85285e+07 3.87969e+07 3.8145e+07 3.87715e+07 3.73727e+07 3.63869e+07 3.59333e+07
          3.68215e+07 3.8086e+07 3.72907e+07 3.87114e+07 3.80791e+07 3.67686e+07 3.58948e+07 3.63167e+07 3.49843e+07 3.54353e+07 3.45097e+07 3.40502e+07
          3.53844e+07 3.58403e+07 3.49592e+07 3.44759e+07 3.4032e+07 3.8664e+07 3.73088e+07 3.82084e+07 3.74362e+07 3.6667e+07 3.62241e+07 3.68263e+07
          3.60139e+07 3.63639e+07 3.75508e+07 3.65457e+07 3.68155e+07 3.6449e+07 3.61667e+07 3.58193e+07 3.56519e+07 3.52301e+07 3.48237e+07 3.43852e+07
          3.39594e+07 3.54542e+07 3.50615e+07 3.46665e+07 3.42821e+07 3.3822e+07 3.44987e+07 3.4252e+07 3.39755e+07 3.39623e+07 3.37855e+07 3.35731e+07
          3.34205e+07 3.31873e+07 3.30049e+07 3.36497e+07 3.26409e+07 3.25333e+07 3.2101e+07 3.20471e+07 3.33193e+07 3.39124e+07 3.35772e+07 3.33526e+07
          3.29023e+07 3.31609e+07 3.2441e+07 3.19169e+07 3.17356e+07 3.16475e+07 3.13731e+07 3.13157e+07 3.1086e+07 3.10177e+07 3.08005e+07 3.06853e+07
          3.04291e+07 3.03937e+07 3.02084e+07 2.99906e+07 3.09838e+07 3.12479e+07 3.05301e+07 3.14921e+07 3.11743e+07 3.14584e+07 3.01395e+07 2.9913e+07
          3.07639e+07 3.38044e+07 3.34388e+07 3.37154e+07 3.33135e+07 3.29958e+07 3.26869e+07 3.2421e+07 3.2135e+07 3.24396e+07 3.36225e+07 3.31464e+07
          3.28214e+07 3.17411e+07 3.19894e+07 3.27089e+07 3.24689e+07 3.09983e+07 3.03791e+07 3.05342e+07 3.13825e+07 3.16092e+07 3.08863e+07 3.11714e+07
          3.00791e+07 3.02622e+07 3.05237e+07 3.01883e+07 2.99307e+07 2.9582e+07 2.93901e+07 2.96937e+07 2.91764e+07 2.90209e+07 2.87885e+07 2.86535e+07
          2.84029e+07 2.82727e+07 2.80714e+07 2.85327e+07 2.92639e+07 2.95097e+07 2.96105e+07 2.92815e+07 2.8903e+07 2.89142e+07 2.85335e+07 2.81373e+07
          2.79493e+07 2.7992e+07 2.74988e+07 2.77543e+07 2.71905e+07 2.7462e+07 2.70231e+07 2.69574e+07 2.65502e+07 2.66591e+07 2.68389e+07 2.77096e+07
          2.78519e+07 2.71943e+07 2.74458e+07 2.62765e+07 2.63809e+07 2.67559e+07 2.70411e+07 2.63788e+07 2.97616e+07 2.93376e+07 2.89587e+07 2.855e+07
          2.80913e+07 2.96679e+07 2.93502e+07 2.89993e+07 2.97877e+07 2.96209e+07 2.93961e+07 2.90518e+07 2.8591e+07 2.82194e+07 2.77091e+07 2.71733e+07
          2.74422e+07 2.6777e+07 2.63287e+07 2.77418e+07 2.79283e+07 2.71452e+07 2.74835e+07 2.65507e+07 2.69016e+07 2.61988e+07 3.36326e+07 3.32346e+07
          3.28361e+07 3.29225e+07 3.21187e+07 3.25646e+07 3.22616e+07 3.36228e+07 3.32678e+07 3.29777e+07 3.26411e+07 3.23981e+07 3.17548e+07 3.19201e+07
          3.26734e+07 3.22908e+07 3.12455e+07 3.087e+07 3.1329e+07 3.0486e+07 3.00517e+07 3.09207e+07 3.13952e+07 3.09624e+07 3.05206e+07 3.01275e+07
          3.0548e+07 3.01718e+07 3.32729e+07 3.35835e+07 3.30597e+07 3.2928e+07 3.31852e+07 3.34784e+07 3.21392e+07 3.24967e+07 3.27909e+07 3.17693e+07
          3.30768e+07 3.3331e+07 3.34381e+07 3.29997e+07 3.26621e+07 3.20001e+07 3.23557e+07 3.16356e+07 3.13327e+07 3.09313e+07 2.98416e+07 2.97727e+07
          3.0535e+07 3.01924e+07 2.99429e+07 3.12352e+07 3.08562e+07 3.01135e+07 3.0468e+07 2.97941e+07 2.95373e+07 2.96918e+07 2.92731e+07 2.85953e+07
          2.82073e+07 2.84757e+07 2.88541e+07 2.80768e+07 2.93906e+07 2.90816e+07 2.90695e+07 2.94299e+07 2.87678e+07 2.83772e+07 2.79506e+07 2.78239e+07
          2.76623e+07 2.72454e+07 2.63584e+07 2.66652e+07 2.75034e+07 2.69658e+07 2.64801e+07 2.6228e+07 2.65469e+07 2.94841e+07 2.90603e+07 2.90395e+07
          2.86906e+07 2.82999e+07 2.78843e+07 2.93374e+07 2.96434e+07 2.89982e+07 2.86324e+07 2.82481e+07 2.86148e+07 2.78479e+07 2.74632e+07 2.7013e+07
          2.61814e+07 2.6601e+07 2.62002e+07 2.74516e+07 2.70541e+07 2.66434e+07 2.62034e+07 4.30611e+07 4.27379e+07 4.31998e+07 4.30251e+07 4.28797e+07
          4.25728e+07 4.22836e+07 4.20534e+07 4.16367e+07 4.19098e+07 4.28129e+07 4.30882e+07 4.29576e+07 4.27231e+07 4.29769e+07 4.29221e+07 4.24076e+07
          4.14927e+07 4.20928e+07 4.17642e+07 4.137e+07 4.11533e+07 4.06347e+07 4.00754e+07 3.96845e+07 3.90119e+07 3.94369e+07 4.10263e+07 4.04934e+07
          4.09203e+07 3.9949e+07 3.87414e+07 3.93058e+07 3.86692e+07 4.2813e+07 4.28797e+07 4.26625e+07 4.2457e+07 4.21386e+07 4.18314e+07 4.16459e+07
          4.13346e+07 4.13979e+07 4.27895e+07 4.25718e+07 4.21611e+07 4.17868e+07 4.27172e+07 4.08811e+07 4.08272e+07 4.03885e+07 3.9864e+07 4.0397e+07
          3.9192e+07 3.85818e+07 3.99273e+07 4.03653e+07 3.99364e+07 3.9475e+07 3.87639e+07 3.84369e+07 3.91482e+07 3.81811e+07 3.7235e+07 3.66329e+07
          3.62908e+07 3.59662e+07 3.56221e+07 3.68384e+07 3.6403e+07 3.61133e+07 3.57924e+07 3.77502e+07 3.79582e+07 3.6466e+07 3.68976e+07 3.61462e+07
          3.5992e+07 3.57181e+07 3.57687e+07 3.5249e+07 3.48752e+07 3.54556e+07 3.50728e+07 3.46933e+07 3.42317e+07 3.36003e+07 3.37765e+07 3.53715e+07
          3.49891e+07 3.46218e+07 3.42347e+07 3.38487e+07 3.74069e+07 3.79819e+07 3.72907e+07 3.64231e+07 3.61482e+07 3.59261e+07 3.56402e+07 3.79865e+07
          3.72645e+07 3.80843e+07 3.64784e+07 3.60011e+07 3.56231e+07 3.6032e+07 3.53242e+07 3.4927e+07 3.45698e+07 3.52693e+07 3.42294e+07 3.38883e+07
          3.41887e+07 3.44946e+07 3.34943e+07 3.34958e+07 3.39448e+07 3.48684e+07 3.5254e+07 3.47859e+07 3.4336e+07 3.37619e+07 3.40532e+07 4.16288e+07
          4.19884e+07 4.16248e+07 4.14091e+07 4.13673e+07 4.07369e+07 4.13394e+07 4.11356e+07 4.10555e+07 4.06251e+07 4.02554e+07 4.00528e+07 3.94834e+07
          3.98665e+07 4.07083e+07 4.03706e+07 3.9268e+07 4.02091e+07 3.98182e+07 3.96238e+07 3.94648e+07 3.89577e+07 3.99747e+07 3.9615e+07 3.92224e+07
          3.79697e+07 3.71797e+07 3.75937e+07 3.68115e+07 3.86921e+07 3.8123e+07 3.89393e+07 3.86513e+07 3.75869e+07 3.73677e+07 3.80074e+07 3.85863e+07
          3.8549e+07 3.84375e+07 3.73968e+07 3.71917e+07 3.65724e+07 3.59605e+07 3.56513e+07 3.50051e+07 3.57335e+07 3.666e+07 3.70084e+07 3.57065e+07
          3.57011e+07 3.56285e+07 3.8229e+07 3.78937e+07 3.73495e+07 3.65331e+07 3.57155e+07 3.68612e+07 3.64857e+07 3.62017e+07 3.53777e+07 3.49279e+07
          3.46345e+07 3.57507e+07 3.49525e+07 3.44449e+07 3.41192e+07 3.35176e+07 3.33368e+07 3.72152e+07 3.6567e+07 3.56284e+07 3.52994e+07 3.59782e+07
          3.55422e+07 3.68164e+07 3.65892e+07 3.6572e+07 3.61954e+07 3.60397e+07 3.52661e+07 3.54224e+07 3.43613e+07 3.44946e+07 3.51093e+07 3.40467e+07
          3.38133e+07 3.35123e+07 3.42027e+07 3.35983e+07 3.32832e+07 3.38357e+07 3.51019e+07 3.43007e+07 3.42351e+07 3.39339e+07 3.36364e+07 3.30579e+07
          3.28612e+07 3.26189e+07 3.58124e+07 3.50692e+07 3.44881e+07 3.4444e+07 3.35202e+07 3.35516e+07 3.40656e+07 3.34315e+07 3.3403e+07 3.31561e+07
          3.26099e+07 3.25918e+07 3.25426e+07 3.32135e+07 3.33906e+07 3.31115e+07 3.25857e+07 3.22617e+07 3.19658e+07 3.23822e+07 3.21294e+07 3.14415e+07
          3.17186e+07 3.11491e+07 3.17149e+07 3.13749e+07 3.11003e+07 3.08074e+07 3.05032e+07 3.32104e+07 3.28348e+07 3.26217e+07 3.24993e+07 3.22154e+07
          3.18449e+07 3.21561e+07 3.16971e+07 3.34021e+07 3.30494e+07 3.2741e+07 3.2455e+07 3.21002e+07 3.18464e+07 3.1518e+07 3.14663e+07 3.10866e+07
          3.07175e+07 3.12932e+07 3.09297e+07 3.03501e+07 2.99804e+07 3.05703e+07 3.11462e+07 3.07973e+07 3.04434e+07 3.02353e+07 2.98098e+07 3.02169e+07
          2.99716e+07 3.32022e+07 3.30649e+07 3.23902e+07 3.27946e+07 3.16441e+07 3.13848e+07 3.17381e+07 3.13652e+07 3.3186e+07 3.25322e+07 3.29285e+07
          3.18333e+07 3.13105e+07 3.10301e+07 3.06742e+07 3.02289e+07 2.93953e+07 2.96391e+07 2.98348e+07 3.1016e+07 3.06806e+07 3.1e+07 3.07243e+07
          3.02963e+07 2.99105e+07 2.93545e+07 2.95723e+07 2.95536e+07 2.92503e+07 2.9462e+07 2.90014e+07 2.82417e+07 2.86346e+07 2.78375e+07 2.91616e+07
          2.87892e+07 2.82666e+07 2.78247e+07 2.84023e+07 2.74424e+07 2.70754e+07 2.67087e+07 2.63902e+07 2.61282e+07 2.59425e+07 2.74048e+07 2.70579e+07
          2.67255e+07 2.64943e+07 2.63298e+07 2.66204e+07 2.89856e+07 2.80441e+07 2.85084e+07 2.81437e+07 2.9229e+07 2.88727e+07 2.84973e+07 2.78313e+07
          2.7828e+07 2.81725e+07 2.7839e+07 2.76086e+07 2.72876e+07 2.69448e+07 2.71924e+07 2.68257e+07 2.60736e+07 2.58516e+07 2.64799e+07 2.7517e+07
          2.71697e+07 2.75074e+07 2.67972e+07 2.643e+07 2.6054e+07 3.20673e+07 3.19971e+07 3.23541e+07 3.13469e+07 3.1148e+07 3.14845e+07 3.12114e+07
          3.16901e+07 3.10007e+07 3.04298e+07 3.09151e+07 3.07531e+07 3.06673e+07 2.99212e+07 2.95118e+07 3.07467e+07 2.99205e+07 2.97406e+07 2.93854e+07
          2.8946e+07 2.90458e+07 3.0821e+07 3.068e+07 3.05399e+07 3.02348e+07 3.02804e+07 2.98663e+07 2.99196e+07 2.98494e+07 2.9555e+07 2.98188e+07
          2.92677e+07 2.9163e+07 2.87858e+07 2.8776e+07 2.8462e+07 2.91444e+07 2.87102e+07 2.82159e+07 2.82015e+07 2.80861e+07 2.79887e+07 2.91835e+07
          2.84336e+07 2.87293e+07 2.82116e+07 2.78297e+07 2.87457e+07 2.84127e+07 2.83173e+07 2.82237e+07 2.83002e+07 2.84303e+07 2.82216e+07 2.77074e+07
          2.80871e+07 2.74809e+07 2.68121e+07 2.71791e+07 2.75093e+07 2.64257e+07 2.59649e+07 2.62058e+07 2.5755e+07 2.57285e+07 2.57206e+07 2.72622e+07
          2.69126e+07 2.65707e+07 2.6647e+07 2.63392e+07 2.59971e+07 2.56583e+07 2.56646e+07 2.84925e+07 2.81776e+07 2.80326e+07 2.807e+07 2.77518e+07
          2.78223e+07 2.75371e+07 2.69413e+07 2.73434e+07 2.69611e+07 2.78525e+07 2.74677e+07 2.76667e+07 2.71172e+07 2.74332e+07 2.70445e+07 2.6794e+07
          2.65258e+07 2.65792e+07 2.64585e+07 2.64163e+07 2.61386e+07 2.58076e+07 2.54964e+07 2.52406e+07 2.52301e+07 2.59778e+07 2.5584e+07 2.611e+07
          2.52691e+07 2.50039e+07 2.6148e+07 2.57474e+07 2.59183e+07 2.54577e+07 2.56065e+07 2.53836e+07 2.51893e+07 2.46677e+07 2.48827e+07 2.46783e+07
          2.50211e+07 2.46515e+07 2.50332e+07 2.60244e+07 2.57192e+07 2.52784e+07 2.53308e+07 2.50038e+07 2.46432e+07 2.43366e+07 2.44423e+07 2.39703e+07
          2.41067e+07 2.36051e+07 2.37893e+07 2.42247e+07 2.32778e+07 2.31184e+07 2.33877e+07 2.29514e+07 2.28365e+07 2.35798e+07 2.26244e+07 2.29719e+07
          2.38691e+07 2.42568e+07 2.38928e+07 2.32676e+07 2.35624e+07 2.3219e+07 2.35517e+07 2.28965e+07 2.60494e+07 2.54152e+07 2.58216e+07 2.59759e+07
          2.5696e+07 2.50079e+07 2.46413e+07 2.55758e+07 2.52845e+07 2.5867e+07 2.49612e+07 2.46263e+07 2.42663e+07 2.38934e+07 2.35327e+07 2.31774e+07
          2.2837e+07 2.42802e+07 2.3902e+07 2.35294e+07 2.31591e+07 2.27996e+07 2.26612e+07 2.26751e+07 2.24722e+07 2.23995e+07 2.2108e+07 2.21809e+07
          2.22515e+07 2.18924e+07 2.19493e+07 2.18171e+07 2.15054e+07 2.1574e+07 2.11945e+07 2.12893e+07 2.16091e+07 2.13257e+07 2.10279e+07 2.10552e+07
          2.22034e+07 2.2558e+07 2.18766e+07 2.12374e+07 2.10473e+07 2.15274e+07 2.09862e+07 2.07783e+07 2.07812e+07 2.05673e+07 2.05179e+07 2.03566e+07
          2.02371e+07 2.07959e+07 2.04862e+07 2.00956e+07 1.99832e+07 1.99377e+07 1.95206e+07 1.97751e+07 1.92229e+07 1.95084e+07 2.08495e+07 2.05312e+07
          2.09998e+07 2.01956e+07 1.97708e+07 1.99283e+07 1.92652e+07 1.95407e+07 2.24895e+07 2.21276e+07 2.17666e+07 2.13864e+07 2.12299e+07 2.16146e+07
          2.08844e+07 2.2422e+07 2.20321e+07 2.19642e+07 2.23814e+07 2.14479e+07 2.10346e+07 2.05938e+07 2.02021e+07 2.06334e+07 2.0422e+07 1.98186e+07
          1.95703e+07 1.92933e+07 2.06833e+07 2.01604e+07 1.98899e+07 1.96025e+07 1.92799e+07 2.57343e+07 2.60489e+07 2.54558e+07 2.51899e+07 2.49262e+07
          2.46381e+07 2.5088e+07 2.49165e+07 2.53252e+07 2.47355e+07 2.44845e+07 2.43262e+07 2.59312e+07 2.56053e+07 2.51519e+07 2.54428e+07 2.58426e+07
          2.49185e+07 2.46741e+07 2.49126e+07 2.39327e+07 2.35236e+07 2.31488e+07 2.27801e+07 2.42022e+07 2.43902e+07 2.38094e+07 2.3498e+07 2.40268e+07
          2.31585e+07 2.28001e+07 2.28466e+07 2.31919e+07 2.58324e+07 2.5484e+07 2.52395e+07 2.51302e+07 2.46945e+07 2.49057e+07 2.43611e+07 2.45795e+07
          2.51044e+07 2.54081e+07 2.58029e+07 2.46832e+07 2.4843e+07 2.44135e+07 2.50354e+07 2.45492e+07 2.40687e+07 2.37929e+07 2.35002e+07 2.40898e+07
          2.32275e+07 2.35126e+07 2.25634e+07 2.29055e+07 2.24789e+07 2.37974e+07 2.41319e+07 2.38002e+07 2.35248e+07 2.29843e+07 2.32798e+07 2.26648e+07
          2.24153e+07 2.20246e+07 2.16248e+07 2.0823e+07 2.11496e+07 2.20943e+07 2.17028e+07 2.13814e+07 2.13702e+07 2.10166e+07 2.04545e+07 2.01782e+07
          1.98755e+07 1.90248e+07 1.93087e+07 1.95522e+07 2.06534e+07 1.97431e+07 1.92817e+07 1.90648e+07 1.94073e+07 2.21894e+07 2.18077e+07 2.14351e+07
          2.10444e+07 2.22933e+07 2.19193e+07 2.1519e+07 2.20034e+07 2.16025e+07 2.11137e+07 2.07151e+07 2.06622e+07 2.12144e+07 2.08136e+07 2.0236e+07
          1.98407e+07 1.9119e+07 1.9103e+07 1.94707e+07 1.91504e+07 2.03017e+07 1.99136e+07 2.04224e+07 1.9481e+07 1.91278e+07 1.90429e+07 1.89875e+07
          1.85675e+07 1.8697e+07 1.88886e+07 1.82402e+07 1.83579e+07 1.79137e+07 1.80375e+07 1.77194e+07 1.77786e+07 1.81098e+07 1.7819e+07 1.84572e+07
          1.91372e+07 1.88534e+07 1.84783e+07 1.81368e+07 1.7835e+07 1.75536e+07 1.75634e+07 1.75252e+07 1.75385e+07 1.73015e+07 1.73006e+07 1.7078e+07
          1.70575e+07 1.67579e+07 1.67804e+07 1.73047e+07 1.706e+07 1.68016e+07 1.64381e+07 1.65044e+07 1.61489e+07 1.62184e+07 1.58599e+07 1.5954e+07
          1.65509e+07 1.62663e+07 1.60106e+07 1.73062e+07 1.70535e+07 1.6793e+07 1.62406e+07 1.59722e+07 1.65321e+07 1.89163e+07 1.84657e+07 1.78206e+07
          1.75573e+07 1.81209e+07 1.77614e+07 1.75348e+07 1.86982e+07 1.83563e+07 1.80316e+07 1.76587e+07 1.75119e+07 1.78915e+07 1.73029e+07 1.70453e+07
          1.67848e+07 1.73113e+07 1.70601e+07 1.6794e+07 1.65071e+07 1.61919e+07 1.58218e+07 1.64958e+07 1.61735e+07 1.58299e+07 1.73474e+07 1.71081e+07
          1.74645e+07 1.6835e+07 1.65207e+07 1.61762e+07 1.57526e+07 1.56534e+07 1.57007e+07 1.54471e+07 1.54467e+07 1.52166e+07 1.51558e+07 1.57486e+07
          1.54856e+07 1.49863e+07 1.4807e+07 1.45818e+07 1.44052e+07 1.5772e+07 1.51529e+07 1.55952e+07 1.52902e+07 1.46965e+07 1.4232e+07 1.41788e+07
          1.40006e+07 1.36743e+07 1.36124e+07 1.37484e+07 1.3408e+07 1.31034e+07 1.29922e+07 1.31473e+07 1.26055e+07 1.29294e+07 1.37267e+07 1.40922e+07
          1.33764e+07 1.34736e+07 1.31275e+07 1.27931e+07 1.25721e+07 1.2882e+07 1.54629e+07 1.55693e+07 1.49497e+07 1.51738e+07 1.44198e+07 1.46517e+07
          1.54151e+07 1.48757e+07 1.51447e+07 1.4252e+07 1.43615e+07 1.45224e+07 1.39896e+07 1.3595e+07 1.33188e+07 1.25387e+07 1.30665e+07 1.28185e+07
          1.402e+07 1.36678e+07 1.32464e+07 1.33423e+07 1.25099e+07 1.26847e+07 1.2969e+07 1.2726e+07 1.82299e+07 1.85153e+07 1.88132e+07 1.76267e+07
          1.81766e+07 1.79325e+07 1.84168e+07 1.77485e+07 1.86707e+07 1.89083e+07 1.83271e+07 1.85447e+07 1.88077e+07 1.81269e+07 1.79214e+07 1.7686e+07
          1.73999e+07 1.80799e+07 1.79167e+07 1.81962e+07 1.76519e+07 1.73625e+07 1.72254e+07 1.69177e+07 1.70128e+07 1.65972e+07 1.62466e+07 1.58918e+07
          1.66811e+07 1.70156e+07 1.66906e+07 1.63213e+07 1.59828e+07 1.83645e+07 1.88843e+07 1.85352e+07 1.81818e+07 1.83057e+07 1.798e+07 1.76424e+07
          1.7336e+07 1.78578e+07 1.75652e+07 1.86389e+07 1.89258e+07 1.8385e+07 1.87513e+07 1.89397e+07 1.84928e+07 1.80359e+07 1.80682e+07 1.78118e+07
          1.81105e+07 1.75037e+07 1.69971e+07 1.66769e+07 1.63553e+07 1.60304e+07 1.63795e+07 1.57027e+07 1.56441e+07 1.72578e+07 1.69248e+07 1.66138e+07
          1.718e+07 1.64037e+07 1.60854e+07 1.57799e+07 1.62184e+07 1.54078e+07 1.55513e+07 1.48802e+07 1.51449e+07 1.40611e+07 1.5262e+07 1.46644e+07
          1.43572e+07 1.39804e+07 1.48949e+07 1.37026e+07 1.34028e+07 1.30521e+07 1.2481e+07 1.31278e+07 1.27638e+07 1.2455e+07 1.36452e+07 1.34312e+07
          1.34524e+07 1.32456e+07 1.28224e+07 1.29739e+07 1.24289e+07 1.53297e+07 1.4973e+07 1.50118e+07 1.47414e+07 1.45248e+07 1.47236e+07 1.42214e+07
          1.4441e+07 1.41209e+07 1.53576e+07 1.54029e+07 1.5016e+07 1.47081e+07 1.43937e+07 1.4689e+07 1.4053e+07 1.38579e+07 1.3781e+07 1.34218e+07
          1.31002e+07 1.27275e+07 1.28838e+07 1.24071e+07 1.26336e+07 1.31082e+07 1.37227e+07 1.33751e+07 1.30722e+07 1.28387e+07 1.23854e+07 1.2561e+07
          1.27484e+07 2.57513e+07 2.55081e+07 2.56659e+07 2.51769e+07 2.46963e+07 2.42527e+07 2.43674e+07 2.53382e+07 2.48252e+07 2.44721e+07 2.49622e+07
          2.39624e+07 2.36136e+07 2.34856e+07 2.4075e+07 2.37377e+07 2.33182e+07 2.30494e+07 2.27419e+07 2.34194e+07 2.31517e+07 2.28316e+07 2.23653e+07
          2.24236e+07 2.38546e+07 2.35203e+07 2.41705e+07 2.39793e+07 2.39116e+07 2.36426e+07 2.32635e+07 2.33454e+07 2.30361e+07 2.31554e+07 2.23801e+07
          2.2671e+07 2.28696e+07 2.55343e+07 2.56874e+07 2.52611e+07 2.45266e+07 2.41779e+07 2.45182e+07 2.48857e+07 2.41575e+07 2.57357e+07 2.5414e+07
          2.5482e+07 2.52052e+07 2.5122e+07 2.49905e+07 2.4554e+07 2.40587e+07 2.33083e+07 2.35838e+07 2.38647e+07 2.30613e+07 2.25823e+07 2.2708e+07
          2.29137e+07 2.24595e+07 2.23708e+07 2.37984e+07 2.3243e+07 2.3526e+07 2.3216e+07 2.34832e+07 2.2611e+07 2.29497e+07 2.27406e+07 2.23152e+07
          2.26781e+07 2.20712e+07 2.16749e+07 2.13026e+07 2.09026e+07 2.20551e+07 2.16846e+07 2.13119e+07 2.09326e+07 2.00521e+07 2.05338e+07 2.01792e+07
          1.96935e+07 1.91888e+07 1.94001e+07 1.98523e+07 2.06028e+07 2.02865e+07 2.00023e+07 1.95801e+07 1.89259e+07 1.9137e+07 2.20569e+07 2.16983e+07
          2.21387e+07 2.17669e+07 2.12825e+07 2.09129e+07 2.06262e+07 2.0554e+07 2.07728e+07 2.14223e+07 2.18132e+07 2.14733e+07 2.10201e+07 2.11892e+07
          2.1257e+07 2.06031e+07 2.08045e+07 2.03598e+07 2.0128e+07 2.03903e+07 2.02589e+07 1.9744e+07 1.99069e+07 1.93289e+07 1.94924e+07 1.88825e+07
          1.9099e+07 2.04168e+07 2.01073e+07 2.02816e+07 2.00171e+07 1.96649e+07 1.92745e+07 1.86348e+07 1.88549e+07 1.92481e+07 2.52723e+07 2.55301e+07
          2.52785e+07 2.51439e+07 2.51146e+07 2.44936e+07 2.38479e+07 2.51102e+07 2.5172e+07 2.52008e+07 2.48411e+07 2.47932e+07 2.44852e+07 2.38453e+07
          2.44549e+07 2.39904e+07 2.36846e+07 2.35954e+07 2.37228e+07 2.34445e+07 2.31811e+07 2.29211e+07 2.2253e+07 2.24715e+07 2.32722e+07 2.27412e+07
          2.29517e+07 2.1978e+07 2.23529e+07 2.47848e+07 2.4775e+07 2.43494e+07 2.44e+07 2.39794e+07 2.35309e+07 2.4304e+07 2.44945e+07 2.47321e+07
          2.42563e+07 2.37864e+07 2.39071e+07 2.34521e+07 2.305e+07 2.30614e+07 2.30042e+07 2.27674e+07 2.25793e+07 2.22018e+07 2.21217e+07 2.18151e+07
          2.23639e+07 2.25433e+07 2.26295e+07 2.17485e+07 2.19396e+07 2.16532e+07 2.2008e+07 2.14949e+07 2.17796e+07 2.11349e+07 2.10712e+07 2.04498e+07
          2.054e+07 2.07896e+07 2.07985e+07 2.04661e+07 2.18706e+07 2.149e+07 2.11039e+07 2.07566e+07 2.04367e+07 2.01801e+07 2.03611e+07 1.97208e+07
          1.97254e+07 1.94543e+07 1.90457e+07 1.85227e+07 1.9978e+07 2.02057e+07 1.96854e+07 1.93517e+07 1.89383e+07 1.84287e+07 1.93347e+07 1.89578e+07
          2.14846e+07 2.10743e+07 2.14198e+07 2.10253e+07 2.07008e+07 2.03201e+07 2.13444e+07 2.09262e+07 2.05283e+07 2.06507e+07 2.03411e+07 2.00342e+07