<?xml version="1.0"?>
<VTKFile type="UnstructuredGrid" version="0.1" byte_order="LittleEndian">
  <UnstructuredGrid>
    <Piece NumberOfCells="728" NumberOfPoints="783">
      <CellData Scalars="p">
        <DataArray type="Float32" Name="p" NumberOfComponents="1" format="ascii">
          100000 100000 100000 100000 100000 100000 100000 100000 100000 100000 100000 100000
          100000 100000 100000 100000 100000 100000 100000 100000 100000 100000 100000 100000
          100000 100000 100000 100000 100000 100000 100000 100000 100000 100000 100000 100000
          100000 100000 100000 100000 100000 100000 100000 100000 100000 100000 100000 100000
          100000 100000 100000 100000 100000 100000 100000 100000 100000 100000 100000 100000
          100000 100000 100000 100000 100000 100000 100000 100000 100000 100000 100000 100000
          100000 100000 100000 100000 100000 100000 100000 100000 100000 100000 100000 100000
          100000 100000 100000 100000 100000 100000 100000 100000 100000 100000 100000 100000
          100000 100000 100000 100000 100000 100000 100000 100000 100000 100000 100000 100000
          100000 100000 100000 100000 100000 100000 100000 100000 100000 100000 100000 100000
          100000 100000 100000 100000 100000 100000 100000 100000 100000 100000 100000 100000
          100000 100000 100000 100000 100000 100000 100000 100000 100000 100000 100000 100000
          100000 100000 100000 100000 100000 100000 100000 100000 100000 100000 100000 100000
          100000 100000 100000 100000 100000 100000 100000 100000 100000 100000 100000 100000
          100000 100000 100000 100000 100000 100000 100000 100000 100000 100000 100000 100000
          100000 100000 100000 100000 100000 100000 100000 100000 100000 100000 100000 100000
          100000 100000 100000 100000 100000 100000 100000 100000 100000 100000 100000 100000
          100000 100000 100000 100000 100000 100000 100000 100000 100000 100000 100000 100000
          100000 100000 100000 100000 100000 100000 100000 100000 100000 100000 100000 100000
          100000 100000 100000 100000 100000 100000 100000 100000 100000 100000 100000 100000
          100000 100000 100000 100000 100000 100000 100000 100000 100000 100000 100000 100000
          100000 100000 100000 100000 100000 100000 100000 100000 100000 100000 100000 100000
          100000 100000 100000 100000 100000 100000 100000 100000 100000 100000 100000 100000
          100000 100000 100000 100000 100000 100000 100000 100000 100000 100000 100000 100000
          100000 100000 100000 100000 100000 100000 100000 100000 100000 100000 100000 100000
          100000 100000 100000 100000 100000 100000 100000 100000 100000 100000 100000 100000
          100000 100000 100000 100000 100000 100000 100000 100000 100000 100000 100000 100000
          100000 100000 100000 100000 100000 100000 100000 100000 100000 100000 100000 100000
          100000 100000 100000 100000 100000 100000 100000 100000 100000 100000 100000 100000
          100000 100000 100000 100000 100000 100000 100000 100000 100000 100000 100000 100000
          100000 100000 100000 100000 100000 100000 100000 100000 100000 100000 100000 100000
          100000 100000 100000 100000 100000 100000 100000 100000 100000 100000 100000 100000
          100000 100000 100000 100000 100000 100000 100000 100000 100000 100000 100000 100000
          100000 100000 100000 100000 100000 100000 100000 100000 100000 100000 100000 100000
          100000 100000 100000 100000 100000 100000 100000 100000 100000 100000 100000 100000
          100000 100000 100000 100000 100000 100000 100000 100000 100000 100000 100000 100000
          100000 100000 100000 100000 100000 100000 100000 100000 100000 100000 100000 100000
          100000 100000 100000 100000 100000 100000 100000 100000 100000 100000 100000 100000
          100000 100000 100000 100000 100000 100000 100000 100000 100000 100000 100000 100000
          100000 100000 100000 100000 100000 100000 100000 100000 100000 100000 100000 100000
          100000 100000 100000 100000 100000 100000 100000 100000 100000 100000 100000 100000
          100000 100000 100000 100000 100000 100000 100000 100000 100000 100000 100000 100000
          100000 100000 100000 100000 100000 100000 100000 100000 100000 100000 100000 100000
          100000 100000 100000 100000 100000 100000 100000 100000 100000 100000 100000 100000
          100000 100000 100000 100000 100000 100000 100000 100000 100000 100000 100000 100000
          100000 100000 100000 100000 100000 100000 100000 100000 100000 100000 100000 100000
          100000 100000 100000 100000 100000 100000 100000 100000 100000 100000 100000 100000
          100000 100000 100000 100000 100000 100000 100000 100000 100000 100000 100000 100000
          100000 100000 100000 100000 100000 100000 100000 100000 100000 100000 100000 100000
          100000 100000 100000 100000 100000 100000 100000 100000 100000 100000 100000 100000
          100000 100000 100000 100000 100000 100000 100000 100000 100000 100000 100000 100000
          100000 100000 100000 100000 100000 100000 100000 100000 100000 100000 100000 100000
          100000 100000 100000 100000 100000 100000 100000 100000 100000 100000 100000 100000
          100000 100000 100000 100000 100000 100000 100000 100000 100000 100000 100000 100000
          100000 100000 100000 100000 100000 100000 100000 100000 100000 100000 100000 100000
          100000 100000 100000 100000 100000 100000 100000 100000 100000 100000 100000 100000
          100000 100000 100000 100000 100000 100000 100000 100000 100000 100000 100000 100000
          100000 100000 100000 100000 100000 100000 100000 100000 100000 100000 100000 100000
          100000 100000 100000 100000 100000 100000 100000 100000 100000 100000 100000 100000
          100000 100000 100000 100000 100000 100000 100000 100000 100000 100000 100000 100000
          100000 100000 100000 100000 100000 100000 100000 100000
        </DataArray>
        <DataArray type="Float32" Name="rho" NumberOfComponents="1" format="ascii">
          952.506 952.506 955.617 955.617 958.651 958.651 958.652 958.651 955.618 952.507 952.507 955.618
          955.618 952.507 958.652 958.652 958.652 952.507 955.618 955.618 952.507 961.607 961.607 964.473
          964.473 967.258 967.257 967.257 964.472 961.607 967.256 967.256 961.606 964.472 964.472 961.606
          964.472 961.607 961.606 964.472 967.256 967.257 969.767 972.02 972.02 969.767 969.768 972.02
          972.02 969.768 974.207 976.328 976.328 974.207 976.328 974.207 974.207 976.328 978.381 978.38
          980.363 982.274 982.274 980.363 980.363 982.274 982.274 980.363 978.381 978.381 978.381 982.274
          980.363 980.363 982.274 982.274 980.364 978.381 978.381 976.329 974.208 974.208 976.329 974.208
          976.328 972.02 969.768 969.769 972.021 972.021 969.769 969.77 972.022 972.023 969.771 969.772
          972.024 972.025 969.774 974.211 976.331 976.33 974.21 976.329 974.209 974.21 976.33 978.382
          978.382 980.364 982.274 982.274 980.364 980.364 982.274 982.274 980.364 978.382 978.382 978.383
          982.274 980.364 980.364 982.274 982.274 980.365 978.383 978.383 976.332 974.213 974.214 976.332
          974.212 976.331 972.027 969.776 969.78 972.029 972.031 969.786 967.263 964.477 961.61 961.61
          964.478 964.479 961.611 967.265 967.267 961.609 961.609 964.476 964.475 967.262 967.26 967.259
          967.259 964.475 964.474 961.608 961.608 952.507 955.618 955.618 952.507 958.652 958.653 958.653
          958.654 952.507 955.619 955.619 952.507 952.507 955.619 958.654 958.654 958.654 955.619 955.619
          952.507 952.507 952.507 952.507 955.618 955.618 958.652 958.652 958.652 958.652 955.618 955.618
          952.507 952.507 955.618 952.507 952.506 952.506 955.617 955.617 958.651 958.651 958.651 967.256
          967.256 967.256 961.606 961.606 964.472 964.472 964.472 961.606 964.472 961.607 961.607 964.472
          967.257 967.257 967.258 967.257 964.473 961.607 961.607 964.473 967.259 967.259 967.26 964.475
          961.609 961.608 964.475 964.474 961.608 958.653 958.652 955.618 952.507 952.507 955.618 955.619
          952.507 958.653 958.654 958.654 955.619 952.507 952.507 955.619 955.619 952.507 952.507 955.619
          958.654 958.654 964.476 964.477 961.61 961.609 967.263 967.262 967.267 967.265 961.611 961.61
          964.478 964.479 969.77 972.022 972.023 969.771 969.772 972.024 974.21 976.33 976.33 974.21
          974.209 976.329 978.382 978.382 980.364 982.274 982.274 980.364 980.364 982.274 978.382 978.383
          978.382 980.364 982.274 982.274 980.364 980.364 982.274 982.274 980.365 978.383 978.383 974.211
          974.212 976.331 976.331 972.025 972.027 969.776 969.774 969.786 969.78 972.029 972.031 976.332
          976.332 974.213 974.214 972.02 969.768 969.767 969.767 972.02 972.02 976.328 976.328 974.207
          974.207 974.207 976.328 976.328 976.328 974.208 974.207 972.02 969.768 969.768 972.02 972.021
          969.769 969.769 972.021 974.208 976.329 976.329 974.208 978.381 978.381 980.363 982.274 982.274
          980.363 980.363 982.274 982.274 980.364 978.381 978.381 978.38 978.381 978.381 980.363 982.274
          980.363 980.363 982.274 982.274 998.107 998.106 998.885 998.886 999.47 999.47 999.47 999.47
          998.885 998.885 998.106 998.106 997.149 997.149 996.012 994.72 994.721 996.013 996.013 994.722
          994.722 996.013 997.149 997.149 996.012 994.72 997.149 997.149 997.148 994.719 996.011 996.011
          994.718 998.106 998.885 998.885 998.106 998.885 998.106 999.47 999.47 999.47 994.723 996.014
          996.014 994.722 994.723 996.014 997.15 997.15 997.15 998.107 998.107 998.886 998.886 999.47
          999.47 999.47 998.886 998.107 998.886 998.107 998.107 998.886 999.47 999.47 999.47 999.47
          998.886 998.886 998.107 998.107 997.15 997.15 997.15 997.15 996.014 994.723 994.723 996.014
          996.014 996.014 994.723 994.723 984.11 985.869 985.869 984.11 987.548 987.548 989.144 989.144
          989.144 989.144 987.548 987.548 984.11 985.869 985.869 984.11 990.654 990.654 990.654 990.654
          992.074 992.074 993.399 993.399 992.074 992.074 993.399 993.399 993.399 992.074 993.398 993.398
          992.073 992.073 990.653 990.654 990.654 985.868 984.109 987.548 989.144 989.144 989.144 987.547
          987.548 984.109 985.868 985.868 984.109 989.143 989.143 987.547 987.547 985.868 984.109 984.109
          985.868 985.868 984.109 984.109 985.868 987.546 987.547 989.143 989.142 990.652 990.651 992.071
          993.396 993.396 992.071 992.072 993.397 993.398 992.073 990.653 990.653 992.07 993.394 990.651
          990.65 990.65 993.392 992.068 992.067 993.388 989.141 987.546 987.546 989.141 987.546 989.142
          985.868 984.109 984.109 985.867 985.867 984.109 984.109 985.867 985.867 984.109 984.109 984.109
          985.868 985.868 989.142 989.142 987.546 987.546 987.546 987.546 989.141 989.141 990.651 990.651
          990.65 990.65 992.068 992.067 993.388 993.392 993.394 992.07 992.071 993.396 992.071 993.396
          993.397 993.398 992.073 992.072 990.653 990.653 990.652 989.143 989.143 987.547 987.547 987.547
          989.143 985.868 984.109 984.109 985.868 985.868 984.109 984.109 984.109 985.868 985.868 987.548
          989.144 989.144 987.547 987.548 989.144 989.144 987.548 985.869 985.868 984.109 984.11 985.869
          984.11 984.11 984.11 985.869 985.869 989.144 989.144 987.548 987.548 987.548 989.144 992.074
          993.399 993.399 993.399 992.074 992.074 990.654 990.654 990.654 990.654 990.654 993.399 993.399
          992.074 992.074 992.073 992.073 993.398 993.398 990.654 990.653 999.47 999.47 999.47 999.47
          998.886 998.886 998.107 998.107 998.107 998.886 998.886 998.107 999.47 999.47 999.47 998.886
          998.886 998.107 998.107 998.107 998.886 997.15 997.15 997.15 996.014 994.723 996.014 996.014
          994.723 994.723 994.723 994.723 996.014 996.014 997.15 997.15 997.15 997.15 996.014 996.014
          994.723 994.722 994.721 996.013 997.149 997.149 997.149 996.013 996.013 994.722 994.722 997.149
          997.149 996.012 994.72 994.72 996.012 996.011 994.719 994.718 996.011 997.148 997.149 999.47
          999.47 998.885 998.885 998.106 998.106 998.106 998.106 998.885 998.885 999.47 999.47 999.47
          998.885 998.106 998.106 998.885 998.886 998.107 999.47 999.47
        </DataArray>
        <DataArray type="Float32" Name="mu" NumberOfComponents="1" format="ascii">
          0.000259898 0.000259898 0.000270958 0.000270958 0.000282877 0.000282877 0.000282878 0.000282878 0.000270958 0.000259898 0.000259898 0.000270958
          0.000270959 0.000259898 0.000282879 0.00028288 0.000282881 0.000259899 0.000270959 0.00027096 0.000259899 0.00029576 0.000295762 0.000309839
          0.000309837 0.000325113 0.00032511 0.000325107 0.000309835 0.000295759 0.000325102 0.000325103 0.000295756 0.000309831 0.000309831 0.000295756
          0.000309833 0.000295757 0.000295757 0.000309832 0.000325104 0.000325105 0.000340474 0.000355813 0.000355814 0.000340475 0.000340476 0.000355815
          0.000355817 0.000340477 0.000372387 0.000390324 0.000390322 0.000372385 0.000390321 0.000372384 0.000372384 0.000390321 0.00040978 0.00040978
          0.000430938 0.000454001 0.000454001 0.000430939 0.000430939 0.000454001 0.000454001 0.00043094 0.000409782 0.000409781 0.000409784 0.000454002
          0.000430941 0.000430942 0.000454002 0.000454003 0.000430943 0.000409788 0.000409785 0.000390328 0.000372392 0.000372395 0.000390331 0.000372389
          0.000390326 0.000355819 0.00034048 0.000340482 0.000355822 0.000355825 0.000340486 0.000340491 0.00035583 0.000355836 0.000340497 0.000340505
          0.000355843 0.000355853 0.000340515 0.000372418 0.000390348 0.000390343 0.000372411 0.000390334 0.000372399 0.000372405 0.000390338 0.000409793
          0.00040979 0.000430945 0.000454003 0.000454004 0.000430947 0.000430949 0.000454005 0.000454005 0.000430951 0.0004098 0.000409796 0.000409803
          0.000454006 0.000430952 0.000430954 0.000454006 0.000454006 0.000430954 0.000409807 0.000409805 0.000390357 0.000372433 0.000372438 0.00039036
          0.000372425 0.000390353 0.000355864 0.00034053 0.000340554 0.000355878 0.000355892 0.000340598 0.000325146 0.00030986 0.000295774 0.000295776
          0.000309864 0.000309868 0.000295778 0.000325157 0.000325167 0.000295769 0.000295772 0.000309855 0.00030985 0.000325136 0.000325128 0.000325122
          0.000325117 0.000309846 0.000309842 0.000295764 0.000295766 0.000259899 0.00027096 0.000270961 0.000259899 0.000282882 0.000282883 0.000282885
          0.000282886 0.000259899 0.000270962 0.000270962 0.0002599 0.0002599 0.000270963 0.000282887 0.000282888 0.000282889 0.000270964 0.000270963
          0.0002599 0.0002599 0.000259899 0.000259899 0.000270959 0.00027096 0.00028288 0.000282881 0.000282878 0.000282879 0.000270958 0.000270959
          0.000259898 0.000259898 0.000270958 0.000259898 0.000259898 0.000259898 0.000270958 0.000270958 0.000282877 0.000282877 0.000282878 0.000325104
          0.000325103 0.000325102 0.000295756 0.000295756 0.000309831 0.000309831 0.000309832 0.000295757 0.000309833 0.000295757 0.000295759 0.000309835
          0.000325107 0.000325105 0.000325113 0.00032511 0.000309837 0.00029576 0.000295762 0.000309839 0.000325117 0.000325122 0.000325128 0.00030985
          0.000295769 0.000295766 0.000309846 0.000309842 0.000295764 0.000282883 0.000282882 0.00027096 0.000259899 0.000259899 0.000270961 0.000270962
          0.000259899 0.000282885 0.000282886 0.000282887 0.000270962 0.0002599 0.0002599 0.000270963 0.000270963 0.0002599 0.0002599 0.000270964
          0.000282888 0.000282889 0.000309855 0.00030986 0.000295774 0.000295772 0.000325146 0.000325136 0.000325167 0.000325157 0.000295778 0.000295776
          0.000309864 0.000309868 0.000340491 0.00035583 0.000355836 0.000340497 0.000340505 0.000355843 0.000372411 0.000390343 0.000390338 0.000372405
          0.000372399 0.000390334 0.00040979 0.000409793 0.000430945 0.000454003 0.000454004 0.000430947 0.000430949 0.000454005 0.000409796 0.000409803
          0.0004098 0.000430951 0.000454005 0.000454006 0.000430952 0.000430954 0.000454006 0.000454006 0.000430954 0.000409805 0.000409807 0.000372418
          0.000372425 0.000390353 0.000390348 0.000355853 0.000355864 0.00034053 0.000340515 0.000340598 0.000340554 0.000355878 0.000355892 0.00039036
          0.000390357 0.000372433 0.000372438 0.000355815 0.000340476 0.000340475 0.000340474 0.000355813 0.000355814 0.000390321 0.000390321 0.000372384
          0.000372384 0.000372385 0.000390322 0.000390324 0.000390326 0.000372389 0.000372387 0.000355817 0.000340477 0.00034048 0.000355819 0.000355822
          0.000340482 0.000340486 0.000355825 0.000372392 0.000390328 0.000390331 0.000372395 0.000409784 0.000409782 0.00043094 0.000454001 0.000454002
          0.000430941 0.000430942 0.000454002 0.000454003 0.000430943 0.000409785 0.000409788 0.00040978 0.00040978 0.000409781 0.000430939 0.000454001
          0.000430938 0.000430939 0.000454001 0.000454001 0.000992416 0.000992405 0.00110264 0.00110265 0.00123346 0.00123345 0.00123345 0.00123345
          0.00110262 0.00110263 0.000992393 0.000992381 0.000898578 0.000898596 0.000819147 0.000750561 0.000750592 0.00081917 0.000819189 0.000750617
          0.000750636 0.000819207 0.000898613 0.000898628 0.000819123 0.000750524 0.000898561 0.000898547 0.000898539 0.000750481 0.000819101 0.000819086
          0.000750441 0.000992362 0.00110261 0.00110261 0.000992357 0.00110262 0.00099237 0.00123345 0.00123345 0.00123344 0.000750675 0.000819243
          0.000819221 0.000750652 0.000750665 0.000819233 0.000898642 0.000898654 0.000898663 0.000992427 0.000992436 0.00110266 0.00110265 0.00123346
          0.00123346 0.00123346 0.00110266 0.000992444 0.00110267 0.00099245 0.000992454 0.00110267 0.00123347 0.00123347 0.00123347 0.00123347
          0.00110267 0.00110267 0.000992457 0.000992459 0.000898676 0.000898671 0.00089868 0.000898682 0.000819259 0.000750691 0.000750693 0.000819261
          0.00081925 0.000819256 0.000750688 0.000750682 0.000479205 0.000506826 0.000506826 0.000479205 0.000537187 0.000537188 0.000570669 0.000570668
          0.000570667 0.000570664 0.000537184 0.000537186 0.000479205 0.000506825 0.000506824 0.000479204 0.000607714 0.000607717 0.000607719 0.00060772
          0.000648876 0.000648877 0.000694782 0.00069478 0.000648873 0.000648869 0.000694772 0.000694777 0.000694765 0.000648863 0.000694756 0.000694744
          0.000648845 0.000648855 0.000607695 0.000607703 0.000607709 0.000506823 0.000479204 0.000537182 0.000570661 0.000570656 0.000570651 0.000537176
          0.000537179 0.000479203 0.000506822 0.00050682 0.000479203 0.000570644 0.000570637 0.000537167 0.000537172 0.000506817 0.000479202 0.000479202
          0.000506815 0.000506813 0.000479201 0.0004792 0.00050681 0.000537157 0.000537162 0.000570628 0.000570619 0.00060766 0.000607644 0.000648771
          0.00069465 0.000694684 0.000648796 0.000648816 0.000694709 0.000694729 0.000648832 0.000607674 0.000607685 0.00064874 0.000694602 0.000607627
          0.000607598 0.00060761 0.000694524 0.000648702 0.000648666 0.000694382 0.000570601 0.000537148 0.000537146 0.000570596 0.000537152 0.000570609
          0.000506808 0.000479199 0.000479199 0.000506806 0.000506805 0.000479199 0.000479199 0.000506805 0.000506806 0.000479199 0.000479199 0.0004792
          0.00050681 0.000506808 0.000570609 0.000570619 0.000537157 0.000537152 0.000537148 0.000537146 0.000570596 0.000570601 0.000607644 0.000607627
          0.00060761 0.000607598 0.000648702 0.000648666 0.000694382 0.000694524 0.000694602 0.00064874 0.000648771 0.00069465 0.000648796 0.000694684
          0.000694709 0.000694729 0.000648832 0.000648816 0.000607685 0.000607674 0.00060766 0.000570637 0.000570644 0.000537172 0.000537167 0.000537162
          0.000570628 0.000506813 0.000479201 0.000479202 0.000506815 0.000506817 0.000479202 0.000479203 0.000479203 0.000506822 0.00050682 0.000537179
          0.000570656 0.000570651 0.000537176 0.000537184 0.000570664 0.000570661 0.000537182 0.000506824 0.000506823 0.000479204 0.000479204 0.000506825
          0.000479205 0.000479205 0.000479205 0.000506826 0.000506826 0.000570668 0.000570669 0.000537188 0.000537187 0.000537186 0.000570667 0.000648873
          0.000694777 0.00069478 0.000694782 0.000648877 0.000648876 0.00060772 0.000607719 0.000607717 0.000607714 0.000607709 0.000694765 0.000694772
          0.000648869 0.000648863 0.000648855 0.000648845 0.000694744 0.000694756 0.000607703 0.000607695 0.00123347 0.00123346 0.00123346 0.00123346
          0.00110266 0.00110265 0.000992427 0.000992436 0.000992444 0.00110266 0.00110267 0.00099245 0.00123347 0.00123347 0.00123347 0.00110267
          0.00110267 0.000992457 0.000992459 0.000992454 0.00110267 0.00089868 0.000898682 0.000898676 0.000819256 0.000750688 0.000819261 0.000819259
          0.000750691 0.000750693 0.000750682 0.000750675 0.000819243 0.00081925 0.000898671 0.000898663 0.000898654 0.000898642 0.000819221 0.000819233
          0.000750665 0.000750652 0.000750592 0.00081917 0.000898596 0.000898613 0.000898628 0.000819207 0.000819189 0.000750617 0.000750636 0.000898561
          0.000898578 0.000819147 0.000750561 0.000750524 0.000819123 0.000819101 0.000750481 0.000750441 0.000819086 0.000898539 0.000898547 0.00123344
          0.00123345 0.00110261 0.00110261 0.000992357 0.000992362 0.00099237 0.000992381 0.00110262 0.00110262 0.00123345 0.00123345 0.00123345
          0.00110263 0.000992393 0.000992405 0.00110264 0.00110265 0.000992416 0.00123345 0.00123346
        </DataArray>
        <DataArray type="Float32" Name="x^H2O_liq" NumberOfComponents="1" format="ascii">
          0.999024 0.999025 0.999073 0.999073 0.999122 0.999122 0.999124 0.999123 0.999074 0.999025 0.999025 0.999075
          0.999075 0.999025 0.999125 0.999127 0.999129 0.999025 0.999076 0.999078 0.999026 0.999177 0.999181 0.999231
          0.999226 0.999279 0.999274 0.999269 0.999223 0.999175 0.999261 0.999262 0.99917 0.999216 0.999217 0.99917
          0.99922 0.999173 0.999171 0.999218 0.999264 0.999266 0.999301 0.999336 0.999337 0.999302 0.999304 0.999339
          0.999342 0.999306 0.999375 0.999406 0.999404 0.999372 0.999402 0.99937 0.999371 0.999403 0.999433 0.999433
          0.999462 0.999491 0.999491 0.999463 0.999464 0.999492 0.999492 0.999465 0.999436 0.999435 0.999439 0.999493
          0.999466 0.999468 0.999494 0.999495 0.999471 0.999446 0.999442 0.999413 0.999383 0.999389 0.999418 0.999379
          0.999409 0.999345 0.99931 0.999315 0.99935 0.999356 0.999321 0.999328 0.999364 0.999374 0.999338 0.99935
          0.999386 0.999402 0.999365 0.99943 0.999452 0.999441 0.999416 0.999425 0.999396 0.999405 0.999432 0.999456
          0.99945 0.999474 0.999497 0.999498 0.999478 0.999482 0.9995 0.999502 0.999487 0.999471 0.999463 0.99948
          0.999504 0.999493 0.999498 0.999507 0.999509 0.999505 0.9995 0.99949 0.999479 0.999466 0.999489 0.999495
          0.999446 0.999465 0.999421 0.999385 0.999413 0.999447 0.99948 0.999457 0.999327 0.999263 0.999201 0.999204
          0.999269 0.999274 0.999206 0.999341 0.999353 0.999193 0.999197 0.999256 0.999248 0.999314 0.999303 0.999294
          0.999286 0.999242 0.999236 0.999184 0.999188 0.999026 0.999079 0.99908 0.999027 0.999132 0.999134 0.999137
          0.999139 0.999027 0.999082 0.999083 0.999028 0.999028 0.999084 0.999142 0.999144 0.999144 0.999086 0.999085
          0.999028 0.999028 0.999026 0.999025 0.999076 0.999078 0.999127 0.999129 0.999124 0.999125 0.999075 0.999075
          0.999025 0.999025 0.999074 0.999025 0.999025 0.999024 0.999073 0.999073 0.999122 0.999122 0.999123 0.999264
          0.999262 0.999261 0.99917 0.99917 0.999216 0.999217 0.999218 0.999171 0.99922 0.999173 0.999175 0.999223
          0.999269 0.999266 0.999279 0.999274 0.999226 0.999177 0.999181 0.999231 0.999286 0.999294 0.999303 0.999248
          0.999193 0.999188 0.999242 0.999236 0.999184 0.999134 0.999132 0.999079 0.999026 0.999027 0.99908 0.999082
          0.999027 0.999137 0.999139 0.999142 0.999083 0.999028 0.999028 0.999084 0.999085 0.999028 0.999028 0.999086
          0.999144 0.999144 0.999256 0.999263 0.999201 0.999197 0.999327 0.999314 0.999353 0.999341 0.999206 0.999204
          0.999269 0.999274 0.999328 0.999364 0.999374 0.999338 0.99935 0.999386 0.999416 0.999441 0.999432 0.999405
          0.999396 0.999425 0.99945 0.999456 0.999474 0.999497 0.999498 0.999478 0.999482 0.9995 0.999463 0.99948
          0.999471 0.999487 0.999502 0.999504 0.999493 0.999498 0.999507 0.999509 0.999505 0.99949 0.9995 0.99943
          0.999446 0.999465 0.999452 0.999402 0.999421 0.999385 0.999365 0.999457 0.999413 0.999447 0.99948 0.999495
          0.999479 0.999466 0.999489 0.999339 0.999304 0.999302 0.999301 0.999336 0.999337 0.999403 0.999402 0.99937
          0.999371 0.999372 0.999404 0.999406 0.999409 0.999379 0.999375 0.999342 0.999306 0.99931 0.999345 0.99935
          0.999315 0.999321 0.999356 0.999383 0.999413 0.999418 0.999389 0.999439 0.999436 0.999465 0.999492 0.999493
          0.999466 0.999468 0.999494 0.999495 0.999471 0.999442 0.999446 0.999433 0.999433 0.999435 0.999464 0.999492
          0.999462 0.999463 0.999491 0.999491 0.999868 0.999865 0.999919 0.99992 0.999973 0.999973 0.999972 0.999972
          0.999916 0.999918 0.999863 0.999861 0.999805 0.999809 0.999749 0.999693 0.999704 0.999755 0.999762 0.999712
          0.99972 0.999767 0.999813 0.999817 0.999742 0.999682 0.999801 0.999798 0.999796 0.999669 0.999736 0.999732
          0.999658 0.999857 0.999914 0.999914 0.999856 0.999915 0.999858 0.999972 0.999971 0.999971 0.999734 0.999779
          0.999772 0.999726 0.999731 0.999776 0.99982 0.999823 0.999825 0.99987 0.999872 0.999923 0.999921 0.999974
          0.999974 0.999974 0.999924 0.999874 0.999924 0.999875 0.999876 0.999925 0.999975 0.999975 0.999975 0.999975
          0.999925 0.999925 0.999877 0.999877 0.999829 0.999827 0.99983 0.99983 0.999784 0.999741 0.999742 0.999785
          0.999781 0.999783 0.99974 0.999737 0.99952 0.999548 0.999548 0.99952 0.999577 0.999577 0.999607 0.999606
          0.999605 0.999603 0.999574 0.999576 0.99952 0.999547 0.999547 0.99952 0.999633 0.999635 0.999637 0.999637
          0.999669 0.99967 0.999703 0.999703 0.999667 0.999665 0.999699 0.999701 0.999696 0.999662 0.999691 0.999686
          0.999652 0.999658 0.999622 0.999627 0.99963 0.999546 0.999519 0.999573 0.999601 0.999598 0.999593 0.999567
          0.99957 0.999519 0.999545 0.999543 0.999519 0.999588 0.999582 0.999559 0.999564 0.999541 0.999519 0.999518
          0.999538 0.999535 0.999518 0.999517 0.999532 0.999547 0.999554 0.999574 0.999565 0.999598 0.999586 0.999612
          0.999646 0.99966 0.999626 0.999637 0.999671 0.999679 0.999645 0.999608 0.999615 0.999594 0.999628 0.999571
          0.999533 0.999553 0.999602 0.999571 0.999541 0.999562 0.999541 0.999531 0.999522 0.999527 0.99954 0.999554
          0.999527 0.999516 0.999515 0.999523 0.999518 0.999513 0.999513 0.999518 0.999523 0.999515 0.999516 0.999517
          0.999532 0.999527 0.999554 0.999565 0.999547 0.99954 0.999531 0.999522 0.999527 0.999541 0.999586 0.999571
          0.999553 0.999533 0.999571 0.999541 0.999562 0.999602 0.999628 0.999594 0.999612 0.999646 0.999626 0.99966
          0.999671 0.999679 0.999645 0.999637 0.999615 0.999608 0.999598 0.999582 0.999588 0.999564 0.999559 0.999554
          0.999574 0.999535 0.999518 0.999518 0.999538 0.999541 0.999519 0.999519 0.999519 0.999545 0.999543 0.99957
          0.999598 0.999593 0.999567 0.999574 0.999603 0.999601 0.999573 0.999547 0.999546 0.999519 0.99952 0.999547
          0.99952 0.99952 0.99952 0.999548 0.999548 0.999606 0.999607 0.999577 0.999577 0.999576 0.999605 0.999667
          0.999701 0.999703 0.999703 0.99967 0.999669 0.999637 0.999637 0.999635 0.999633 0.99963 0.999696 0.999699
          0.999665 0.999662 0.999658 0.999652 0.999686 0.999691 0.999627 0.999622 0.999975 0.999974 0.999974 0.999974
          0.999923 0.999921 0.99987 0.999872 0.999874 0.999924 0.999924 0.999875 0.999975 0.999975 0.999975 0.999925
          0.999925 0.999877 0.999877 0.999876 0.999925 0.99983 0.99983 0.999829 0.999783 0.99974 0.999785 0.999784
          0.999741 0.999742 0.999737 0.999734 0.999779 0.999781 0.999827 0.999825 0.999823 0.99982 0.999772 0.999776
          0.999731 0.999726 0.999704 0.999755 0.999809 0.999813 0.999817 0.999767 0.999762 0.999712 0.99972 0.999801
          0.999805 0.999749 0.999693 0.999682 0.999742 0.999736 0.999669 0.999658 0.999732 0.999796 0.999798 0.999971
          0.999971 0.999914 0.999914 0.999856 0.999857 0.999858 0.999861 0.999916 0.999915 0.999972 0.999972 0.999972
          0.999918 0.999863 0.999865 0.999919 0.99992 0.999868 0.999973 0.999973
        </DataArray>
        <DataArray type="Float32" Name="x^N2_liq" NumberOfComponents="1" format="ascii">
          0.000975558 0.000975487 0.000926568 0.000926784 0.000878279 0.000877913 0.000876084 0.00087718 0.000926137 0.000975345 0.000975134 0.000925495
          0.00092465 0.000974858 0.000874631 0.000872833 0.000870718 0.000974521 0.000923615 0.000922413 0.000974132 0.000822617 0.000819457 0.000769263
          0.000773564 0.000721065 0.000726446 0.000730743 0.000777076 0.000825254 0.00073885 0.000738067 0.000830489 0.000783868 0.000783204 0.00082997
          0.000779831 0.000827357 0.000828928 0.000781865 0.000736484 0.000734062 0.000698903 0.000663601 0.000662749 0.000698058 0.000696344 0.000661017
          0.000658349 0.000693709 0.000624983 0.000593517 0.000595714 0.0006275 0.000597846 0.000629939 0.000629135 0.000597142 0.000566583 0.000567142
          0.000537555 0.000508744 0.00050856 0.000537174 0.000536402 0.000508188 0.000507626 0.000535224 0.000563714 0.000565451 0.000561326 0.000506865