<?xml version="1.0"?>
<VTKFile type="PolyData" version="0.1" byte_order="LittleEndian">
  <PolyData>
    <Piece NumberOfLines="100" NumberOfPoints="101">
      <PointData Scalars="p">
        <DataArray type="Float32" Name="p" NumberOfComponents="1" format="ascii">
          106060 106053 106035 106012 105984 105954 105922 105888 105853 105817 105779 105742
          105704 105665 105620 105574 105528 105483 105437 105392 105346 105301 105256 105211
          105166 105121 105076 105031 104987 104972 104957 104942 104928 104915 104903 104892
          104885 104755 104755 104755 104754 104754 104754 104754 104754 104755 104756 104757
          104758 104759 104778 104797 104816 104835 104854 104873 104892 104911 104930 104949
          104968 104978 104970 104962 104954 104946 104940 104935 104931 105702 105702 105702
          105701 105700 105699 105698 105696 105694 105692 105689 105686 105683 105680 105676
          105673 105669 105668 105672 105676 104419 104483 104548 104606 104655 104697 104731
          104770 104784 104802 104825 104847
        </DataArray>
      </PointData>
      <CellData Scalars="process rank" Vectors="velocity_liq (m/s)">
        <DataArray type="Float32" Name="velocity_liq (m/s)" NumberOfComponents="3" format="ascii">
          3.12972e-05 -4.79291e-06 0 7.03834e-05 -1.07786e-05 0 9.36463e-05 -1.43412e-05 0 0.000109315 -1.67407e-05 0
          0.000120511 -1.84552e-05 0 0.000129275 -1.97974e-05 0 0.000135929 -2.08164e-05 0 0.000141408 -2.16555e-05 0
          0.000145619 -2.23003e-05 0 0.000148951 -2.28106e-05 0 0.000151394 -2.31847e-05 0 0.000152989 -2.3429e-05 0
          0.000153889 -2.35669e-05 0 0.000180204 -2.75967e-05 0 0.000180236 -2.76015e-05 0 0.000180238 -2.76019e-05 0
          0.000180182 -2.75932e-05 0 0.000180064 -2.75752e-05 0 0.000179865 -2.75447e-05 0 0.000179582 -2.75014e-05 0
          0.000179215 -2.74452e-05 0 0.000178787 -2.73796e-05 0 0.000178293 -2.7304e-05 0 0.000177766 -2.72232e-05 0
          0.000177224 -2.71402e-05 0 0.000176686 -2.70579e-05 0 0.000176203 -2.69839e-05 0 0.000175782 -2.69194e-05 0
          6.25945e-05 -9.58447e-06 0 6.17443e-05 -9.45429e-06 0 6.01483e-05 -9.20991e-06 0 5.76906e-05 -8.83359e-06 0
          5.42912e-05 -8.31307e-06 0 4.92581e-05 -7.54241e-06 0 4.24034e-05 -6.49282e-06 0 3.13082e-05 -4.79391e-06 0
          2.56387e-07 7.67693e-07 0 3.75701e-07 1.12496e-06 0 3.827e-07 1.14591e-06 0 2.91036e-07 8.71442e-07 0
          1.27554e-07 3.81934e-07 0 -9.29861e-08 -2.78426e-07 0 -3.74245e-07 -1.12059e-06 0 -6.86148e-07 -2.05452e-06 0
          -1.01532e-06 -3.04015e-06 0 -1.34671e-06 -4.03243e-06 0 -1.66e-06 -4.97051e-06 0 -1.91555e-06 -5.7357e-06 0
          -2.5085e-05 -7.51728e-05 0 -2.50738e-05 -7.51392e-05 0 -2.50453e-05 -7.50536e-05 0 -2.50122e-05 -7.49544e-05 0
          -2.49796e-05 -7.48568e-05 0 -2.49554e-05 -7.47844e-05 0 -2.49403e-05 -7.47392e-05 0 -2.49345e-05 -7.47216e-05 0
          -2.49335e-05 -7.47187e-05 0 -2.49334e-05 -7.47184e-05 0 -2.49161e-05 -7.46664e-05 0 -2.48739e-05 -7.45401e-05 0
          1.13333e-05 3.39999e-05 0 1.12524e-05 3.37571e-05 0 1.09509e-05 3.28528e-05 0 1.04134e-05 3.12403e-05 0
          9.65319e-06 2.89596e-05 0 8.54041e-06 2.56212e-05 0 7.07573e-06 2.12272e-05 0 5.0778e-06 1.52334e-05 0
          -1.45567e-08 -1.29266e-07 0 -1.14804e-07 -1.01948e-06 0 -2.32284e-07 -2.06272e-06 0 -3.61846e-07 -3.21325e-06 0
          -4.99114e-07 -4.43222e-06 0 -6.42014e-07 -5.7012e-06 0 -7.86361e-07 -6.98303e-06 0 -9.31123e-07 -8.26853e-06 0
          -1.07337e-06 -9.53168e-06 0 -1.21102e-06 -1.07541e-05 0 -1.33684e-06 -1.18713e-05 0 -1.45387e-06 -1.29106e-05 0
          -1.55422e-06 -1.38017e-05 0 -1.63289e-06 -1.45003e-05 0 -1.69473e-06 -1.50495e-05 0 -1.73095e-06 -1.53712e-05 0
          -1.74599e-06 -1.55047e-05 0 1.20753e-06 1.07704e-05 0 1.13958e-06 1.01643e-05 0 8.68517e-07 7.74661e-06 0
          7.50513e-05 1.96959e-05 0 9.31758e-05 2.44524e-05 0 0.000100496 2.63733e-05 0 0.000104604 2.74515e-05 0
          0.000106799 2.80276e-05 0 0.000108028 2.835e-05 0 0.000108587 2.84967e-05 0 3.78992e-05 1.00866e-05 0
          3.72338e-05 9.90947e-06 0 3.59123e-05 9.55776e-06 0 3.31871e-05 8.83248e-06 0 2.57578e-05 6.85523e-06 0
        </DataArray>
        <DataArray type="Float32" Name="process rank" NumberOfComponents="1" format="ascii">
          0 0 0 0 0 0 0 0 0 0 0 0
          0 0 0 0 0 0 0 0 0 0 0 0
          0 0 0 0 0 0 0 0 0 0 0 0
          0 0 0 0 0 0 0 0 0 0 0 0
          0 0 0 0 0 0 0 0 0 0 0 0
          0 0 0 0 0 0 0 0 0 0 0 0
          0 0 0 0 0 0 0 0 0 0 0 0
          0 0 0 0 0 0 0 0 0 0 0 0
          0 0 0 0
        </DataArray>
      </CellData>
      <Points>
        <DataArray type="Float32" Name="Coordinates" NumberOfComponents="3" format="ascii">
          0 6.409 0 0.243615 6.37169 0 0.487231 6.33438 0 0.730846 6.29708 0
          0.974462 6.25977 0 1.21808 6.22246 0 1.46169 6.18515 0 1.70531 6.14785 0
          1.94892 6.11054 0 2.19254 6.07323 0 2.43615 6.03592 0 2.67977 5.99862 0
          2.92338 5.96131 0 3.167 5.924 0 3.41427 5.88613 0 3.66153 5.84827 0
          3.9088 5.8104 0 4.15607 5.77253 0 4.40333 5.73467 0 4.6506 5.6968 0
          4.89787 5.65893 0 5.14513 5.62107 0 5.3924 5.5832 0 5.63967 5.54533 0
          5.88693 5.50747 0 6.1342 5.4696 0 6.38147 5.43173 0 6.62873 5.39387 0
          6.876 5.356 0 7.11438 5.3195 0 7.35275 5.283 0 7.59113 5.2465 0
          7.8295 5.21 0 8.06787 5.1735 0 8.30625 5.137 0 8.54463 5.1005 0
          8.783 5.064 0 5.088 0 0 5.16083 0.218083 0 5.23367 0.436167 0
          5.3065 0.65425 0 5.37933 0.872333 0 5.45217 1.09042 0 5.525 1.3085 0
          5.59783 1.52658 0 5.67067 1.74467 0 5.7435 1.96275 0 5.81633 2.18083 0
          5.88917 2.39892 0 5.962 2.617 0 6.03817 2.84525 0 6.11433 3.0735 0
          6.1905 3.30175 0 6.26667 3.53 0 6.34283 3.75825 0 6.419 3.9865 0
          6.49517 4.21475 0 6.57133 4.443 0 6.6475 4.67125 0 6.72367 4.8995 0
          6.79983 5.12775 0 6.9515 5.5825 0 7.027 5.809 0 7.1025 6.0355 0
          7.178 6.262 0 7.2535 6.4885 0 7.329 6.715 0 7.4045 6.9415 0
          7.48 7.168 0 3.626 10 0 3.599 9.76023 0 3.572 9.52047 0
          3.545 9.28071 0 3.518 9.04094 0 3.491 8.80118 0 3.464 8.56141 0
          3.437 8.32165 0 3.41 8.08188 0 3.383 7.84212 0 3.356 7.60235 0
          3.329 7.36259 0 3.302 7.12282 0 3.275 6.88306 0 3.248 6.64329 0
          3.221 6.40353 0 3.194 6.16376 0 3.13757 5.66149 0 3.09751 5.30423 0
          3.043 4.818 0 9.3 3.493 0 8.50037 3.28315 0 7.84441 3.11101 0
          7.3063 2.96979 0 6.86487 2.85394 0 6.50275 2.75891 0 6.20569 2.68095 0
          5.69148 2.545 0 5.33453 2.45001 0 4.86354 2.32465 0 4.24205 2.15925 0
          3.422 1.941 0
        </DataArray>
      </Points>
      <Lines>
        <DataArray type="Int32" Name="connectivity" NumberOfComponents="1" format="ascii">
          0 1 1 2 2 3 3 4 4 5 5 6
          6 7 7 8 8 9 9 10 10 11 11 12
          12 13 13 14 14 15 15 16 16 17 17 18
          18 19 19 20 20 21 21 22 22 23 23 24
          24 25 25 26 26 27 27 28 28 29 29 30
          30 31 31 32 32 33 33 34 34 35 35 36
          37 38 38 39 39 40 40 41 41 42 42 43
          43 44 44 45 45 46 46 47 47 48 48 49
          49 50 50 51 51 52 52 53 53 54 54 55
          55 56 56 57 57 58 58 59 59 60 60 28
          28 61 61 62 62 63 63 64 64 65 65 66
          66 67 67 68 69 70 70 71 71 72 72 73
          73 74 74 75 75 76 76 77 77 78 78 79
          79 80 80 81 81 82 82 83 83 84 84 85
          85 13 13 86 86 87 87 88 89 90 90 91
          91 92 92 93 93 94 94 95 95 49 49 96
          96 97 97 98 98 99 99 100
        </DataArray>
        <DataArray type="Int32" Name="offsets" NumberOfComponents="1" format="ascii">
          2 4 6 8 10 12 14 16 18 20 22 24
          26 28 30 32 34 36 38 40 42 44 46 48
          50 52 54 56 58 60 62 64 66 68 70 72
          74 76 78 80 82 84 86 88 90 92 94 96
          98 100 102 104 106 108 110 112 114 116 118 120
          122 124 126 128 130 132 134 136 138 140 142 144
          146 148 150 152 154 156 158 160 162 164 166 168
          170 172 174 176 178 180 182 184 186 188 190 192
          194 196 198 200
        </DataArray>
      </Lines>
    </Piece>
  </PolyData>
</VTKFile>
