<?xml version="1.0"?>
<VTKFile type="UnstructuredGrid" version="0.1" byte_order="LittleEndian">
  <UnstructuredGrid>
    <Piece NumberOfCells="1536" NumberOfPoints="1617">
      <CellData Scalars="S_aq">
        <DataArray type="Float32" Name="S_aq" NumberOfComponents="1" format="ascii">
          1 1 1 1 1 1 1 1 1 1 1 1
          1 1 1 1 1 1 1 1 1 1 1 1
          1 1 1 1 1 1 1 1 1 1 1 1
          1 1 1 1 1 1 1 1 1 1 1 1
          1 1 1 1 1 1 1 1 1 1 1 1
          1 1 1 1 1 1 1 1 1 1 1 1
          1 1 1 1 1 1 1 1 1 1 1 1
          1 1 1 1 1 1 1 1 1 1 1 1
          1 1 1 1 1 1 1 1 1 1 1 1
          1 1 1 1 1 1 1 1 1 1 1 1
          1 1 1 1 1 1 1 1 1 1 1 1
          1 1 1 1 1 1 1 1 1 1 1 1
          1 1 1 1 1 1 1 1 1 1 1 1
          1 1 1 1 1 1 1 1 1 1 1 1
          1 1 1 1 1 1 1 1 1 1 1 1
          1 1 1 1 1 1 1 1 1 1 1 1
          1 1 1 1 1 1 1 1 1 1 1 1
          1 1 1 1 1 1 1 1 1 1 1 1
          1 1 1 1 1 1 1 1 1 1 1 1
          1 1 1 1 1 1 1 1 1 1 1 1
          1 1 1 1 1 1 1 1 1 1 1 1
          1 1 1 1 1 1 1 1 1 1 1 1
          1 1 1 1 1 1 1 1 1 1 1 1
          1 1 1 1 1 1 1 1 1 1 1 1
          1 1 1 1 1 1 1 1 1 1 1 1
          1 1 1 1 1 1 1 1 1 1 1 1
          1 1 1 1 1 1 1 1 1 1 1 1
          1 1 1 1 1 1 1 1 1 1 1 1
          1 1 1 1 1 1 1 1 1 1 1 1
          1 1 1 1 1 1 1 1 1 1 1 1
          1 1 1 1 1 1 1 1 1 1 1 1
          1 1 1 1 1 1 1 1 1 1 1 1
          1 1 1 1 1 1 1 1 1 1 1 1
          1 1 1 1 1 1 1 1 1 1 1 1
          1 1 1 1 1 1 1 1 1 1 1 1
          1 1 1 1 1 1 1 1 1 1 1 1
          1 1 1 1 1 1 1 1 1 1 1 1
          1 1 1 1 1 1 1 1 1 1 1 1
          1 1 1 1 1 1 1 1 1 1 1 1
          1 1 1 1 1 1 1 1 1 1 1 1
          1 1 1 1 1 1 1 1 1 1 1 1
          1 1 1 1 1 1 1 1 1 1 1 1
          1 1 1 1 1 1 1 1 1 1 1 1
          1 1 1 1 1 1 1 1 1 1 1 1
          1 1 1 1 1 1 1 1 1 1 1 1
          1 1 1 1 1 1 1 1 1 1 1 1
          1 1 1 1 1 1 1 1 1 1 1 1
          1 1 1 1 1 1 1 1 1 1 1 1
          1 1 1 1 1 1 1 1 1 1 1 1
          1 1 1 1 1 1 1 1 1 1 1 1
          1 1 1 1 1 1 1 1 1 1 1 1
          1 1 1 1 1 1 1 1 1 1 1 1
          1 1 1 1 1 1 1 1 1 1 1 1
          1 1 1 1 1 1 1 1 1 1 1 1
          1 1 1 1 1 1 1 1 1 1 1 1
          1 1 1 1 1 1 1 1 1 1 1 1
          1 1 1 1 1 1 1 1 1 1 1 1
          1 1 1 1 1 1 1 1 1 1 1 1
          1 1 1 1 1 1 1 1 1 1 1 1
          1 1 1 1 1 1 1 1 1 1 1 1
          1 1 1 1 1 1 1 1 1 1 1 1
          1 1 1 1 1 1 1 1 1 1 1 1
          1 1 1 1 1 1 1 1 1 1 1 1
          1 1 1 1 1 1 1 1 1 1 1 1
          1 1 1 1 1 1 1 1 1 1 1 1
          1 1 1 1 1 1 1 1 1 1 1 1
          1 1 1 1 1 1 1 1 1 1 1 1
          1 1 1 1 1 1 1 1 1 1 1 1
          1 1 1 1 1 1 1 1 1 1 1 1
          1 1 1 1 1 1 1 1 1 1 1 1
          1 1 1 1 1 1 1 1 1 1 1 1
          1 1 1 1 1 1 1 1 1 1 1 1
          1 1 1 1 1 1 1 1 1 1 1 1
          1 1 1 1 1 1 1 1 1 1 1 1
          1 1 1 1 1 1 1 1 1 1 1 1
          1 1 1 1 1 1 1 1 1 1 1 1
          1 1 1 1 1 1 1 1 1 1 1 1
          1 1 1 1 1 1 1 1 1 1 1 1
          1 1 1 1 1 1 1 1 1 1 1 1
          1 1 1 1 1 1 1 1 1 1 1 1
          1 1 1 1 1 1 1 1 1 1 1 1
          1 1 1 1 1 1 1 1 1 1 1 1
          1 1 1 1 1 1 1 1 1 1 1 1
          1 1 1 1 1 1 1 1 1 1 1 1
          1 1 1 1 1 1 1 1 1 1 1 1
          1 1 1 1 1 1 1 1 1 1 1 1
          1 1 1 1 1 1 1 1 1 1 1 1
          1 1 1 1 1 1 1 1 1 1 1 1
          1 1 1 1 1 1 1 1 1 1 1 1
          1 1 1 1 1 1 1 1 1 1 1 1
          1 1 1 1 1 1 1 1 1 1 1 1
          1 1 1 1 1 1 1 1 1 1 1 1
          1 1 1 1 1 1 1 1 1 1 1 1
          1 1 1 1 1 1 1 1 1 1 1 1
          1 1 1 1 1 1 1 1 1 1 1 1
          1 1 1 1 1 1 1 1 1 1 1 1
          1 1 1 1 1 1 1 1 1 1 1 1
          1 1 1 1 0.999789 0.998012 0.9968 0.996381 0.996276 0.99627 0.996493 0.998491
          0.999992 1 1 1 1 1 1 1 1 1 1 1
          1 1 1 1 1 1 1 1 1 1 1 1
          1 1 1 1 1 1 1 1 1 1 1 1
          1 1 1 0.999999 0.995869 0.988201 0.985044 0.984051 0.9838 0.983778 0.984239 0.989304
          0.999205 0.999999 1 1 1 1 1 1 1 1 1 1
          1 1 1 1 1 1 1 1 1 1 1 1
          1 1 1 1 1 1 1 1 1 1 1 1
          1 1 1 0.999689 0.985498 0.975155 0.971688 0.970637 0.970368 0.970334 0.970734 0.975636
          0.994266 0.99989 1 1 1 1 1 1 1 1 1 1
          1 1 1 1 1 1 1 1 1 1 1 1
          1 1 1 1 1 1 1 1 1 1 1 1
          1 1 1 0.99836 0.975983 0.967208 0.964466 0.963675 0.963476 0.963448 0.963704 0.967031
          0.986869 0.998922 0.999998 1 1 1 1 1 1 1 1 1
          1 1 1 1 1 1 1 1 1 1 1 1
          1 1 1 1 1 1 1 1 1 1 1 1
          1 1 1 0.996736 0.970412 0.963514 0.961546 0.961028 0.960906 0.960889 0.961051 0.963461
          0.981716 0.996947 0.999968 1 1 1 1 1 1 1 1 1
          1 1 1 1 1 1 1 1 1 1 1 1
          1 1 1 1 1 1 1 1 1 1 1 1
          1 1 0.999985 0.995589 0.967057 0.961751 0.96045 0.960152 0.960089 0.960081 0.960184 0.962061
          0.98022 0.995346 0.999874 1 1 1 1 1 1 1 1 1
          1 1 1 1 1 1 1 1 1 1 1 1
          1 1 1 1 1 1 1 1 1 1 1 1
          1 1 0.999943 0.995053 0.96461 0.960773 0.96003 0.959889 0.959864 0.959862 0.959921 0.961363
          0.981629 0.995047 0.99979 1 1 1 1 1 1 1 1 1
          1 1 1 1 1 1 1 1 1 1 1 1
          1 1 1 1 1 1 1 1 1 1 1 1
          1 1 0.999927 0.995343 0.962378 0.960162 0.959864 0.95982 0.959813 0.959813 0.959837 0.960741
          0.985795 0.996242 0.999847 1 1 1 1 1 1 1 1 1
          1 1 1 1 1 1 1 1 1 1 1 1
        </DataArray>
        <DataArray type="Float32" Name="p_aq" NumberOfComponents="1" format="ascii">
          152501 151572 150808 150153 149577 149060 148592 148163 147765 147395 147048 146719
          146407 146108 145820 145542 145273 145010 144753 144501 144254 144011 143771 143534
          143300 143069 142841 142615 142393 142173 141956 141743 141532 141325 141121 140921
          140723 140529 140338 140150 139964 139781 139600 139420 139243 139066 138890 138714
          150983 150180 149473 148848 148290 147786 147327 146904 146512 146146 145802 145477
          145167 144870 144584 144308 144039 143778 143522 143271 143024 142781 142541 142305
          142071 141840 141612 141386 141163 140944 140727 140513 140303 140095 139892 139691
          139494 139300 139109 138921 138736 138553 138372 138193 138015 137839 137663 137488
          149380 148691 148056 147477 146950 146468 146025 145615 145233 144876 144539 144219
          143914 143621 143339 143066 142800 142540 142286 142036 141790 141548 141309 141073
          140839 140608 140380 140154 139931 139711 139494 139280 139070 138863 138659 138458
          138261 138068 137877 137690 137505 137322 137142 136964 136787 136611 136436 136262
          147748 147150 146583 146054 145564 145110 144689 144297 143930 143584 143258 142946
          142648 142362 142085 141816 141553 141297 141045 140797 140553 140312 140073 139838
          139605 139374 139146 138920 138697 138476 138259 138044 137834 137626 137422 137222
          137026 136832 136642 136455 136271 136090 135910 135733 135557 135382 135208 135035
          146101 145577 145071 144592 144142 143720 143325 142954 142605 142275 141961 141660
          141372 141093 140823 140559 140301 140049 139800 139555 139312 139073 138835 138601
          138368 138137 137909 137682 137459 137238 137020 136805 136594 136386 136182 135982
          135786 135594 135404 135218 135035 134855 134677 134501 134326 134152 133980 133808
          144447 143984 143534 143102 142692 142303 141937 141590 141261 140949 140650 140363
          140085 139816 139554 139297 139045 138796 138551 138309 138069 137831 137595 137361
          137129 136898 136669 136443 136218 135997 135778 135562 135351 135143 134939 134739
          134543 134351 134163 133978 133797 133618 133441 133267 133094 132922 132751 132581
          142789 142379 141978 141590 141219 140865 140528 140208 139902 139609 139328 139055
          138791 138532 138279 138030 137784 137541 137300 137061 136824 136588 136353 136120
          135888 135657 135428 135201 134975 134752 134533 134316 134103 133895 133691 133491
          133296 133105 132919 132735 132556 132378 132204 132031 131860 131691 131522 131353
          141127 140764 140408 140062 139729 139409 139103 138810 138529 138258 137996 137740
          137490 137244 137000 136760 136521 136283 136047 135812 135577 135343 135110 134877
          134646 134415 134185 133956 133730 133505 133284 133066 132852 132643 132438 132239
          132045 131856 131670 131489 131311 131137 130964 130794 130626 130458 130292 130126
          139462 139143 138828 138522 138225 137940 137665 137401 137147 136899 136658 136420
          136185 135952 135719 135488 135256 135025 134793 134561 134330 134098 133866 133634
          133403 133171 132940 132711 132482 132256 132032 131812 131596 131386 131181 130982
          130789 130601 130418 130240 130064 129892 129723 129555 129390 129225 129061 128898
          137796 137516 137240 136971 136710 136459 136217 135983 135757 135535 135315 135097
          134878 134658 134438 134215 133991 133766 133539 133311 133082 132853 132622 132391
          132159 131927 131695 131463 131232 131003 130776 130553 130335 130123 129918 129719
          129528 129342 129162 128986 128814 128645 128479 128315 128152 127991 127831 127671
          136129 135885 135646 135412 135186 134969 134760 134558 134362 134167 133972 133774
          133572 133367 133157 132944 132728 132508 132286 132062 131836 131608 131379 131148
          130916 130683 130449 130215 129981 129748 129516 129289 129067 128853 128647 128450
          128261 128078 127901 127729 127561 127396 127233 127073 126914 126756 126599 126443
          134460 134251 134045 133846 133654 133470 133296 133128 132965 132800 132631 132455
          132270 132079 131881 131677 131467 131254 131036 130815 130591 130365 130137 129906
          129674 129440 129204 128967 128729 128490 128253 128019 127792 127574 127368 127173
          126987 126808 126636 126468 126305 126144 125986 125829 125674 125520 125367 125214
          132790 132612 132439 132271 132112 131963 131824 131695 131569 131439 131297 131143
          130976 130798 130610 130414 130211 130002 129789 129571 129349 129125 128897 128667
          128434 128198 127960 127720 127477 127232 126986 126743 126507 126285 126079 125887
          125705 125532 125365 125203 125045 124889 124736 124584 124434 124284 124135 123986
          131118 130970 130826 130689 130561 130445 130343 130257 130179 130088 129976 129844
          129693 129527 129348 129159 128961 128756 128546 128330 128110 127887 127660 127429
          127196 126959 126719 126475 126227 125974 125717 125459 125207 124980 124776 124589
          124415 124250 124090 123935 123783 123633 123485 123338 123192 123047 122902 122758
          129446 129325 129208 129097 128998 128913 128848 128810 128801 128758 128676 128563
          128425 128268 128096 127912 127718 127516 127308 127094 126875 126652 126426 126195
          125961 125724 125482 125235 124982 124721 124450 124168 123883 123651 123455 123280
          123117 122961 122811 122663 122518 122375 122232 122091 121950 121809 121669 121529
          127772 127675 127582 127495 127420 127360 127325 127336 127458 127465 127407 127306
          127176 127025 126856 126675 126483 126282 126075 125862 125644 125422 125195 124965
          124731 124493 124250 124001 123745 123478 123194 122880 122506 122286 122113 121958
          121811 121668 121528 121389 121252 121115 120979 120843 120707 120572 120436 120301
          126096 126021 125949 125883 125826 125782 125755 125749 125882 125927 125883 125790
          125667 125522 125362 125189 125005 124814 124616 124412 124204 123991 123773 123552
          123325 123094 122856 122610 122352 122073 121755 121339 120974 120875 120754 120628
          120501 120372 120244 120114 119985 119855 119725 119595 119464 119334 119203 119072
          124420 124364 124310 124262 124219 124187 124166 124157 124178 124168 124109 124015
          123897 123761 123612 123453 123286 123111 122931 122745 122555 122360 122160 121956
          121747 121530 121305 121068 120813 120531 120203 119799 119541 119486 119400 119300
          119191 119077 118960 118840 118718 118595 118471 118347 118222 118096 117970 117844
          122743 122704 122667 122633 122603 122580 122563 122556 122527 122458 122370 122264
          122144 122013 121873 121726 121573 121414 121250 121082 120910 120733 120552 120366
          120174 119975 119766 119544 119302 119034 118727 118369 118162 118126 118062 117980
          117887 117785 117678 117567 117453 117337 117219 117099 116979 116858 116737 116615
          121065 121043 121021 121001 120981 120965 120953 120946 120886 120768 120649 120527
          120402 120273 120141 120005 119865 119722 119575 119424 119270 119112 118949 118782
          118610 118430 118240 118038 117818 117575 117302 116992 116821 116792 116741 116672
          116590 116499 116401 116297 116190 116080 115967 115853 115738 115621 115504 115387
          119387 119382 119375 119366 119357 119346 119337 119331 119243 119079 118931 118793
          118663 118537 118413 118288 118161 118033 117903 117769 117633 117494 117351 117204
          117052 116894 116728 116550 116358 116147 115912 115650 115506 115483 115438 115377
          115303 115219 115128 115031 114930 114825 114717 114608 114497 114385 114272 114159
          117710 117721 117730 117734 117732 117726 117717 117710 117588 117376 117201 117052
          116921 116800 116685 116572 116460 116347 116233 116117 116000 115879 115757 115631
          115501 115367 115226 115077 114917 114742 114549 114335 114216 114193 114152 114095
          114026 113948 113861 113769 113673 113573 113470 113364 113257 113149 113040 112930
          116034 116064 116089 116106 116113 116110 116096 116081 115901 115636 115443 115293
          115168 115057 114954 114855 114758 114662 114565 114468 114368 114268 114165 114061
          113955 113845 113733 113615 113490 113356 113209 113043 112947 112923 112881 112825
          112759 112683 112601 112512 112420 112323 112224 112122 112019 111914 111809 111703
          114359 114411 114455 114488 114505 114502 114478 114438 114120 113825 113643 113510
          113401 113306 113219 113137 113057 112978 112899 112819 112739 112658 112576 112494
          112411 112328 112244 112159 112072 111982 111886 111778 111702 111671 111624 111566
          111500 111426 111345 111260 111170 111077 110981 110882 110782 110680 110578 110475
          112687 112765 112834 112886 112917 112917 112874 112755 112446 112249 112106 111993
          111898 111814 111736 111663 111592 111522 111452 111382 111311 111240 111168 111097
          111026 110956 110888 110820 110752 110685 110619 110553 110488 110434 110378 110316
          110248 110175 110095 110012 109924 109833 109740 109644 109546 109447 109348 109247
          111018 111129 111228 111307 111358 111375 111347 111261 111107 110967 110849 110749
          110660 110580 110505 110434 110364 110295 110226 110155 110084 110013 109941 109869
          109798 109729 109660 109593 109525 109458 109392 109326 109262 109200 109138 109073
          109003 108929 108850 108768 108682 108593 108501 108407 108312 108215 108118 108020
          109353 109507 109643 109755 109834 109877 109878 109835 109754 109663 109575 109492
          109414 109341 109270 109202 109135 109068 108998 108927 108856 108785 108713 108640
          108569 108500 108433 108365 108298 108231 108164 108098 108032 107967 107901 107833
          107762 107687 107608 107527 107442 107354 107265 107173 107079 106984 106889 106793
          107695 107901 108083 108234 108347 108421 108454 108448 108412 108357 108295 108230
          108164 108099 108034 107969 107905 107838 107769 107698 107627 107556 107484 107411
          107340 107272 107204 107137 107070 107003 106936 106869 106802 106735 106667 106597
          106524 106449 106370 106289 106205 106119 106030 105939 105847 105754 105660 105566
          106045 106318 106556 106751 106900 107005 107067 107092 107086 107059 107018 106969
          106914 106856 106797 106736 106675 106608 106539 106469 106398 106327 106255 106183
          106111 106043 105976 105910 105843 105775 105708 105641 105573 105504 105434 105363
          105289 105214 105135 105054 104971 104885 104797 104708 104617 104525 104432 104339
          104410 104769 105071 105313 105498 105631 105718 105766 105783 105775 105750 105713
          105667 105616 105561 105503 105444 105378 105310 105240 105170 105099 105027 104954
          104882 104815 104749 104682 104615 104548 104480 104412 104344 104274 104204 104131
          104057 103981 103902 103821 103738 103653 103566 103477 103387 103296 103204 103112
          102806 103276 103647 103933 104148 104303 104408 104473 104504 104509 104494 104465
          104425 104379 104327 104272 104215 104149 104081 104012 103942 103871 103799 103727
          103654 103587 103521 103455 103388 103321 103253 103185 103115 103045 102974 102902
          102827 102750 102672 102591 102508 102423 102337 102249 102159 102068 101977 101885
          101287 101882 102309 102624 102857 103024 103139 103212 103250 103262 103252 103227
          103191 103147 103097 103043 102987 102921 102854 102785 102715 102644 102572 102500
          102427 102360 102294 102228 102161 102094 102026 101957 101888 101818 101747 101674
          101599 101522 101444 101363 101280 101195 101109 101021 100932 100841 100750 100659
        </DataArray>
        <DataArray type="Float32" Name="rho_aq" NumberOfComponents="1" format="ascii">
          1000 1000 1000 1000 1000 1000 1000 1000 1000 1000 1000 1000
          1000 1000 1000 1000 1000 1000 1000 1000 1000 1000 1000 1000
          1000 1000 1000 1000 1000 1000 1000 1000 1000 1000 1000 1000
          1000 1000 1000 1000 1000 1000 1000 1000 1000 1000 1000 1000
          1000 1000 1000 1000 1000 1000 1000 1000 1000 1000 1000 1000
          1000 1000 1000 1000 1000 1000 1000 1000 1000 1000 1000 1000
          1000 1000 1000 1000 1000 1000 1000 1000 1000 1000 1000 1000
          1000 1000 1000 1000 1000 1000 1000 1000 1000 1000 1000 1000
          1000 1000 1000 1000 1000 1000 1000 1000 1000 1000 1000 1000
          1000 1000 1000 1000 1000 1000 1000 1000 1000 1000 1000 1000
          1000 1000 1000 1000 1000 1000 1000 1000 1000 1000 1000 1000
          1000 1000 1000 1000 1000 1000 1000 1000 1000 1000 1000 1000
          1000 1000 1000 1000 1000 1000 1000 1000 1000 1000 1000 1000
          1000 1000 1000 1000 1000 1000 1000 1000 1000 1000 1000 1000
          1000 1000 1000 1000 1000 1000 1000 1000 1000 1000 1000 1000
          1000 1000 1000 1000 1000 1000 1000 1000 1000 1000 1000 1000
          1000 1000 1000 1000 1000 1000 1000 1000 1000 1000 1000 1000
          1000 1000 1000 1000 1000 1000 1000 1000 1000 1000 1000 1000
          1000 1000 1000 1000 1000 1000 1000 1000 1000 1000 1000 1000
          1000 1000 1000 1000 1000 1000 1000 1000 1000 1000 1000 1000
          1000 1000 1000 1000 1000 1000 1000 1000 1000 1000 1000 1000
          1000 1000 1000 1000 1000 1000 1000 1000 1000 1000 1000 1000
          1000 1000 1000 1000 1000 1000 1000 1000 1000 1000 1000 1000
          1000 1000 1000 1000 1000 1000 1000 1000 1000 1000 1000 1000
          1000 1000 1000 1000 1000 1000 1000 1000 1000 1000 1000 1000
          1000 1000 1000 1000 1000 1000 1000 1000 1000 1000 1000 1000
          1000 1000 1000 1000 1000 1000 1000 1000 1000 1000 1000 1000
          1000 1000 1000 1000 1000 1000 1000 1000 1000 1000 1000 1000
          1000 1000 1000 1000 1000 1000 1000 1000 1000 1000 1000 1000
          1000 1000 1000 1000 1000 1000 1000 1000 1000 1000 1000 1000
          1000 1000 1000 1000 1000 1000 1000 1000 1000 1000 1000 1000
          1000 1000 1000 1000 1000 1000 1000 1000 1000 1000 1000 1000
          1000 1000 1000 1000 1000 1000 1000 1000 1000 1000 1000 1000
          1000 1000 1000 1000 1000 1000 1000 1000 1000 1000 1000 1000
          1000 1000 1000 1000 1000 1000 1000 1000 1000 1000 1000 1000
          1000 1000 1000 1000 1000 1000 1000 1000 1000 1000 1000 1000
          1000 1000 1000 1000 1000 1000 1000 1000 1000 1000 1000 1000
          1000 1000 1000 1000 1000 1000 1000 1000 1000 1000 1000 1000
          1000 1000 1000 1000 1000 1000 1000 1000 1000 1000 1000 1000
          1000 1000 1000 1000 1000 1000 1000 1000 1000 1000 1000 1000
          1000 1000 1000 1000 1000 1000 1000 1000 1000 1000 1000 1000
          1000 1000 1000 1000 1000 1000 1000 1000 1000 1000 1000 1000
          1000 1000 1000 1000 1000 1000 1000 1000 1000 1000 1000 1000
          1000 1000 1000 1000 1000 1000 1000 1000 1000 1000 1000 1000
          1000 1000 1000 1000 1000 1000 1000 1000 1000 1000 1000 1000
          1000 1000 1000 1000 1000 1000 1000 1000 1000 1000 1000 1000
          1000 1000 1000 1000 1000 1000 1000 1000 1000 1000 1000 1000
          1000 1000 1000 1000 1000 1000 1000 1000 1000 1000 1000 1000
          1000 1000 1000 1000 1000 1000 1000 1000 1000 1000 1000 1000
          1000 1000 1000 1000 1000 1000 1000 1000 1000 1000 1000 1000
          1000 1000 1000 1000 1000 1000 1000 1000 1000 1000 1000 1000
          1000 1000 1000 1000 1000 1000 1000 1000 1000 1000 1000 1000
          1000 1000 1000 1000 1000 1000 1000 1000 1000 1000 1000 1000
          1000 1000 1000 1000 1000 1000 1000 1000 1000 1000 1000 1000
          1000 1000 1000 1000 1000 1000 1000 1000 1000 1000 1000 1000
          1000 1000 1000 1000 1000 1000 1000 1000 1000 1000 1000 1000
          1000 1000 1000 1000 1000 1000 1000 1000 1000 1000 1000 1000
          1000 1000 1000 1000 1000 1000 1000 1000 1000 1000 1000 1000
          1000 1000 1000 1000 1000 1000 1000 1000 1000 1000 1000 1000
          1000 1000 1000 1000 1000 1000 1000 1000 1000 1000 1000 1000
          1000 1000 1000 1000 1000 1000 1000 1000 1000 1000 1000 1000
          1000 1000 1000 1000 1000 1000 1000 1000 1000 1000 1000 1000
          1000 1000 1000 1000 1000 1000 1000 1000 1000 1000 1000 1000
          1000 1000 1000 1000 1000 1000 1000 1000 1000 1000 1000 1000
          1000 1000 1000 1000 1000 1000 1000 1000 1000 1000 1000 1000
          1000 1000 1000 1000 1000 1000 1000 1000 1000 1000 1000 1000
          1000 1000 1000 1000 1000 1000 1000 1000 1000 1000 1000 1000
          1000 1000 1000 1000 1000 1000 1000 1000 1000 1000 1000 1000
          1000 1000 1000 1000 1000 1000 1000 1000 1000 1000 1000 1000
          1000 1000 1000 1000 1000 1000 1000 1000 1000 1000 1000 1000
          1000 1000 1000 1000 1000 1000 1000 1000 1000 1000 1000 1000
          1000 1000 1000 1000 1000 1000 1000 1000 1000 1000 1000 1000
          1000 1000 1000 1000 1000 1000 1000 1000 1000 1000 1000 1000
          1000 1000 1000 1000 1000 1000 1000 1000 1000 1000 1000 1000
          1000 1000 1000 1000 1000 1000 1000 1000 1000 1000 1000 1000
          1000 1000 1000 1000 1000 1000 1000 1000 1000 1000 1000 1000
          1000 1000 1000 1000 1000 1000 1000 1000 1000 1000 1000 1000
          1000 1000 1000 1000 1000 1000 1000 1000 1000 1000 1000 1000
          1000 1000 1000 1000 1000 1000 1000 1000 1000 1000 1000 1000
          1000 1000 1000 1000 1000 1000 1000 1000 1000 1000 1000 1000
          1000 1000 1000 1000 1000 1000 1000 1000 1000 1000 1000 1000
          1000 1000 1000 1000 1000 1000 1000 1000 1000 1000 1000 1000
          1000 1000 1000 1000 1000 1000 1000 1000 1000 1000 1000 1000
          1000 1000 1000 1000 1000 1000 1000 1000 1000 1000 1000 1000
          1000 1000 1000 1000 1000 1000 1000 1000 1000 1000 1000 1000
          1000 1000 1000 1000 1000 1000 1000 1000 1000 1000 1000 1000
          1000 1000 1000 1000 1000 1000 1000 1000 1000 1000 1000 1000
          1000 1000 1000 1000 1000 1000 1000 1000 1000 1000 1000 1000
          1000 1000 1000 1000 1000 1000 1000 1000 1000 1000 1000 1000
          1000 1000 1000 1000 1000 1000 1000 1000 1000 1000 1000 1000
          1000 1000 1000 1000 1000 1000 1000 1000 1000 1000 1000 1000
          1000 1000 1000 1000 1000 1000 1000 1000 1000 1000 1000 1000
          1000 1000 1000 1000 1000 1000 1000 1000 1000 1000 1000 1000
          1000 1000 1000 1000 1000 1000 1000 1000 1000 1000 1000 1000
          1000 1000 1000 1000 1000 1000 1000 1000 1000 1000 1000 1000
          1000 1000 1000 1000 1000 1000 1000 1000 1000 1000 1000 1000
          1000 1000 1000 1000 1000 1000 1000 1000 1000 1000 1000 1000
          1000 1000 1000 1000 1000 1000 1000 1000 1000 1000 1000 1000
          1000 1000 1000 1000 1000 1000 1000 1000 1000 1000 1000 1000
          1000 1000 1000 1000 1000 1000 1000 1000 1000 1000 1000 1000
          1000 1000 1000 1000 1000 1000 1000 1000 1000 1000 1000 1000
          1000 1000 1000 1000 1000 1000 1000 1000 1000 1000 1000 1000
          1000 1000 1000 1000 1000 1000 1000 1000 1000 1000 1000 1000
          1000 1000 1000 1000 1000 1000 1000 1000 1000 1000 1000 1000
          1000 1000 1000 1000 1000 1000 1000 1000 1000 1000 1000 1000
          1000 1000 1000 1000 1000 1000 1000 1000 1000 1000 1000 1000
          1000 1000 1000 1000 1000 1000 1000 1000 1000 1000 1000 1000
          1000 1000 1000 1000 1000 1000 1000 1000 1000 1000 1000 1000
          1000 1000 1000 1000 1000 1000 1000 1000 1000 1000 1000 1000
          1000 1000 1000 1000 1000 1000 1000 1000 1000 1000 1000 1000
          1000 1000 1000 1000 1000 1000 1000 1000 1000 1000 1000 1000
          1000 1000 1000 1000 1000 1000 1000 1000 1000 1000 1000 1000
          1000 1000 1000 1000 1000 1000 1000 1000 1000 1000 1000 1000
          1000 1000 1000 1000 1000 1000 1000 1000 1000 1000 1000 1000
          1000 1000 1000 1000 1000 1000 1000 1000 1000 1000 1000 1000
          1000 1000 1000 1000 1000 1000 1000 1000 1000 1000 1000 1000
          1000 1000 1000 1000 1000 1000 1000 1000 1000 1000 1000 1000
          1000 1000 1000 1000 1000 1000 1000 1000 1000 1000 1000 1000
          1000 1000 1000 1000 1000 1000 1000 1000 1000 1000 1000 1000
          1000 1000 1000 1000 1000 1000 1000 1000 1000 1000 1000 1000
          1000 1000 1000 1000 1000 1000 1000 1000 1000 1000 1000 1000
          1000 1000 1000 1000 1000 1000 1000 1000 1000 1000 1000 1000
          1000 1000 1000 1000 1000 1000 1000 1000 1000 1000 1000 1000
          1000 1000 1000 1000 1000 1000 1000 1000 1000 1000 1000 1000
          1000 1000 1000 1000 1000 1000 1000 1000 1000 1000 1000 1000
          1000 1000 1000 1000 1000 1000 1000 1000 1000 1000 1000 1000
          1000 1000 1000 1000 1000 1000 1000 1000 1000 1000 1000 1000
          1000 1000 1000 1000 1000 1000 1000 1000 1000 1000 1000 1000
        </DataArray>
        <DataArray type="Float32" Name="mob_aq" NumberOfComponents="1" format="ascii">
          1000 1000 1000 1000 1000 1000 1000 1000 1000 1000 1000 1000
          1000 1000 1000 1000 1000 1000 1000 1000 1000 1000 1000 1000
          1000 1000 1000 1000 1000 1000 1000 1000 1000 1000 1000 1000
          1000 1000 1000 1000 1000 1000 1000 1000 1000 1000 1000 1000
          1000 1000 1000 1000 1000 1000 1000 1000 1000 1000 1000 1000
          1000 1000 1000 1000 1000 1000 1000 1000 1000 1000 1000 1000
          1000 1000 1000 1000 1000 1000 1000 1000 1000 1000 1000 1000
          1000 1000 1000 1000 1000 1000 1000 1000 1000 1000 1000 1000
          1000 1000 1000 1000 1000 1000 1000 1000 1000 1000 1000 1000
          1000 1000 1000 1000 1000 1000 1000 1000 1000 1000 1000 1000
          1000 1000 1000 1000 1000 1000 1000 1000 1000 1000 1000 1000
          1000 1000 1000 1000 1000 1000 1000 1000 1000 1000 1000 1000
          1000 1000 1000 1000 1000 1000 1000 1000 1000 1000 1000 1000
          1000 1000 1000 1000 1000 1000 1000 1000 1000 1000 1000 1000
          1000 1000 1000 1000 1000 1000 1000 1000 1000 1000 1000 1000
          1000 1000 1000 1000 1000 1000 1000 1000 1000 1000 1000 1000
          1000 1000 1000 1000 1000 1000 1000 1000 1000 1000 1000 1000
          1000 1000 1000 1000 1000 1000 1000 1000 1000 1000 1000 1000
          1000 1000 1000 1000 1000 1000 1000 1000 1000 1000 1000 1000
          1000 1000 1000 1000 1000 1000 1000 1000 1000 1000 1000 1000
          1000 1000 1000 1000 1000 1000 1000 1000 1000 1000 1000 1000
          1000 1000 1000 1000 1000 1000 1000 1000 1000 1000 1000 1000
          1000 1000 1000 1000 1000 1000 1000 1000 1000 1000 1000 1000
          1000 1000 1000 1000 1000 1000 1000 1000 1000 1000 1000 1000
          1000 1000 1000 1000 1000 1000 1000 1000 1000 1000 1000 1000
          1000 1000 1000 1000 1000 1000 1000 1000 1000 1000 1000 1000
          1000 1000 1000 1000 1000 1000 1000 1000 1000 1000 1000 1000
          1000 1000 1000 1000 1000 1000 1000 1000 1000 1000 1000 1000
          1000 1000 1000 1000 1000 1000 1000 1000 1000 1000 1000 1000
          1000 1000 1000 1000 1000 1000 1000 1000 1000 1000 1000 1000
          1000 1000 1000 1000 1000 1000 1000 1000 1000 1000 1000 1000
          1000 1000 1000 1000 1000 1000 1000 1000 1000 1000 1000 1000
          1000 1000 1000 1000 1000 1000 1000 1000 1000 1000 1000 1000
          1000 1000 1000 1000 1000 1000 1000 1000 1000 1000 1000 1000
          1000 1000 1000 1000 1000 1000 1000 1000 1000 1000 1000 1000
          1000 1000 1000 1000 1000 1000 1000 1000 1000 1000 1000 1000
          1000 1000 1000 1000 1000 1000 1000 1000 1000 1000 1000 1000
          1000 1000 1000 1000 1000 1000 1000 1000 1000 1000 1000 1000
          1000 1000 1000 1000 1000 1000 1000 1000 1000 1000 1000 1000
          1000 1000 1000 1000 1000 1000 1000 1000 1000 1000 1000 1000
          1000 1000 1000 1000 1000 1000 1000 1000 1000 1000 1000 1000
          1000 1000 1000 1000 1000 1000 1000 1000 1000 1000 1000 1000
          1000 1000 1000 1000 1000 1000 1000 1000 1000 1000 1000 1000
          1000 1000 1000 1000 1000 1000 1000 1000 1000 1000 1000 1000
          1000 1000 1000 1000 1000 1000 1000 1000 1000 1000 1000 1000
          1000 1000 1000 1000 1000 1000 1000 1000 1000 1000 1000 1000
          1000 1000 1000 1000 1000 1000 1000 1000 1000 1000 1000 1000
          1000 1000 1000 1000 1000 1000 1000 1000 1000 1000 1000 1000