<?xml version="1.0"?>
<VTKFile type="UnstructuredGrid" version="0.1" byte_order="LittleEndian">
  <UnstructuredGrid>
    <Piece NumberOfCells="22420" NumberOfPoints="11415">
      <PointData Vectors="d">
        <DataArray type="Float64" Name="d" NumberOfComponents="3" format="ascii">
          0 0 0 0.00684970597839297 0.0257501252017628 0 0 0 0 0 0 0
          0.0132672456837098 0.0509007089639138 0 0.00671819088472743 0.0255077567559167 0 0.00667317071383094 0.0252473031141495 0 0 0 0
          0 0 0 0.0192672410968055 0.0754002094397707 0 0.0130494680745851 0.050362734139718 0 0.0128832261311182 0.0497984953829395 0
          0.024817733170899 0.0993324028373446 0 0.0189259154874541 0.0745652049849249 0 0.00653304465509702 0.0249524120360168 0 0.00649348619070207 0.024650293872478 0
          0.0126463141228701 0.0491823159756115 0 0.0124688114691254 0.0485380714600039 0 0.0186264115810513 0.0736882723462243 0 0 0 0
          0 0 0 0.00634020835546769 0.0243124757232689 0 0.00630077542904091 0.0239614964628659 0 0 0 0
          0 0 0 0.0299078492631572 0.122762526341718 0 0.0243327892625054 0.0981912606922043 0 0.023869589850016 0.096995055774416 0
          0.0345495777891393 0.145775578753173 0 0.0292604491271187 0.121321315741521 0 0.0286081696222862 0.11981373003883 0 0.0233265185114339 0.0956975299087939 0
          0.0227933971673386 0.094334649209071 0 0.0387402172299065 0.16844577350368 0 0.0337153817864068 0.144048023734068 0 0.0328625128480423 0.14225037269188 0
          0.0425719077485591 0.190863717998822 0 0.0377352919904856 0.16646892088219 0 0.0278737365911084 0.118187579816505 0 0.0182493949486679 0.0727332563149327 0
          0.0179147335143076 0.0717308107471955 0 0.0122046974609855 0.0478309423513319 0 0.0119988966653783 0.047080475181808 0 0.017480773897278 0.0706311416015856 0
          0.00612356299840241 0.0235662815668668 0 0.00607590376224969 0.0231469639676167 0 0.0116822241583807 0.0462440618549789 0 0.0114129279749813 0.0453391750122581 0
          0.017073911539302 0.0694620750766201 0 0.0165334835402608 0.068160870178181 0 0.0214896893999431 0.0912693329320621 0 0.0221537186450391 0.0928471426581342 0
          0.0159807567820566 0.0667559678216014 0 0.0206753384160007 0.089530618842807 0 0.0197805557022912 0.0876554222564556 0 0.0271142240871498 0.116484246235206 0
          0.0319207188642949 0.140329287727291 0 0.0309292269249858 0.138319933345764 0 0.0366787459582998 0.164415387565288 0 0.026237836917297 0.114642155966944 0
          0.0252964286944736 0.112691019068163 0 0 0 0 0 0 0 0.00585601733951479 0.0226627551037106 0
          0.00578347267674638 0.0221317981453567 0 0 0 0 0 0 0 0.0109948346704349 0.0443015728058482 0
          0.0105831529460783 0.0431486945959145 0 0.0152374568465911 0.0651592543658058 0 0.00548116356867628 0.0214873986248063 0 0.0053443036913347 0.0207442120910968 0
          0.00995375219666433 0.0417653116348262 0 0.00920912579389216 0.0401529457685727 0 0.0144045993227899 0.0633888460743351 0 0 0 0
          0 0 0 0.00483913513856031 0.0197456707926441 0 0.00441271060943034 0.0183984876219052 0 0 0 0
          0.00642308399438362 0.024028275026524 0 0.0127712212842428 0.0482591428159997 0 0.0130410636668505 0.0496372361096588 0 0.0190787945949966 0.0724486899160467 0
          0.0191702374137771 0.0735730363581074 0 0.0253698151907081 0.09679919595562 0 0.0192532940366869 0.0745726202294856 0 0.0251781136680147 0.0983857852885785 0
          0.0253153432608313 0.0976664510568894 0 0.0250461069123858 0.0989542347422418 0 0.0317037763184996 0.121155633821399 0 0.0314197459189178 0.121836267112968 0
          0.0380344715273757 0.145583679709307 0 0.0376309740781053 0.146103964684833 0 0.03709538929054 0.146438915864984 0 0.0444878914314442 0.170101640007543 0
          0.0409717533596088 0.158075959020277 0 0.0438230772130408 0.170457332393204 0 0.0510434585914975 0.194689307030281 0 0.0473489330534945 0.182549673113641 0
          0.0311521348058879 0.122348836493829 0 0.0307764176998207 0.122680041378421 0 0.0304071300993753 0.122827361976789 0 0.0359649461904198 0.146526849880074 0
          0.0365881381833956 0.146576815056275 0 0.0423732955807803 0.170621205573674 0 0.0416373128463639 0.170407703840995 0 0.0473186926090958 0.194473594887125 0
          0.0431767847938973 0.17063463737569 0 0.0492666944657357 0.194977961129809 0 0.0501304534964568 0.194880529145291 0 0.0483053245424747 0.194780422300613 0
          0.0353284826767393 0.14625956716363 0 0.0407251592103095 0.169974767320173 0 0.0398358089181973 0.169329791535041 0 0.045139210165171 0.193118315907743 0
          0.0462490458606557 0.193859659014582 0 0.0439061300693538 0.192070505121924 0 0.0486842352326479 0.217669062279664 0 0.0500605236649559 0.218868349906044 0
          0.0548774114048517 0.244669228085302 0 0.0515343669764835 0.219995757994792 0 0.0564608362391347 0.245908520849524 0 0.0581013304590779 0.247075722499896 0
          0.0527681228992011 0.220769736969768 0 0.0613112550067995 0.271862049301396 0 0.0630792048563081 0.273133986053112 0 0.0679664172199161 0.299213577193942 0
          0.0541274765620964 0.221477335621237 0 0.0552572520337822 0.221825704362642 0 0.0611343209893409 0.248661066152923 0 0.0565113697256146 0.222107467558692 0
          0.059577110669493 0.247903098307557 0 0.0649424088476254 0.274338883203877 0 0.0699605515918732 0.300517082284635 0 0.0720597370173976 0.301757766286395 0
          0.0666429931765021 0.275202301453336 0 0.0684479773743063 0.275990132475179 0 0.0740135831999033 0.302652093855607 0 0.0760844007593768 0.303481708471091 0
          0.0625254799062632 0.249060368208673 0 0.064019335823489 0.249399382562621 0 0.0575630964309943 0.222026278949796 0 0.0700803528542212 0.27641325844986 0
          0.074887060483619 0.326698779082778 0 0.0771256609327462 0.328033681993172 0 0.0820939386810302 0.354313491598575 0 0.0794846944490211 0.329301200655219 0
          0.0846008095867866 0.355681889592356 0 0.0872481546976435 0.35699828905538 0 0.0816970360091581 0.330209728779876 0 0.0896127635213815 0.382027532309792 0
          0.0923904538272465 0.383434229963825 0 0.097429726434539 0.409940902116532 0 0 0 0 0.00750409030608902 0.0259633386263955 0
          0 0 0 0 0 0 0.0147523625623048 0.0514862078536519 0 0.00740639032410001 0.0258790086496403 0
          0.00735499504735752 0.0258226851593129 0 0 0 0 0 0 0 0.0217183571134563 0.0765618135870873 0
          0.0145668290683834 0.0513113952043797 0 0.0144215958387402 0.0511568042870961 0 0.0283606029982771 0.101172993845425 0 0.021427468123924 0.0762709165936385 0
          0.00724778588291407 0.0257128868066812 0 0.00720112030905725 0.0256318876350271 0 0.0142277245402843 0.0509371364833688 0 0.0140789053989007 0.0507430057580978 0
          0.0211875957571943 0.0759941918035124 0 0 0 0 0 0 0 0.00708483045122823 0.0254884327938096 0
          0.00702840870675585 0.0253678613772881 0 0 0 0 0.0346461536836707 0.125301914123618 0 0.027957324438747 0.100743232515782 0
          0.0276116078316305 0.100322507548588 0 0.0405405310947415 0.148933826173371 0 0.0341206584629191 0.124710492348279 0 0.0336591296582043 0.124122235379158 0
          0.027202459161909 0.0998102625944613 0 0.0268557831451944 0.0993103624193648 0 0.0460130376871961 0.172060746592872 0 0.0398839533748544 0.148160346107664 0
          0.03929647449538 0.147383860294296 0 0.0452159565181076 0.171087510291242 0 0.0331268491769982 0.123431896778092 0 0.0208891739949165 0.0756412901548174 0
          0.0206574168654565 0.0753043644850206 0 0.0138836430222119 0.0504908391025829 0 0.0137507783624018 0.0502758552426238 0 0.0203541783652378 0.0748818587959792 0
          0.00687626793518151 0.0250658188214822 0 0.0134260980103021 0.0497059851490349 0 0.0201212399423633 0.0744671082334223 0 0.0261077631590924 0.098151045803571 0
          0.0264453758439213 0.0987207260047024 0 0.0195926218275352 0.073498972712473 0 0.032670321912536 0.122747397302773 0 0.0386293115725695 0.14649027355624 0
          0.0321328925909026 0.121949929800977 0 0 0 0 0.00672572325201974 0.0247588000069994 0 0 0 0
          0.013090748527558 0.0490397985152217 0 0.00657373636386345 0.0244014257944232 0 0 0 0 0.10318292168208 0.348057416936903 0
          0.0957935577414515 0.328896382030395 0 0.0969205243480815 0.326747124851985 0 0.0906374649607209 0.3054694038193 0 0.0886061299717912 0.309682999454099 0
          0.089660106319258 0.307628778970755 0 0.083535238343001 0.286426265002273 0 0.0843184655913481 0.284110243173165 0 0.0779783187512848 0.262781831594979 0
          0.081719106710422 0.290477306250516 0 0.0826427022285468 0.288495710453997 0 0.0766709016978325 0.26735366352105 0 0.0750842865736129 0.271271961086647 0
          0.0758942047818094 0.269355528346542 0 0.0773510256870767 0.265109774884015 0 0.0711642410040961 0.24383448291799 0 0.0706315491761198 0.2460906718448 0
          0.0645834959980095 0.224856516765668 0 0.0700626172991989 0.248272589009254 0 0.0716044656572076 0.241352789051932 0 0.0652111831775974 0.219937389858123 0
          0.0649184742237803 0.222432287773377 0 0.0586699354542423 0.201047004437249 0 0.0587875524728478 0.198402418476972 0 0.0523450671763126 0.176857821899781 0
          0.0687109728504415 0.252079253792212 0 0.0693977943750054 0.250215813012612 0 0.0636999507458857 0.229189857805528 0 0.0625872261956096 0.232906823629196 0
          0.0631514944904732 0.231086562970506 0 0.0575775367208549 0.210118475005921 0 0.0579188185381612 0.20802438382151 0 0.0521229599497395 0.186870136802103 0
          0.0567058441259801 0.213778613472882 0 0.0571450543940443 0.211982497059744 0 0.0516843986622499 0.191069496429309 0 0.0513682142178355 0.192912898552631 0
          0.0519111872094772 0.189000548421965 0 0.0641564275232094 0.227058466520387 0 0.0582389807884474 0.205865026858618 0 0.0584693717786705 0.203486688568147 0
          0.0523476017937149 0.182121455140151 0 0.0522463825635274 0.184524298718809 0 0.0523633854845212 0.179517551737559 0 0.0460545935148059 0.15797742504155 0
          0.0461596922306147 0.160601198954654 0 0.0399644518590344 0.139057126931021 0 0.0462428142337911 0.163178774135371 0 0.0401621469850156 0.14166522642408 0
          0.0403457787120656 0.14423229459446 0 0.0462418598739575 0.165558594516475 0 0.0340703153629737 0.12011638207759 0 0.0343601396115174 0.12272550708833 0
          0.0462268024672896 0.167886536771651 0 0.0461229755250972 0.170001777865771 0 0.0404453917930409 0.146605522806319 0 0.0458748119768158 0.155171431819063 0
          0.0393862064351122 0.13344735301296 0 0.0396881551892745 0.136271721561517 0 0.0333202366250358 0.114523270487072 0 0.0328718226104495 0.111555389440149 0
          0.0263395668485817 0.0895929986787385 0 0.0337020030313198 0.117334224830666 0 0.0274325504816202 0.0955539345962096 0 0.0278988292371456 0.0983736881136037 0
          0.0268945879414189 0.0925835663439569 0 0.0204684667619648 0.0705644074358229 0 0.0210948122672189 0.0735667281769579 0 0.0197830181367576 0.0674327536912412 0
          0.0132083299904938 0.0451645581241773 0 0.01398450659357 0.0483237166747321 0 0.00661082909538203 0.0226623994649549 0 0.00854485656429005 0.0288787323064113 0
          0.0172967659559707 0.0575011214089055 0 0.0152381169336737 0.0513261053709991 0 0.0219096643844081 0.0736479001096752 0 0.0263306944504413 0.0858847518604109 0
          0.0241014447522012 0.0797709285145449 0 0.0308858581812071 0.101945079478952 0 0.0356633274103926 0.114027965604009 0 0.0332584620251621 0.107999638349769 0
          0.0285923653599302 0.0957708601255666 0 0.0352444012007227 0.117805675314944 0 0.0376897997261399 0.123939147521389 0 0.0444679210682615 0.145875342160735 0
          0.040171013724806 0.130046313681445 0 0.0419031935825941 0.139674496383917 0 0.0485301618759033 0.161486712169805 0 0.0453190613169388 0.141934543683426 0
          0.0427307979975058 0.136012087002543 0 0.0497869083478141 0.157955247403594 0 0.0553141415811214 0.16961508755251 0 0.0525388306867552 0.163814273339634 0
          0.0597508348637198 0.185678138476501 0 0.0568779370741317 0.179763854123013 0 0.0639507024011945 0.201563994391886 0 0.0656566234478906 0.197084523044794 0
          0.0626957698978573 0.191417078170532 0 0.0700730913639403 0.21322677850947 0 0.0763414093370065 0.22436069067516 0 0.0732065438189981 0.21883559571413 0
          0.0670025499357997 0.207430550674741 0 0.0471118407963722 0.151936066686596 0 0.0540307455865251 0.173792962162946 0 0.0512606313727663 0.167663254494377 0
          0.0580267484242374 0.189421781333033 0 0.0609716041152108 0.195522984312639 0 0.0551600814357138 0.183162756503478 0 0.0617572415265786 0.204809835716146 0
          0.0648021111304689 0.211060076749904 0 0.0715496804363492 0.232693736140516 0 0.0678893869474793 0.217245837125343 0 0.0748220870196123 0.238868453805677 0
          0.0781305909060581 0.244967066384398 0 0.0710505977228475 0.223258347686471 0 0.0817298889155407 0.260505677213099 0 0.0852294906353441 0.266595508565632 0
          0.0923095013303203 0.288259943484163 0 0.0742393403061327 0.229197273972359 0 0.0774934746821709 0.234949812982586 0 0.0849045965612555 0.256709410667624 0
          0.080759265219902 0.240621209562957 0 0.0815068385076144 0.250880170567832 0 0.0887603484800494 0.272599341859935 0 0.0683533122175307 0.226346835233872 0
          0.0749156723770207 0.247878043696973 0 0.0783004876415079 0.254231647557276 0 0.0850217591187449 0.275785323787157 0 0.0886453019245527 0.282066312781268 0
          0.0814720517110642 0.269321691338042 0 0.0879932147627522 0.290777941763951 0 0.0917396892545796 0.297265002548162 0 0.0984294481458974 0.318780285995783 0
          0.0955372450607459 0.303662055326733 0 0.0945020755374252 0.312166407004354 0 0.100977632997649 0.333583886466808 0 0.103345448589708 0.357019569227697 0
          0.103271040923398 0.36577517999084 0 0.0959594468289853 0.337681555485426 0 0.102901478578809 0.374006612660739 0 0.0961034467753284 0.346350963850134 0
          0.102293900911665 0.382022384379489 0 0.0889122459780804 0.318358923138395 0 0.0891261608232289 0.326906917731031 0 0.0957355399822318 0.354416163612415 0
          0.0821151973732748 0.299041662708897 0 0.101409835331541 0.38948561888226 0 0.0953737520777856 0.362359388068015 0 0.100304896638846 0.396737032219851 0
          0.094507751476121 0.369671363551501 0 0.0886465536225565 0.342695731076806 0 0.0989627801261419 0.403431397346917 0 0.0936791431889288 0.376864551402983 0
          0.0889199352371939 0.334868060568237 0 0.0824571745799222 0.307487738319504 0 0.0755936105282509 0.27973871434412 0 0.0760497984628966 0.288089930853854 0
          0.0823616633163749 0.315344160961088 0 0.082235671797705 0.323077595301445 0 0.0760858204602876 0.295850714217232 0 0.0879674333989317 0.349914130320698 0
          0.069330833365892 0.26045960941325 0 0.0699106987845042 0.268732100076234 0 0.063322626216094 0.241210961651708 0 0.174309421226022 0.63871260915958 0
          0.163325038440509 0.6092357802538 0 0.166908981811484 0.60283292571445 0 0.15260791959272 0.580115596800587 0 0.15605961127735 0.573690327489583 0
          0.159005718959871 0.566799833340645 0 0.142482249076065 0.551212949783309 0 0.14545482607744 0.544850660400371 0 0.13259311976981 0.522594564154405 0
          0.148282588001005 0.537958316479781 0 0.137812994211364 0.50937882213045 0 0.135431482699819 0.516195421726947 0 0.150631303786424 0.530622309050178 0
          0.14005322521972 0.502056517256978 0 0.141832195070966 0.494320895415695 0 0.123291188475438 0.494136246322533 0 0.125644358846487 0.487784809617744 0
          0.114210176546681 0.465911282726481 0 0.116429277886962 0.459508856602125 0 0.118245359142632 0.45273910607749 0 0.105709361065323 0.437802393859361 0
          0.10742911490267 0.431422729366169 0 0.127906455645137 0.480952506826453 0 0.12973127279838 0.4737158104698 0 0.131412396605587 0.466006722379742 0
          0.121255531610268 0.437885266932832 0 0.119955964647915 0.445496931142456 0 0.110416356672199 0.417452969584862 0 0.111630457681829 0.409861621771811 0
          0.109140703697021 0.424637251649405 0 0.132645538958312 0.45790781924291 0 0.122394316827054 0.429816901528886 0 0.123116842432941 0.421393132117466 0
          0.112392074754365 0.401880687890595 0 0.113047243634561 0.393505120785629 0 0.113252939821179 0.384765285430656 0 0.108245255914726 0.366402621825159 0
          0.17683669558451 0.633982094353068 0 0.179135174302455 0.629051590103963 0 0.168999301409798 0.597769003660517 0 0.170869727705322 0.59252354752042 0
          0.181300205918742 0.623833128778753 0 0.183234267240947 0.61841172347853 0 0.16068256145259 0.561433987374303 0 0.162146809407578 0.555898712240887 0
          0.151914892989182 0.524985838087691 0 0.172613935899531 0.586997633325005 0 0.174131680369095 0.581293842588069 0 0.163489317045014 0.550102423799198 0
          0.164615476861567 0.54413944846627 0 0.152991378464848 0.51918951789255 0 0.185022615720452 0.612719335020627 0 0.186579395748347 0.606830006100567 0
          0.175517330030889 0.575327003963844 0 0.176673843645821 0.56918574772636 0 0.187983382174758 0.600686135523404 0 0.18915721167735 0.594352159470439 0
          0.142740352796132 0.488440165818147 0 0.143448258422443 0.482409384340521 0 0.133197485812609 0.451808273288707 0 0.133551308940684 0.445567143733819 0
          0.1440480478257 0.476152764516893 0 0.144445599156356 0.469748990143288 0 0.123314581332371 0.415087644621463 0 0.118266388011365 0.396715320717357 0
          0.123371122661331 0.408649899579557 0 0.113138094143129 0.378296470740216 0 0.133798237500151 0.4391174541321 0 0.153953625026869 0.513150775312532 0
          0.154706182937125 0.506955203982653 0 0.165614823000669 0.537931744804523 0 0.166396617444813 0.531561317813022 0 0.155340806755658 0.500532835889811 0
          0.177694512689106 0.562799445075582 0 0.178485589507513 0.556243110401223 0 0.167048281864563 0.524963267931123 0 0.167482922132655 0.518207353818608 0
          0.155765882762221 0.493958099466457 0 0.156069977112966 0.487173109161563 0 0.144820527632968 0.456381147216342 0 0.144735304735439 0.46313625225437 0
          0.156165540798482 0.480240841119126 0 0.144796990259983 0.449431891013066 0 0.144579453404645 0.442346374581501 0 0.13387949871479 0.432523268340508 0
          0.128575270406355 0.420596766364328 0 0.123269355580334 0.402035986921729 0 0.128498094505294 0.413905999801519 0 0.123039196722314 0.395265553907219 0
          0.118160810503422 0.390179195279781 0 0.112883262804083 0.371680967019948 0 0.107964217538299 0.359881415878756 0 0.117902015240795 0.38348585942725 0
          0.133826613268533 0.42574549639471 0 0.133605058143185 0.418815812655105 0 0.128270985477046 0.407054332453546 0 0.190173509649377 0.587780194673661 0
          0.190962481339737 0.581025506231364 0 0.179138819223668 0.549459992630989 0 0.179563637934503 0.542511868218244 0 0.191590948859712 0.574049636608189 0
          0.191996569588201 0.566899047492533 0 0.16778549278305 0.511241293752606 0 0.167872579452731 0.504123051703279 0 0.156138917871862 0.473116271314431 0
          0.179850387939972 0.53535534372441 0 0.179911328278304 0.528039537448208 0 0.167827513040474 0.496811986455365 0 0.167575983344304 0.489352859335432 0
          0.155909012749953 0.46584609700251 0 0.192240090712006 0.559544314219214 0 0.192266730070767 0.552023714871486 0 0.179836705101134 0.520534276568737 0
          0.179547829425692 0.512875410320945 0 0.192127076597658 0.544315022734831 0 0.191769208322348 0.536440772265284 0 0.276727555447275 0.889952521335029 0
          0.262675375729185 0.856700217739095 0 0.269447632769199 0.846174750732496 0 0.24897143788349 0.823996789703491 0 0.259176476064341 0.835177787377247 0
          0.255588956211338 0.813705928341822 0 0.265380830992246 0.824213548502541 0 0.261157832159811 0.802193338907504 0 0.235605943067432 0.791905519211669 0
          0.245531030146652 0.802868454780285 0 0.24198851027057 0.781747962483893 0 0.222602289016058 0.760352030222248 0 0.232211990395124 0.771115096252821 0
          0.251524195255955 0.792049932610807 0 0.247373690554803 0.770441674252834 0 0.237982178176374 0.760449456863468 0 0.23388473502313 0.739172492878015 0
          0.228714197850726 0.750326353809512 0 0.256504331382339 0.780100022533458 0 0.251744660036218 0.757998244555359 0 0.242775424301408 0.748665858098349 0
          0.238103417596358 0.72695506901767 0 0.246599195787725 0.735844177925392 0 0.24136296996237 0.713693948938954 0 0.209912487512137 0.729242737708242 0
          0.219263419340591 0.739886458072273 0 0.212949732265491 0.724422840810045 0 0.215731886961345 0.71933080000899 0 0.203747283662925 0.713893159390045 0
          0.206677430990771 0.709108451038792 0 0.197637172145912 0.69866333324122 0 0.209425865630188 0.704032639903663 0 0.203162892682523 0.68885098649755 0
          0.200528230155485 0.69388378699812 0 0.211918275570981 0.698704080531004 0 0.205624570995475 0.683536896996485 0 0.207838479787053 0.677980518381492 0
          0.191676996472805 0.683518474782486 0 0.194433982607535 0.678779065540145 0 0.185769168062545 0.668494778941479 0 0.188484695716565 0.663752759523065 0
          0.190957287523552 0.658769203180883 0 0.180015013422211 0.653544775665612 0 0.182588404287153 0.648837515172885 0 0.197032965640524 0.67375422819893 0
          0.199385858226711 0.668485107479205 0 0.224778256758291 0.72935880040518 0 0.218325125999217 0.713960998093673 0 0.220664308671298 0.708328890165766 0
          0.214229096420367 0.693098673926843 0 0.229373038067452 0.717748865164574 0 0.222806393717995 0.702432838529651 0 0.224697447143876 0.696285939111928 0
          0.216287704945886 0.687251291191363 0 0.233036706387568 0.705107630882493 0 0.227824696070078 0.683263891717525 0 0.226382354371423 0.689891470790879 0
          0.219778091278236 0.674801368122932 0 0.221203941119583 0.668215497189115 0 0.214627937743369 0.653272143228686 0 0.218156685277346 0.681141498259426 0
          0.211661988839766 0.666103672047351 0 0.209872145246479 0.67215783966149 0 0.213264348353979 0.659797897975139 0 0.206807360145706 0.644900022549611 0
          0.205278657610258 0.65114840825499 0 0.198950838032727 0.636296107919426 0 0.203512737340011 0.657175151611604 0 0.208152592027847 0.638410456172912 0
          0.201732935018119 0.623647256771013 0 0.200457983589017 0.630078073322932 0 0.194166917848877 0.615352783930088 0 0.195420418895346 0.608954934760139 0
          0.201570091251232 0.662946400711907 0 0.195356382166684 0.648019772086233 0 0.19327660097035 0.653511179247727 0 0.187223623296318 0.638642401823586 0
          0.189271307826412 0.63316628227875 0 0.185022774215293 0.643858441321173 0 0.197271734188618 0.642269521909576 0 0.1910881890135 0.627464842801671 0
          0.192740701508118 0.621515923459512 0 0.235790329918732 0.691519583745279 0 0.229066340104438 0.67639920958141 0 0.230054687716767 0.66929056122929 0
          0.222390335865603 0.661410811826319 0 0.223371651938429 0.654369063555067 0 0.216736098327822 0.639537309752383 0 0.215799309354201 0.646509511120817 0
          0.224121762878025 0.647124006821597 0 0.217477385430034 0.632344882793198 0 0.217991246283055 0.624952949106032 0 0.209266127340035 0.631710464066663 0
          0.202830217686189 0.616986195926692 0 0.203700238449812 0.61012304223231 0 0.196453130967525 0.602354243759543 0 0.210190227350749 0.624783492972494 0
          0.210889512532474 0.617658777151611 0 0.211396174235146 0.610321961472341 0 0.204855991287448 0.59577620324551 0 0.204388428873768 0.603044806151386 0
          0.197946018834025 0.588518770344799 0 0.198401605379949 0.581297870534999 0 0.197306656268232 0.595531959559421 0 0.211684617298128 0.602796834188051 0
          0.205138964335049 0.588306966957983 0 0.205207674836755 0.580655131792814 0 0.198650543221758 0.573898821259709 0 0.198711543248122 0.566306195853386 0
          0.198571185387061 0.558546897391525 0 0 0 0 0 0 0 0.00866707862789667 0.0288691334515257 0
          0 0 0 0.00885769154905186 0.0289112933487062 0 0 0 0 0.0176034961406325 0.0574820202755194 0
          0.0179561686820119 0.0574707599254701 0 0.00898018727864868 0.0288312321491861 0 0.0268174731863075 0.0858066092306357 0 0 0 0
          0.009131331643309 0.0287720645628155 0 0 0 0 0.00925862601589511 0.0286217453145039 0 0.0185385703393003 0.0571132549090016 0
          0 0 0 0.00936774071673786 0.0284644692464991 0 0 0 0 0.0182342135021845 0.0573019027964552 0
          0.0273460834143313 0.0857025267177601 0 0.0363380264554875 0.113850950473488 0 0.0370477848559082 0.113618058005508 0 0.0277863219002429 0.085402699466163 0
          0.0282397625885987 0.0850499380120659 0 0.0376484054314774 0.113154241724559 0 0.0382589819373913 0.112612856382515 0 0.0187890680685011 0.0567962652350406 0
          0.0190378431895474 0.0564431425472998 0 0.00949648256316009 0.0282449977260016 0 0.0286342380837765 0.0845299189724955 0 0.0461840264679617 0.141625386949413 0
          0.0470732909485142 0.141232620068983 0 0.0563660182200627 0.169145628738654 0 0.0574335918780157 0.168570646658958 0 0.0478410821525383 0.140576859305261 0
          0.06689428763401 0.196435539858188 0 0.10153995577275 0.259896064861532 0 0.0984675180375144 0.25606994168485 0 0.0945898208181361 0.244018504072319 0
          0.0877094158256049 0.228106523025636 0 0.09536343876311 0.252059717292548 0 0.0915911662675236 0.240096186394086 0 0.0847781853175598 0.224097158146103 0
          0.080912792213751 0.212216399394831 0 0.0741872229767225 0.196276945021417 0 0.0922284273483945 0.247872340773659 0 0.0885611251189265 0.235999443328647 0
          0.0818247189670629 0.219909816786011 0 0.0890688384046083 0.2435103148968 0 0.0855070836793236 0.231727919320728 0 0.0780545249458983 0.208101335116036 0
          0.0713994360500415 0.192064652928885 0 0.0751774036194762 0.20381851336191 0 0.0686016276380493 0.187681794219921 0 0.0788525318285342 0.215553134459341 0
          0.0675483559869073 0.180337036478255 0 0.0609838119740876 0.16433253550454 0 0.0648357404680458 0.17600939531995 0 0.0583439612214674 0.15989663379335 0
          0.0545079149872273 0.148302974562556 0 0.0481094786049275 0.13219259926831 0 0.0858969005641267 0.238971769198579 0 0.0824367359803806 0.227283843892339 0
          0.0758697665948016 0.211029619927408 0 0.0827100526643344 0.234272223499963 0 0.0793530580851956 0.222674676918706 0 0.0728769718215278 0.206342144188296 0
          0.069393772744425 0.194755475451532 0 0.0629924741928854 0.178432411954298 0 0.0794833416634066 0.229383073389954 0 0.0762619679722042 0.217897194915481 0
          0.0698935314891308 0.201493891202881 0 0.0664955768076735 0.189979498417215 0 0.0722887784089035 0.199368394909515 0 0.0657966898413591 0.18313777238661 0
          0.0621164862560492 0.171521029504112 0 0.0557059475531858 0.155298634745171 0 0.0593976206754108 0.166873648480432 0 0.0519448387893537 0.143742066139539 0
          0.0456208199731691 0.127513177660591 0 0.0493869415793481 0.13902904276813 0 0.0431455497830167 0.122680891375802 0 0.0530726608783953 0.15054938580259 0
          0.0468391375888512 0.134167221677935 0 0.0504567336532671 0.145655890921831 0 0.0566879446360661 0.162071176377874 0 0.0406863850618468 0.117703646606522 0
          0.0601901823823151 0.173564890546732 0 0.0418007189231334 0.116031830599926 0 0.0355719936551421 0.0997744224183772 0 0.0393901790650622 0.111219039558156 0
          0.0332368178224433 0.0948351903375933 0 0.0294326779179641 0.0834405818771056 0 0.0233754660225976 0.0669935026684679 0 0.0369984833475887 0.106264392607513 0
          0.0309245476023514 0.0897642592124113 0 0.0271725539448425 0.0783605003004345 0 0.0211953771839219 0.061770976660639 0 0.017409664824823 0.0504442511031878 0
          0.0115206304195491 0.0337768707265477 0 0 0 0 0 0 0 0.00576571866778277 0.0167914915959665 0
          0.0116242382485824 0.0334296531314772 0 0 0 0 0.00581029968786605 0.0166082219127601 0 0.0117099033231929 0.0330553837417182 0
          0 0 0 0.00584274424604601 0.0164039879852751 0 0.0175649712854438 0.0499451324226616 0 0.0235925148495455 0.0663235248912534 0
          0.0176962275438088 0.0493884299279561 0 0.0237712245028211 0.0655783604845 0 0.0117780870693536 0.0326401916481594 0 0.0297071592508418 0.0826091424794485 0
          0.0359068044178743 0.098773171160743 0 0 0 0 0.00586630827761334 0.0161804486277236 0 0.0118278250325167 0.0321872858686294 0
          0 0 0 0.00588052461819952 0.0159386688017531 0 0.011858292677628 0.0316989690787154 0 0.0178760218268835 0.0481010964117057 0
          0.0240158011909857 0.0638601873474868 0 0 0 0 0.0058860892219621 0.0156799396848033 0 0.0118695346997215 0.0311774766638616 0
          0 0 0 0.00587251325009772 0.0154102719781538 0 0.0179217214680301 0.0473774685103197 0 0.0178003646372943 0.0487725656131165 0
          0.0239130670134977 0.0647554628922335 0 0.0299337222649477 0.0816833919487335 0 0.0361819191696056 0.0976621701184048 0 0.0301122921198366 0.0806638800536986 0
          0.0421938748368628 0.114872318347089 0 0.0485633877642099 0.130865722904122 0 0.0425170649839431 0.113584306168038 0 0.0489346866636954 0.129396886248986 0
          0.0363984322600206 0.0964404277467875 0 0.0427697989372297 0.112170880126504 0 0.0365536360876414 0.0951134332957005 0 0.0302410259811322 0.0795555626054967 0
          0.0492241434339786 0.127785784175035 0 0.0429494206824905 0.110637212292571 0 0.0494319197497684 0.126055357141531 0 0.024077290365851 0.0628952029839492 0
          0.0179329022851803 0.0466048486014327 0 0.0241012425974159 0.0618745233673896 0 0.0118445142942251 0.0306629713799553 0 0.0303189084683527 0.0783610749577919 0