<?xml version="1.0"?>
<VTKFile type="PolyData" version="0.1" byte_order="LittleEndian">
  <PolyData>
    <Piece NumberOfLines="2184" NumberOfPoints="560">
      <PointData Scalars="poreInscribedRadius">
        <DataArray type="Float32" Name="poreInscribedRadius" NumberOfComponents="1" format="ascii">
          6.08337e-05 8.43296e-05 6.42366e-05 9.15811e-05 5.97334e-05 5.44085e-05 2.69925e-05 3.39144e-05 2.78835e-05 6.19158e-05 7.6959e-05 6.48561e-05
          6.8071e-05 4.49386e-05 6.46502e-05 6.8071e-05 3.60774e-05 4.88211e-05 1.9865e-05 4.49386e-05 3.04206e-05 4.49386e-05 5.83877e-05 3.81311e-05
          3.39144e-05 7.30117e-05 5.60786e-05 8.91755e-05 3.74577e-05 2.04414e-05 3.81311e-05 5.9955e-05 1.30985e-05 1.0489e-05 2.41548e-05 5.29385e-05
          5.97334e-05 5.24401e-05 7.55461e-05 4.07249e-05 9.67853e-05 3.94471e-05 5.0141e-05 5.34327e-05 5.81606e-05 3.60774e-05 1.9865e-05 7.16094e-07
          4.88211e-05 2.20961e-05 3.27861e-05 9.40729e-05 4.07249e-05 2.74411e-05 1.92747e-05 5.67805e-05 6.23438e-05 1.14061e-05 6.25567e-05 3.3166e-05
          5.29385e-05 5.41661e-05 1.14061e-05 5.06602e-05 5.65474e-05 4.13505e-05 2.65375e-05 1.22735e-05 4.46496e-05 5.44085e-05 2.78835e-05 1.67511e-05
          4.22733e-05 4.10388e-05 4.37721e-05 1.92747e-05 2.20961e-05 3.3542e-05 8.70188e-05 7.001e-05 6.31915e-05 1.0489e-05 4.82839e-05 7.26429e-05
          5.513e-05 3.3542e-05 3.27861e-05 5.26898e-05 3.46487e-05 5.44085e-05 4.57957e-05 4.98796e-05 4.43588e-05 3.60774e-05 7.42891e-05 4.88211e-05
          3.53694e-05 5.9955e-05 1.8048e-05 5.67805e-05 6.06109e-06 4.88211e-05 3.27861e-05 4.34761e-05 4.57957e-05 1.67511e-05 2.04414e-05 4.16602e-05
          2.74411e-05 1.74091e-05 2.60758e-05 7.50098e-05 1.8048e-05 4.71928e-05 7.32288e-06 7.32288e-06 6.42366e-05 2.20961e-05 6.29806e-05 2.15561e-05
          7.20863e-05 5.21892e-05 6.54701e-05 2.93007e-06 2.74411e-05 6.06109e-06 1.67511e-05 5.11745e-05 6.48561e-05 3.87941e-05 1.9865e-05 5.513e-05
          3.42833e-05 6.56736e-05 5.88395e-05 7.05819e-05 6.06151e-05 1.14061e-05 4.71928e-05 5.34327e-05 4.34761e-05 1.22735e-05 5.70126e-05 6.06109e-06
          1.14061e-05 3.12264e-05 4.90877e-05 5.44085e-05 3.16226e-05 2.69925e-05 2.46469e-05 5.44085e-05 7.41079e-05 5.31861e-05 4.34761e-05 6.06109e-06
          6.48561e-05 6.17008e-05 2.74411e-05 3.87941e-05 3.27861e-05 6.06109e-06 3.81311e-05 5.513e-05 2.20961e-05 1.14061e-05 3.27861e-05 3.39144e-05
          6.06109e-06 1.14061e-05 1.14061e-05 3.91218e-05 4.90877e-05 3.3166e-05 5.14299e-05 5.14299e-05 2.74411e-05 1.74091e-05 5.26898e-05 5.31861e-05
          2.95958e-05 9.05361e-05 2.65375e-05 5.34327e-05 1.14061e-05 2.20961e-05 2.46469e-05 6.17008e-05 5.97334e-05 5.0918e-05 5.97334e-05 4.80132e-05
          7.55461e-05 4.49386e-05 5.31861e-05 4.88211e-05 5.60786e-05 3.64268e-05 4.07249e-05 2.69925e-05 8.46362e-06 1.8048e-05 4.98796e-05 4.22733e-05
          3.71169e-05 4.22733e-05 4.88211e-05 2.5607e-05 1.67511e-05 1.67511e-05 1.86694e-05 1.14061e-05 7.42891e-05 4.49386e-05 3.84639e-05 5.14299e-05
          5.97334e-05 2.91758e-05 3.39144e-05 1.74091e-05 1.67511e-05 6.06109e-06 8.23814e-05 5.41661e-05 5.95111e-05 2.95958e-05 3.84639e-05 6.06109e-06
          6.06151e-05 2.95958e-05 4.46496e-05 4.49386e-05 3.60774e-05 4.34761e-05 2.26254e-05 5.0141e-05 8.1058e-05 7.50098e-05 1.46428e-05 2.83199e-05
          2.41548e-05 1.53703e-05 7.62556e-05 6.64817e-05 7.48302e-05 1.0489e-05 1.22735e-05 3.60774e-05 3.12264e-05 3.27861e-05 4.80132e-05 2.20961e-05
          3.08258e-05 1.67511e-05 1.14061e-05 1.14061e-05 5.72439e-05 5.0141e-05 7.41079e-05 5.513e-05 1.92747e-05 7.32288e-06 4.22733e-05 2.31445e-05
          2.74411e-05 3.04206e-05 6.06109e-06 4.98796e-05 3.87941e-05 4.49386e-05 2.15561e-05 1.67511e-05 6.72807e-05 1.22735e-05 1.14061e-05 5.14299e-05
          7.18998e-05 3.5725e-05 1.0489e-05 3.3166e-05 3.46487e-05 2.20961e-05 1.67511e-05 1.14061e-05 2.15561e-05 3.00107e-05 4.34761e-05 3.84639e-05
          1.67511e-05 2.65375e-05 6.03958e-05 5.0918e-05 6.8071e-05 2.69925e-05 2.95958e-05 4.46496e-05 1.46428e-05 4.40664e-05 5.14299e-05 3.16226e-05
          6.06109e-06 5.06602e-05 5.72439e-05 5.04012e-05 4.71928e-05 2.5607e-05 4.43588e-05 3.64268e-05 2.74411e-05 6.56736e-05 2.74411e-05 2.20961e-05
          4.31782e-05 4.85532e-05 5.31861e-05 5.29385e-05 2.74411e-05 1.14061e-05 2.20961e-05 4.34761e-05 1.46428e-05 6.38205e-05 2.41548e-05 1.74091e-05
          4.07249e-05 4.22733e-05 7.41079e-05 4.43588e-05 1.30985e-05 2.91758e-05 8.67065e-05 1.0489e-05 2.20961e-05 6.50614e-05 3.27861e-05 7.55461e-05
          5.60786e-05 4.88211e-05 4.13505e-05 1.74091e-05 4.43588e-05 1.0489e-05 5.0141e-05 5.24401e-05 3.3166e-05 3.27861e-05 4.90877e-05 1.74091e-05
          5.79327e-05 6.48561e-05 6.12687e-05 6.06109e-06 1.67511e-05 1.74091e-05 3.46487e-05 1.74091e-05 1.92747e-05 2.26254e-05 4.98796e-05 7.32288e-06
          3.3542e-05 1.14061e-05 3.64268e-05 6.06109e-06 4.80132e-05 4.00906e-05 3.87941e-05 1.67511e-05 6.06109e-06 7.16094e-07 5.83877e-05 2.20961e-05
          7.74825e-05 5.04012e-05 1.74091e-05 1.14061e-05 4.13505e-05 7.44699e-05 6.36115e-05 1.86694e-05 1.46428e-05 6.06109e-06 3.27861e-05 2.91758e-05
          2.74411e-05 3.60774e-05 1.67511e-05 1.74091e-05 2.20961e-05 1.14061e-05 5.513e-05 6.36115e-05 1.46428e-05 5.29385e-05 4.07249e-05 6.50614e-05
          3.71169e-05 3.08258e-05 4.62891e-06 6.48561e-05 4.07249e-05 1.53703e-05 5.95111e-05 3.16226e-05 1.53703e-05 3.81311e-05 1.9865e-05 2.20961e-05
          2.20961e-05 1.67511e-05 8.46362e-06 2.83199e-05 2.15561e-05 1.86694e-05 6.48561e-05 2.04414e-05 1.14061e-05 3.42833e-05 2.46469e-05 4.71928e-05
          2.20961e-05 1.46428e-05 2.69925e-05 6.06109e-06 2.93007e-06 2.15561e-05 3.27861e-05 5.95111e-05 2.74411e-05 2.20961e-05 2.31445e-05 7.32288e-06
          7.32288e-06 2.46469e-05 2.15561e-05 2.41548e-05 1.9865e-05 2.65375e-05 4.43588e-05 1.67511e-05 2.26254e-05 3.5725e-05 1.22735e-05 4.71928e-05
          1.67511e-05 4.57957e-05 1.30985e-05 3.27861e-05 1.74091e-05 3.39144e-05 2.41548e-05 4.98796e-05 6.06109e-06 3.12264e-05 6.06109e-06 1.67511e-05
          3.27861e-05 5.0141e-05 1.8048e-05 2.20961e-05 4.19677e-05 4.34761e-05 5.31861e-05 1.8048e-05 3.3166e-05 1.14061e-05 4.25769e-05 2.74411e-05
          1.74091e-05 2.20961e-05 2.74411e-05 4.10388e-05 3.91218e-05 2.74411e-05 8.46362e-06 1.67511e-05 6.06109e-06 1.67511e-05 5.58429e-05 2.20961e-05
          2.46469e-05 1.0489e-05 2.20961e-05 3.3542e-05 1.53703e-05 8.46362e-06 1.53703e-05 6.5266e-05 4.07249e-05 3.27861e-05 2.20961e-05 1.46428e-05
          4.71928e-05 2.20961e-05 1.74091e-05 1.14061e-05 3.81311e-05 2.93007e-06 6.06109e-06 4.85532e-05 2.93007e-06 1.74091e-05 1.22735e-05 1.14061e-05
          4.88211e-05 1.22735e-05 1.14061e-05 3.27861e-05 1.46428e-05 6.06109e-06 2.78835e-05 5.9955e-05 4.55116e-05 2.5607e-05 1.0489e-05 2.95958e-05
          6.06109e-06 1.46428e-05 3.64268e-05 2.26254e-05 6.06109e-06 7.32288e-06 1.0489e-05 6.06109e-06 2.83199e-05 3.53694e-05 2.93007e-06 1.0489e-05
          3.3166e-05 5.97334e-05 2.41548e-05 2.26254e-05 3.81311e-05 3.81311e-05 1.14061e-05 7.16094e-07 1.74091e-05 2.93007e-06 1.14061e-05 2.83199e-05
          4.37721e-05 1.22735e-05 1.14061e-05 2.65375e-05 1.14061e-05 1.46428e-05 6.06109e-06 1.22735e-05 7.16094e-07 3.12264e-05 1.0489e-05 2.46469e-05
          2.20961e-05 1.22735e-05 3.60774e-05 2.41548e-05 1.14061e-05 6.06109e-06 1.0489e-05 1.0489e-05
        </DataArray>
        <DataArray type="Float32" Name="T" NumberOfComponents="1" format="ascii">
          303.973 303.034 302.751 311.234 305.75 309.511 304.444 304.117 303.586 314.718 301.875 303.341
          305.604 302.532 305.934 305.637 307.446 306.701 305.638 305.372 304.982 305.583 306.879 303.981
          303.426 308.154 306.265 306.847 305.438 300.757 301.026 300.494 300.697 301.007 300.917 309.045
          307.382 306.766 318.265 314.233 302.95 321.642 319.218 308.843 310.907 311.647 305.852 301.923
          315.417 344.248 354.74 359.5 333.693 352.155 300.973 300.823 300.667 300.708 301.091 300.939
          371.007 400 375.267 340.54 338.269 368.227 338.991 342.285 341.471 325.6 400 400
          400 400 336.282 394.35 400 400 400 376.088 302.848 303.845 307.346 301.854
          302.425 301.715 301.305 304.538 303.323 303.49 303.809 305.865 301.214 301.22 302.166 302.674
          300.727 313.052 317.775 307.737 308.442 311.826 308.357 327.041 309.423 313.33 321.859 321.634
          316.784 310.465 310.926 309.772 317.233 315.051 313.74 309.59 318.66 353.658 366.688 351.097
          316.071 400 340.608 308.991 308.609 307.053 306.852 306.698 301.485 301.371 302.564 302.585
          301.534 304.371 302.566 302.709 301.697 304.394 311.506 301.917 303.518 303.885 305.356 302.551
          302.551 355.546 316.336 400 301.274 301.077 304.117 303.475 304.687 302.055 307.133 313.334
          309.501 306.332 304.448 305.911 306.946 306.574 314.614 310.515 305.558 308.26 301.118 301.102
          391.921 367.293 346.82 333.134 323.69 328.554 343.74 324.42 324.653 327.7 314.638 313.759
          312.452 315.466 310.307 314.576 303.05 302.108 305.365 303.749 301.935 301.972 301.677 302.711
          304.621 302.121 303.42 301.109 302.725 300.332 300.406 300.417 300.143 300.385 319.458 305.032
          400 400 380.851 383.039 358.687 369.582 400 356.246 349.934 352.883 305.746 304.22
          308.612 303.625 305.103 307.537 307.899 306.871 306.616 304.937 307.167 307.326 307.127 306.552
          351.788 385.126 332.034 366.682 324.695 343.522 374.577 321.13 336.855 400 339.322 300.647
          300.619 300.311 300.516 301.223 301.288 300.645 300.658 302.042 302.582 301.889 301.567 300.258
          300.364 300.216 302.665 302.716 303.989 354.351 340.423 375.087 371.321 302.477 302.573 305.222
          308.754 301.257 301.981 301.791 300.787 319.539 306.383 300.323 312.763 320.01 310.349 319.256
          315.309 313.133 315.012 313.784 309.271 300.714 300.435 400 400 301.316 301.264 301.588
          300.922 302.607 300.468 304.285 307.286 304.283 304.861 304.03 328.042 334.816 329.649 318.286
          317.284 310.777 309.109 310.103 306.511 310.039 324.515 318.882 325.955 317.876 308.034 304.012
          318.058 314.84 319.719 328.756 336.686 317.064 300.332 303.147 331.948 347.495 318.844 325.499
          319.731 360.991 400 312.396 314.945 331.284 310.548 327.358 343.159 345.584 315.608 400
          382.267 376.448 346.088 400 400 367.249 308.128 400 400 400 362.313 400
          377.003 349.079 364.285 358.775 372.663 400 326.545 318.342 400 306.858 307.926 306.511
          305.084 318.066 304.895 308.949 327.228 315.916 341.506 317.87 342.997 307.588 330.857 319.286
          311.409 400 334.551 310.405 330.867 310.071 332.672 314.372 400 311.107 400 332.639
          313.678 316.448 313.977 375.676 300.207 300.189 335.393 317.155 309.049 323.393 341.325 331.82
          321.295 304.78 305.038 304.175 359.154 400 373.764 310.872 306.732 300.519 300.589 301.048
          300.316 400 400 387.458 400 320.569 316.754 325.219 323.822 314.475 320.146 307.876
          339.521 339.898 308.814 309.077 307.223 302.433 302.442 307.228 306.041 304.675 305.838 303.322
          302.556 322.725 388.422 396.443 372.275 400 400 316.755 303.901 370.316 348.856 364.392
          400 359.18 306.986 400 359.101 324.883 309.274 316.385 300.111 300.741 300.073 372.682
          381.971 379.37 301.487 310.477 308.305 315.578 300.969 300.943 300.791 371.003 341.005 400
          305.398 307.163 306.25 308.545 301.52 304.892 377.862 363.944 300.665 301.187 368.379 400
          376.624 308.695 302.977 303.131 301.81 300.65 300.81 327.033 335.106 304.604 324.751 305.339
          335.839 398.677 304.723 308.666 308.13 310.453 311.032 319.32 303.613 362.127 301.091 362.25
          334.972 400 306.698 306.295 306.698 351.49 363.923 300.55 301.024 300.486 300.265 301.522
          300.178 306.367 322.258 362.614 348.815 400 304.442 300.73 301.308 343.294 340.861 320.486
          400 358.923 305.268 309.828 400 400 304.8 300.827 304.463 315.417 310.727 308.748
          311.988 364.516 368.379 300.701 313.453 301.156 315.134 303.534 354.787 309.367 317.283 301.716
          301.869 305.157 320.287 316.494 362.185 306.65 366.549 308.886
        </DataArray>
        <DataArray type="Float32" Name="coordinationNumber" NumberOfComponents="1" format="ascii">
          13 20 18 19 16 13 5 8 11 11 16 14
          18 6 14 14 6 14 3 9 6 6 12 6
          6 14 10 22 8 5 8 11 4 5 7 11
          11 14 21 8 23 9 12 13 11 6 5 1
          13 4 4 15 7 6 7 9 16 3 13 6
          14 12 5 12 23 16 7 6 10 16 6 5
          12 10 10 4 7 7 15 17 16 5 12 14
          12 7 9 17 7 21 15 12 8 8 19 10
          7 19 6 15 4 14 10 11 12 5 7 14
          5 7 5 17 3 14 3 2 23 6 12 10
          21 14 19 2 6 3 4 14 10 6 5 10
          11 19 13 18 9 3 11 13 10 3 7 1
          2 3 10 17 6 5 5 11 24 10 11 2
          12 12 4 6 7 3 7 11 3 4 6 9
          3 3 5 6 12 7 16 14 8 5 8 9
          8 20 9 12 3 3 6 9 13 11 16 8
          13 9 8 7 15 8 9 6 3 4 10 6
          10 8 12 8 5 4 8 3 17 11 11 8
          12 6 6 5 6 3 16 15 21 5 7 3
          13 4 7 10 5 17 6 8 18 12 3 7
          8 6 18 13 19 2 4 5 7 6 14 4
          5 2 2 4 12 4 19 7 4 3 7 4
          5 8 3 9 11 11 7 7 17 3 5 8
          16 8 2 8 10 5 4 4 4 7 7 8
          5 8 13 7 9 5 6 8 5 11 11 9
          3 10 13 8 10 6 8 6 5 13 7 1
          13 10 8 10 5 3 5 9 3 17 7 4
          11 7 20 7 5 8 15 5 9 15 10 14
          7 8 8 4 7 3 10 9 5 6 11 5
          13 13 9 2 4 3 6 6 5 5 11 4
          7 4 4 2 14 6 7 4 3 1 17 5
          14 12 5 3 8 13 14 4 3 4 10 3
          4 9 4 6 4 3 8 16 4 8 9 15
          11 6 1 13 9 4 7 6 5 6 4 5
          6 4 3 6 6 5 13 6 4 9 7 11
          10 6 5 2 2 4 7 14 4 4 6 3
          2 7 2 2 4 3 8 4 9 9 6 11
          2 6 3 9 3 8 6 7 2 5 3 4
          7 9 3 4 13 9 9 5 5 4 9 9
          3 3 8 11 7 4 4 4 2 4 16 4
          4 2 4 5 4 4 7 18 7 7 5 4
          11 4 7 2 7 2 2 8 2 6 3 4
          10 4 1 7 1 2 7 11 10 4 4 6
          2 1 5 4 3 3 4 2 6 8 2 3
          4 9 5 4 6 6 3 2 6 1 3 4
          8 5 1 5 3 3 1 4 2 6 2 5
          3 5 6 4 2 2 1 2
        </DataArray>
        <DataArray type="Float32" Name="poreLabel" NumberOfComponents="1" format="ascii">
          -1 2 -1 3 -1 -1 3 3 -1 3 3 3
          -1 3 -1 -1 -1 -1 2 2 -1 2 -1 2
          -1 -1 6 -1 2 2 2 5 2 2 -1 -1
          -1 -1 -1 -1 -1 -1 4 -1 -1 -1 -1 5
          5 6 6 4 4 6 2 -1 4 2 -1 2
          -1 1 -1 -1 -1 -1 -1 -1 5 5 1 1
          1 1 5 -1 1 1 1 6 -1 -1 -1 5
          -1 -1 5 -1 -1 -1 -1 -1 -1 5 5 5
          5 6 -1 3 6 3 6 6 -1 6 -1 -1
          6 6 -1 -1 6 -1 -1 6 6 -1 -1 -1
          -1 1 -1 -1 3 6 6 6 -1 2 -1 2
          2 -1 2 -1 -1 5 5 5 5 -1 3 4
          4 -1 -1 1 4 4 4 4 4 4 6 6
          4 6 4 -1 6 4 4 6 6 6 4 4
          4 4 4 -1 6 6 6 -1 -1 -1 -1 6
          -1 -1 -1 -1 2 2 -1 2 -1 2 -1 2
          2 3 -1 2 -1 5 5 5 5 5 -1 -1
          1 1 -1 6 3 3 1 3 3 3 -1 -1
          -1 -1 -1 -1 3 -1 -1 3 -1 6 6 3
          -1 -1 -1 -1 -1 -1 -1 -1 -1 1 -1 2
          -1 2 5 2 -1 2 4 -1 -1 2 4 5
          5 5 2 2 2 6 6 -1 6 -1 5 5
          5 5 5 -1 5 4 5 5 -1 -1 -1 -1
          6 -1 -1 -1 -1 5 5 1 1 5 3 5
          5 -1 5 -1 -1 -1 -1 -1 6 6 6 6
          6 6 6 -1 -1 -1 -1 3 6 3 3 2
          -1 -1 -1 -1 3 -1 5 5 -1 -1 -1 -1
          -1 -1 1 -1 6 -1 4 4 4 4 4 1
          -1 3 3 1 1 3 -1 1 1 1 -1 1
          6 -1 -1 4 6 1 -1 -1 1 3 3 -1
          -1 4 4 4 -1 6 -1 -1 3 3 5 5
          5 1 5 5 5 5 -1 5 1 5 1 -1
          6 6 6 -1 5 5 3 -1 3 -1 -1 -1
          -1 3 -1 4 4 1 4 -1 -1 5 3 3
          5 1 1 6 1 4 4 4 6 -1 -1 -1
          -1 -1 4 -1 4 -1 -1 6 3 2 2 2
          2 4 3 3 3 1 1 3 5 6 6 -1
          1 3 -1 1 -1 -1 -1 -1 5 -1 5 4
          4 -1 -1 -1 4 4 4 -1 -1 -1 -1 1
          2 -1 2 6 4 4 -1 6 4 2 -1 1
          -1 4 2 3 -1 4 4 -1 5 5 -1 5
          -1 -1 2 6 6 -1 5 3 3 -1 -1 4
          5 1 6 2 -1 3 -1 5 3 2 5 -1
          5 6 -1 -1 4 1 5 5 5 -1 4 -1
          1 3 2 -1 1 1 2 3 -1 -1 6 4
          -1 6 -1 4 -1 5 -1 -1 3 -1 3 -1
          3 2 4 4 3 6 4 -1
        </DataArray>
        <DataArray type="Float32" Name="dofIdx" NumberOfComponents="1" format="ascii">
          0 26 49 83 87 112 141 165 189 211 233 356
          422 525 1 50 67 258 272 284 325 327 336 388
          389 403 419 510 536 2 53 114 307 420 496 3
          28 107 285 334 354 374 399 435 452 468 477 4
          224 5 89 406 455 509 6 121 280 302 385 401
          7 127 151 196 239 256 263 283 291 296 298 376
          432 550 553 8 29 48 271 318 9 144 147 216
          221 222 236 244 245 250 279 315 324 350 358 384
          433 10 24 32 42 55 138 152 193 195 218 228
          269 287 294 304 345 391 444 462 513 11 108 132
          375 378 460 12 78 13 96 173 14 41 91 115
          131 326 340 500 554 15 43 192 524 16 160 17
          494 18 57 522 19 21 119 126 344 426 20 86
          94 125 202 305 343 386 465 505 515 540 268 508
          22 238 333 23 92 159 229 392 520 328 25 52
          182 427 507 514 162 171 199 249 319 446 447 450
          471 476 480 483 518 27 37 113 217 255 135 329
          170 436 456 538 30 77 134 247 323 511 31 369
          442 449 502 124 149 188 278 282 290 321 400 409
          33 62 75 180 254 261 264 276 316 360 371 34
          167 183 243 313 418 35 531 36 208 390 154 352
          429 543 38 155 434 39 145 223 451 40 63 204
          248 44 172 322 398 486 497 526 45 177 220 332
          353 440 448 503 533 46 101 47 431 59 123 184
          266 293 380 415 437 512 309 425 51 105 109 252
          363 373 539 54 289 528 530 58 169 516 527 56
          93 246 297 257 367 411 292 300 60 311 487 61
          227 355 535 347 64 65 74 130 198 312 495 534
          66 106 164 201 348 454 231 68 72 85 181 203
          277 337 393 69 70 281 71 428 161 73 240 545
          365 421 461 557 76 156 288 310 407 402 79 146
          148 213 242 275 338 372 377 395 443 466 485 493
          80 251 267 81 82 295 143 187 237 301 314 453
          475 541 84 555 185 394 532 439 467 88 190 341
          412 90 100 111 186 99 235 470 517 110 194 274
          482 498 137 207 488 95 140 506 97 120 209 98
          558 474 102 423 544 103 458 104 457 128 150 351
          357 473 158 464 472 546 387 430 342 492 504 116
          366 404 117 118 335 445 234 273 396 122 346 489
          214 262 413 519 364 479 361 253 129 469 230 133
          206 136 139 317 178 142 547 212 163 191 197 308
          424 153 299 157 225 491 537 416 241 166 542 168
          175 210 219 408 481 174 260 176 379 382 438 499
          556 179 478 551 397 359 501 381 405 362 200 529
          205 303 523 484 383 417 368 215 370 259 330 226
          441 232 331 414 552 521 286 349 463 549 265 270
          410 548 306 559 490 320 459 339
        </DataArray>
        <DataArray type="Float32" Name="hostGridVertexIdx" NumberOfComponents="1" format="ascii">
          556 582 605 639 643 668 697 721 745 767 789 912
          978 1081 557 606 623 814 828 840 881 883 892 944
          945 959 975 1066 1092 558 609 670 863 976 1052 559
          584 663 841 890 910 930 955 991 1008 1024 1033 560
          780 561 645 962 1011 1065 562 677 836 858 941 957
          563 683 707 752 795 812 819 839 847 852 854 932
          988 1106 1109 564 585 604 827 874 565 700 703 772
          777 778 792 800 801 806 835 871 880 906 914 940
          989 566 580 588 598 611 694 708 749 751 774 784
          825 843 850 860 901 947 1000 1018 1069 567 664 688
          931 934 1016 568 634 569 652 729 570 597 647 671
          687 882 896 1056 1110 571 599 748 1080 572 716 573
          1050 574 613 1078 575 577 675 682 900 982 576 642
          650 681 758 861 899 942 1021 1061 1071 1096 824 1064
          578 794 889 579 648 715 785 948 1076 884 581 608
          738 983 1063 1070 718 727 755 805 875 1002 1003 1006
          1027 1032 1036 1039 1074 583 593 669 773 811 691 885
          726 992 1012 1094 586 633 690 803 879 1067 587 925
          998 1005 1058 680 705 744 834 838 846 877 956 965
          589 618 631 736 810 817 820 832 872 916 927 590
          723 739 799 869 974 591 1087 592 764 946 710 908
          985 1099 594 711 990 595 701 779 1007 596 619 760
          804 600 728 878 954 1042 1053 1082 601 733 776 888
          909 996 1004 1059 1089 602 657 603 987 615 679 740
          822 849 936 971 993 1068 865 981 607 661 665 808
          919 929 1095 610 845 1084 1086 614 725 1072 1083 612
          649 802 853 813 923 967 848 856 616 867 1043 617
          783 911 1091 903 620 621 630 686 754 868 1051 1090
          622 662 720 757 904 1010 787 624 628 641 737 759
          833 893 949 625 626 837 627 984 717 629 796 1101
          921 977 1017 1113 632 712 844 866 963 958 635 702
          704 769 798 831 894 928 933 951 999 1022 1041 1049
          636 807 823 637 638 851 699 743 793 857 870 1009
          1031 1097 640 1111 741 950 1088 995 1023 644 746 897
          968 646 656 667 742 655 791 1026 1073 666 750 830
          1038 1054 693 763 1044 651 696 1062 653 676 765 654
          1114 1030 658 979 1100 659 1014 660 1013 684 706 907
          913 1029 714 1020 1028 1102 943 986 898 1048 1060 672
          922 960 673 674 891 1001 790 829 952 678 902 1045
          770 818 969 1075 920 1035 917 809 685 1025 786 689
          762 692 695 873 734 698 1103 768 719 747 753 864
          980 709 855 713 781 1047 1093 972 797 722 1098 724
          731 766 775 964 1037 730 816 732 935 938 994 1055
          1112 735 1034 1107 953 915 1057 937 961 918 756 1085
          761 859 1079 1040 939 973 924 771 926 815 886 782
          997 788 887 970 1108 1077 842 905 1019 1105 821 826
          966 1104 862 1115 1046 876 1015 895
        </DataArray>
        <DataArray type="Float32" Name="conductionSource" NumberOfComponents="1" format="ascii">
          -0.000535525 -0.000154898 -0.000871378 -0.00225564 -0.000306661 -0.000713784 -1.42124e-06 -1.49145e-05 -8.91247e-05 -0.00222107 -0.000124936 -0.000177123
          0.00015084 -0.000157291 -0.000346223 -0.000299952 -2.35169e-05 -0.000262272 -4.96555e-05 -0.00025589 -3.90277e-05 2.15039e-05 -0.000123043 -4.27634e-05
          -4.33478e-05 0.000769895 -0.000224656 -9.2318e-06 -6.0288e-05 -1.26899e-05 7.63785e-06 3.91761e-05 -6.36474e-06 -3.5235e-06 -7.15319e-06 -0.00120517
          -0.000867175 -6.22038e-05 -0.00206614 -0.0014793 -0.00059338 -0.00121799 -0.00199197 2.33979e-05 -0.000993182 0.000299465 -0.000120629 1.22346e-05
          0.00244886 -0.000185531 -7.46271e-05 -0.0053035 -0.00188214 -0.00112069 -1.6867e-05 -0.000102419 -3.69969e-05 -7.76048e-06 -4.72082e-05 -3.38867e-05
          -0.00326907 -0.00493648 8.58918e-05 0.000167552 -0.00591856 -0.00318393 -0.00214807 -0.000536353 0.00468745 -5.21483e-05 -0.00159249 0
          -0.00233999 -0.00028874 0.00171649 0.000507255 0 0 -0.0141406 0.000415017 -0.000144485 -2.31118e-06 -0.000311734 -0.000309972
          -0.000115444 -5.84425e-05 5.76577e-05 0.000114482 -0.000100243 -9.78046e-05 -0.000246139 0.000410143 -2.45126e-05 -1.09139e-05 0.000105254 8.64507e-05
          1.15512e-05 -0.000745015 -0.000193136 -1.79023e-05 1.45018e-05 -0.00105671 -6.14325e-05 -0.000261938 4.7885e-05 -9.02761e-05 -0.00015016 -0.00043847
          -0.000116734 3.60752e-05 -0.000198599 0.000207821 -4.51775e-05 -0.00190226 -3.92706e-07 -2.76233e-05 -0.000896477 -6.0081e-05 -0.00379345 -0.00171716
          -0.00431552 -0.00906803 -0.00437506 -1.0089e-06 -0.000191477 -4.55319e-07 4.12955e-06 -0.000157257 -0.0001584 -9.16463e-06 -0.000122786 -0.000283231
          -0.000108316 -0.000755954 -0.000332234 -0.000229823 -0.000350627 -3.18789e-05 -0.000872208 -0.000102652 4.58511e-05 7.20405e-06 -0.000191911 -1.12657e-06
          1.33737e-06 -0.00283691 -0.00101533 -0.021934 -3.83125e-05 -1.9072e-05 -0.000111618 -0.000464164 1.26999e-05 -0.00012792 -3.97857e-05 -1.1813e-05
          -0.000525616 -0.000253138 -9.3312e-05 -0.000214757 1.62994e-05 -1.62393e-05 -0.000483216 -0.000118681 -0.000102432 1.62024e-06 -2.35038e-05 -5.93093e-05
          -0.000244976 -0.00037252 0.00300444 -0.00137207 -0.000670519 -0.0011598 -0.00457804 -0.00152668 2.74566e-05 -3.63509e-05 -0.000577398 -0.000275482
          -0.000192928 -0.000132213 -0.000356131 -0.000127902 -3.84193e-06 -3.97779e-05 2.05285e-07 -7.84336e-05 -0.000253721 -9.88548e-05 -0.000231889 -0.000132903
          -0.00020845 -8.47599e-05 -0.000313838 -0.000155362 -0.000444928 -3.45048e-05 -5.40236e-06 -3.03403e-05 -9.68499e-07 1.26404e-05 -0.000394748 -0.0004358
          -9.04984e-05 -0.00370979 -5.06692e-05 0.000821438 0.00073262 -0.000150452 -0.00416321 -2.58117e-05 -0.00264494 -0.00190198 3.48587e-05 -0.00023774
          -0.000398998 -3.20023e-05 -0.00011884 -2.17656e-06 2.20143e-05 -8.81215e-06 -0.000271592 -0.000172303 -0.000933831 -1.50592e-07 2.17345e-05 -6.79393e-07
          -0.00501103 -0.00410142 -0.00104133 -0.00426962 -0.00187984 -0.00488305 -0.000431851 -0.00139437 -0.00150041 -0.0112028 -0.000137167 -5.27212e-05
          -2.47378e-05 -1.50066e-05 -6.90572e-06 -0.00011456 -0.000168511 -2.17828e-06 -3.9958e-06 -1.81595e-05 -0.000141353 -5.80296e-05 -0.000125919 3.6781e-05
          -5.21523e-06 3.19868e-05 -2.20101e-07 -3.12652e-05 -0.000411229 0.000947083 -0.000720604 -0.00332544 -0.000337532 -1.81989e-06 -0.000563713 -0.000167661
          -0.000180454 -1.70257e-05 -8.49073e-06 -0.000280283 1.83161e-05 0.000117916 1.31916e-05 9.41472e-06 -0.000404767 1.0747e-05 6.49503e-06 -0.00210908
          0.000446751 -0.000627031 -2.09848e-05 -0.000403892 0.000125269 4.45775e-05 4.70529e-05 -0.00020233 -0.000627401 1.54541e-05 -0.000105076 -4.95157e-05
          3.11593e-05 -9.41419e-06 3.92009e-05 -0.000326664 -0.000382444 -4.13523e-05 0.000180752 -0.00019461 -1.73474e-05 -0.000260701 -0.000532855 -0.000735144
          -1.01166e-05 7.69716e-05 9.36236e-05 -0.000934547 -0.000339312 -0.000935741 -0.000632559 -0.000716155 0.000287425 -0.00370902 3.54833e-05 -2.1517e-05
          -0.00122903 -0.000374571 0.000691542 0.00113042 -0.000327235 -0.000186398 1.70706e-05 6.16236e-05 -0.000194362 -0.00757955 0.000246258 -0.000298896
          -0.000409266 -0.00310942 -0.0260803 -0.00283624 -1.86644e-05 -0.000465025 -0.00218088 1.26112e-05 -0.000941449 -0.0033587 -0.000506923 -0.0164237
          -0.00294145 0.000682311 0.000260588 0 -0.0145599 -8.53795e-05 6.39415e-05 -0.00255829 -1.2201e-05 -0.000648433 -0.0016267 -1.71685e-05
          0.00096312 -0.00294057 -0.00126802 -7.64104e-05 -0.000257413 -0.00151845 -0.000629372 -0.00122245 0 3.28827e-05 -0.000411811 -5.41164e-06
          -0.000142572 4.4178e-05 -0.000327307 -0.000188882 -0.0015807 0.000236303 -0.000857139 -0.000146893 0.000116847 1.0954e-06 0.0100383 0.00249067
          -0.00234633 -0.0071055 0.00261124 0.0001268 -0.00379907 -0.000983524 0.000360962 0.00205181 -0.000266086 0 -0.00999956 0.00141751
          8.05089e-06 0.000383767 -0.000154413 0.000422124 8.34277e-06 5.44737e-06 -0.000917796 -0.00417038 -0.000145553 -0.00220855 -0.000987012 -0.00548294
          -0.000277351 0.000220941 3.08178e-07 8.90896e-05 -0.00112184 0 0.00161929 -0.00082055 -2.8782e-05 1.51197e-05 5.69408e-06 -3.14884e-05
          2.46435e-05 -0.000160806 0 0.000787441 0 -1.75567e-05 -0.000224023 1.24774e-05 -6.05595e-05 -0.000280471 -0.000128428 -0.000822997
          -0.00108028 -0.00400846 2.26248e-05 4.98414e-06 -1.21477e-06 -8.80526e-05 -8.15041e-05 -0.000229904 -6.40497e-05 2.51623e-05 -3.92459e-05 1.64276e-06
          -9.44827e-06 7.17678e-06 0.000560102 4.40671e-05 0.00124934 -0.00326066 -0.00684069 -0.000415506 0.000303156 0.000839392 0.000112972 -0.000932554
          -0.000162074 -0.00171108 -6.29936e-06 -0.00242333 -8.29904e-05 -0.000196952 -0.000238558 -0.000692598 1.06137e-06 -3.60901e-05 3.67437e-06 0.000284945
          -0.0039851 -0.00387142 -3.21162e-05 -2.44656e-05 -0.000128105 -0.000437555 -8.68953e-05 -2.3705e-05 -4.1561e-05 -7.71964e-05 -0.00170655 -0.00670139
          -4.07076e-05 2.78389e-06 4.46323e-05 0.000178041 -5.96256e-05 -0.00019973 -5.19809e-05 0.000344463 0 -2.41489e-06 -0.00573025 -0.000327198
          -0.0008979 -4.10463e-05 -2.96091e-05 -6.44043e-05 -1.38438e-05 1.58832e-07 -7.75586e-06 -0.0060611 -0.00406794 0.000667284 -0.000780405 0.000478769
          -0.00472622 -0.000655999 -1.16524e-05 6.93551e-05 -1.80954e-05 1.83908e-05 3.87246e-05 -0.000457675 1.90078e-07 -0.000208505 -1.08371e-05 -0.000241879
          0.00602086 -0.000267875 8.99618e-06 -2.69614e-05 -6.1405e-05 -0.00164481 0.0012205 -3.55831e-05 -5.13132e-06 -6.34193e-07 5.83772e-06 -2.26368e-05
          8.52274e-07 7.69831e-06 -0.00104087 -0.00121451 -0.000610558 0 8.13436e-05 7.45418e-06 2.35006e-05 -0.00261524 -2.51417e-05 -0.00019639
          -0.000410781 -0.00244436 -1.72335e-05 -0.000290859 -0.00268715 -0.00655615 -5.15862e-05 3.21932e-07 1.55413e-05 -1.10775e-05 -4.44806e-06 -0.000155196
          -0.000513493 -0.000125205 -0.00152688 -1.00773e-05 2.47322e-05 2.71258e-05 0.000123576 -1.13763e-05 -4.80621e-06 -0.000151327 5.97717e-05 8.76421e-07
          -4.55878e-06 3.22662e-06 -0.000331931 -0.000199206 -0.000113549 -3.80935e-06 0.000238257 -9.60329e-06
        </DataArray>
        <DataArray type="Float32" Name="convectionSource" NumberOfComponents="1" format="ascii">
          -0.000945232 -0.000327915 -0.00141368 -0.00480365 -0.000526426 -0.000608451 -0.000217283 -9.23952e-05 -0.000143688 -0.0042692 -0.000214868 -0.000309546
          0.000534546 -0.000419392 -0.000466706 -0.000308321 -0.000111013 -0.000574659 -7.95669e-05 -0.000263778 -0.000153266 -4.15685e-05 -0.00021932 -4.62521e-05
          -0.000161188 0.000465627 -0.00026947 -2.99603e-05 -0.000115315 -1.41888e-05 2.12298e-05 1.44086e-05 -1.38669e-05 0 -8.17053e-06 -0.00148626
          -0.00182052 -0.000306182 -0.00306844 -0.00464985 -0.00118018 -0.00272717 -0.00458285 4.08335e-05 -0.0017347 -0.000261746 -0.000343156 0