<?xml version="1.0"?>
<VTKFile type="PolyData" version="0.1" byte_order="LittleEndian">
  <PolyData>
    <Piece NumberOfLines="137" NumberOfPoints="90">
      <PointData Scalars="S_liq">
        <DataArray type="Float32" Name="S_liq" NumberOfComponents="1" format="ascii">
          0.0717267 0.0288379 0.0363546 0.127718 0.0570566 0.0391061 0.0629704 0.668056 0.045394 0.0494454 0.0466993 0.105373
          0.994468 1 1 1 1 1 1 1 1 1 1 1
          1 1 1 1 0.129402 0.0627886 1 0.0786575 0.752447 0.991061 1 1
          1 1 1 0.0678648 1 1 0.133237 1 1 1 0.0722628 1
          1 1 1 0.082499 1 0.0546384 1 1 1 0.873393 1 1
          1 1 1 1 1 1 1 1 1 1 1 1
          1 1 1 1 1 1 1 1 0.108892 1 1 1
          1 1 1 1 1 1
        </DataArray>
        <DataArray type="Float32" Name="p_liq" NumberOfComponents="1" format="ascii">
          101548 101416 101507 102127 101833 101366 102038 102480 101524 101564 102100 102480
          101515 104507 104507 104507 101533 101991 101991 104507 104507 101991 101933 101953
          101983 101990 101990 101987 101930 102350 101558 101546 104507 103045 101686 101782
          101630 101616 101609 101789 101582 102409 101990 101425 100954 101606 101578 101582
          101593 101596 101681 101639 101813 100655 101645 102199 101668 103672 103084 101908
          102003 101479 101560 100355 101357 101551 101002 101611 101210 100789 100466 101650
          101648 101649 101648 101624 101608 101639 101639 101617 102942 101813 101611 100000
          100000 100933 100789 100789 100000 101002
        </DataArray>
        <DataArray type="Float32" Name="rho_liq" NumberOfComponents="1" format="ascii">
          1000 1000 1000 1000 1000 1000 1000 1000 1000 1000 1000 1000
          1000 1000 1000 1000 1000 1000 1000 1000 1000 1000 1000 1000
          1000 1000 1000 1000 1000 1000 1000 1000 1000 1000 1000 1000
          1000 1000 1000 1000 1000 1000 1000 1000 1000 1000 1000 1000
          1000 1000 1000 1000 1000 1000 1000 1000 1000 1000 1000 1000
          1000 1000 1000 1000 1000 1000 1000 1000 1000 1000 1000 1000
          1000 1000 1000 1000 1000 1000 1000 1000 1000 1000 1000 1000
          1000 1000 1000 1000 1000 1000
        </DataArray>
        <DataArray type="Float32" Name="mob_liq" NumberOfComponents="1" format="ascii">
          1000 1000 1000 1000 1000 1000 1000 1000 1000 1000 1000 1000
          1000 1000 1000 1000 1000 1000 1000 1000 1000 1000 1000 1000
          1000 1000 1000 1000 1000 1000 1000 1000 1000 1000 1000 1000
          1000 1000 1000 1000 1000 1000 1000 1000 1000 1000 1000 1000
          1000 1000 1000 1000 1000 1000 1000 1000 1000 1000 1000 1000
          1000 1000 1000 1000 1000 1000 1000 1000 1000 1000 1000 1000
          1000 1000 1000 1000 1000 1000 1000 1000 1000 1000 1000 1000
          1000 1000 1000 1000 1000 1000
        </DataArray>
        <DataArray type="Float32" Name="S_gas" NumberOfComponents="1" format="ascii">
          0.928273 0.971162 0.963645 0.872282 0.942943 0.960894 0.93703 0.331944 0.954606 0.950555 0.953301 0.894627
          0.00553169 0 0 0 0 0 0 0 0 0 0 0
          0 0 0 0 0.870598 0.937211 0 0.921342 0.247553 0.00893889 0 0
          0 0 0 0.932135 0 0 0.866763 0 0 0 0.927737 0
          0 0 0 0.917501 0 0.945362 0 0 0 0.126607 0 0
          0 0 0 0 0 0 0 0 0 0 0 0
          0 0 0 0 0 0 0 0 0.891108 0 0 0
          0 0 0 0 0 0
        </DataArray>
        <DataArray type="Float32" Name="p_gas" NumberOfComponents="1" format="ascii">
          105001 105000 105001 105000 104987 105000 105000 105000 104715 105003 105003 105000
          102518 104507 104507 104507 101533 101991 101991 104507 104507 101991 101933 101953
          101983 101990 101990 101987 104979 104977 101558 104627 104944 104977 101686 101782
          101630 101616 101609 104625 101582 102409 104978 101425 100954 101606 104978 101582
          101593 101596 101681 104978 101813 104528 101645 102199 101668 104234 103084 101908
          102003 101479 101560 100355 101357 101551 101002 101611 101210 100789 100466 101650
          101648 101649 101648 101624 101608 101639 101639 101617 104547 101813 101611 100000
          100000 100933 100789 100789 100000 101002
        </DataArray>
        <DataArray type="Float32" Name="rho_gas" NumberOfComponents="1" format="ascii">
          1.28394 1.26921 1.28925 1.26921 1.28012 1.26921 1.26921 1.26964 1.28211 1.28074 1.29155 1.26921
          1.25932 1.28555 1.28555 1.28555 1.23947 1.2529 1.25458 1.28555 1.28555 1.2546 1.24956 1.25314
          1.25415 1.25459 1.2546 1.25454 1.28428 1.28701 1.24793 1.28508 1.29085 1.29125 1.24922 1.25079
          1.24399 1.24416 1.24888 1.28322 1.24655 1.25741 1.29124 1.24645 1.23942 1.24738 1.28723 1.24568
          1.24599 1.24767 1.24964 1.28933 1.25155 1.28268 1.25028 1.25707 1.24625 1.28133 1.26777 1.2533
          1.2544 1.24571 1.24911 1.23315 1.24451 1.24891 1.24102 1.2484 1.24283 1.23919 1.23341 1.24972
          1.24994 1.25034 1.25039 1.25003 1.2464 1.24999 1.25027 1.24788 1.28507 1.2524 1.24993 1.23012
          1.23012 1.24079 1.23983 1.23982 1.23012 1.24244
        </DataArray>
        <DataArray type="Float32" Name="mob_gas" NumberOfComponents="1" format="ascii">
          56288.1 55774.9 56473.6 55774.9 56161.3 55774.9 55774.9 55789.8 56346.9 56176.1 56553.3 55774.9
          56495 56557.3 56557.3 56557.3 56215.6 56497.2 56557.6 56557.3 56557.3 56558.4 56403.1 56522.8
          56545.9 56558.6 56558.9 56558.2 56309.8 56406.1 56510.3 56488.9 56554.2 56554.1 56499.9 56514
          56336.3 56348.5 56522 56424.5 56449.6 56474.9 56553.4 56516.1 56471.2 56468.9 56412.9 56418.5
          56424.9 56484.1 56517.4 56486.7 56527.9 56447.5 56556.6 56555.5 56400.9 56526.7 56548.2 56548.5
          56545.9 56465.5 56552.1 56510.8 56476.1 56548.9 56507.8 56503.3 56480.9 56536.6 56470.9 56533.7
          56542.8 56557 56558.8 56557.1 56432.9 56548.9 56558.7 56482.2 56522.9 56558.7 56558.8 56560.1
          56560.1 56530.1 56559.6 56559.5 56560.1 56559.5
        </DataArray>
        <DataArray type="Float32" Name="pc" NumberOfComponents="1" format="ascii">
          3453.04 3584 3494.41 2873.15 3153.74 3633.7 2961.74 2520.4 3191.46 3438.91 2903.14 2520.25
          1003.66 -0 -0 -0 0 -0 -0 -0 -0 -0 -0 -0
          -0 -0 -0 -0 3049.13 2626.22 0 3081.01 437.386 1931.47 0 0
          0 0 -0 2835.95 0 -0 2987.89 -0 -0 -0 3400.57 0
          -0 -0 0 3338.7 -0 3872.49 -0 0 -0 562.111 0 -0
          -0 -0 -0 -0 -0 -0 -0 -0 -0 -0 -0 -0
          -0 -0 -0 -0 -0 0 0 0 1605.11 -0 -0 0
          -0 -0 -0 -0 -0 -0
        </DataArray>
        <DataArray type="Float32" Name="porosity" NumberOfComponents="1" format="ascii">
          1 1 1 1 1 1 1 1 1 1 1 1
          1 1 1 1 1 1 1 1 1 1 1 1
          1 1 1 1 1 1 1 1 1 1 1 1
          1 1 1 1 1 1 1 1 1 1 1 1
          1 1 1 1 1 1 1 1 1 1 1 1
          1 1 1 1 1 1 1 1 1 1 1 1
          1 1 1 1 1 1 1 1 1 1 1 1
          1 1 1 1 1 1
        </DataArray>
        <DataArray type="Float32" Name="poreInscribedRadius" NumberOfComponents="1" format="ascii">
          0.00010842 0.0002263 0.00018872 8.6711e-05 0.00014246 0.00017024 0.00014006 5.8137e-05 0.00017043 0.00014712 0.00018289 0.00011213
          8.001e-05 0.00026652 0.00010984 0.00018149 0.0001191 0.00010862 6.7563e-05 0.00013353 8.8091e-05 0.00011873 8.6177e-05 0.00014165
          9.7691e-05 0.00014071 8.5166e-05 0.00010965 8.1041e-05 0.00015832 6.1496e-05 0.00011323 0.00033347 6.7184e-05 0.00010274 0.00016438
          0.00011759 8.0701e-05 0.00015113 0.00013784 9.8161e-05 0.00013 8.1223e-05 0.00014997 0.00013153 0.00020701 0.00010946 8.5023e-05
          7.8721e-05 0.00017262 0.00012575 0.00010082 0.00015856 0.00012022 0.00019603 9.1747e-05 0.0001146 0.00025862 0.00012908 0.00025963
          0.00010958 6.7231e-05 0.00012907 0.00015315 9.4275e-05 0.00019972 7.1623e-05 0.00014025 0.00011092 0.00015744 5.0362e-05 0.00022549
          0.00010874 9.8868e-05 0.00010793 0.00015434 8.0185e-05 6.8354e-05 0.00014551 0.00014525 0.00017218 0.00012177 9.0671e-05 0.00015715
          0.00012027 0.00015784 0.00022979 0.00010367 5.3866e-05 0.00024136
        </DataArray>
        <DataArray type="Float32" Name="T" NumberOfComponents="1" format="ascii">
          284.849 288.15 283.676 288.15 285.658 288.15 288.15 288.053 284.478 285.563 283.174 288.15
          283.55 283.151 283.151 283.151 285.324 283.538 283.158 283.151 283.151 283.153 284.132 283.377
          283.232 283.152 283.151 283.155 284.712 284.102 283.457 283.581 283.169 283.169 283.523 283.433
          284.556 284.479 283.384 283.987 283.84 283.677 283.174 283.421 283.706 283.718 284.059 284.036
          283.996 283.622 283.412 283.593 283.346 283.842 283.166 283.171 284.147 283.344 283.214 283.216
          283.232 283.74 283.195 283.459 283.673 283.215 283.475 283.501 283.643 283.295 283.709 283.31
          283.253 283.163 283.152 283.163 283.945 283.215 283.153 283.634 283.367 283.152 283.152 283.15
          283.15 283.335 283.15 283.151 283.15 283.15
        </DataArray>
        <DataArray type="Float32" Name="coordinationNumber" NumberOfComponents="1" format="ascii">
          6 1 4 1 3 1 5 2 6 3 4 1
          2 4 2 3 2 6 1 1 1 1 4 2
          3 2 1 2 3 7 2 4 3 4 6 2
          3 4 3 5 5 3 4 6 4 5 4 4
          4 4 5 7 3 3 2 3 2 5 2 4
          3 2 2 2 3 4 5 4 4 6 2 5
          4 3 2 2 2 1 1 4 2 1 1 3
          1 2 1 1 1 1
        </DataArray>
        <DataArray type="Float32" Name="poreLabel" NumberOfComponents="1" format="ascii">
          -1 2 -1 2 -1 2 2 -1 -1 -1 -1 2
          -1 -1 -1 -1 -1 -1 -1 -1 -1 -1 -1 -1
          -1 -1 -1 -1 -1 -1 -1 -1 -1 -1 -1 -1
          -1 -1 -1 -1 -1 -1 -1 -1 -1 -1 -1 -1
          -1 -1 -1 -1 -1 -1 -1 -1 -1 -1 -1 -1
          -1 -1 -1 -1 -1 -1 -1 -1 -1 -1 -1 -1
          -1 -1 -1 -1 -1 -1 -1 -1 -1 -1 -1 3
          3 -1 -1 -1 3 -1
        </DataArray>
      </PointData>
      <CellData Scalars="process rank" Vectors="velocity_liq (m/s)">
        <DataArray type="Float32" Name="velocity_liq (m/s)" NumberOfComponents="3" format="ascii">
          -0.178899 -0.178899 0.178899 0.0491796 -0 -0.0491796 -0.0344563 0.0344563 0 0.0190888 -0 -0
          -0.0246704 0.0246704 0 0.0133729 0.0133729 0.0133729 0.0131672 -0 0.0131672 -0.00338842 0 0.00338842
          0.000169535 -0.000169535 -0.000169535 0.00731969 -0.00731969 -0.00731969 -0.00782212 -0.00782212 0.00782212 -0 0 0
          -0 0 -0 0.0234126 -0 -0 -0.0134825 0.0134825 0.0134825 -0 -0 0
          -0 0 -0 -0 0 -0 -0 0 0 0.0337739 -0.0337739 -0
          -0.0275844 -0.0275844 0.0275844 -0 0 -0 0.00689187 -0 -0 -0.00488889 0.00488889 0
          -0.00680264 0 0 -0.050335 -0.050335 0 -0.120519 0 0 -0.128975 0 0.128975
          0.215083 -0 -0 2.43559 2.43559 -0 0 -0 -0 -0.865323 -0.865323 0.865323
          0.380558 0.380558 0.380558 0.352964 -0 0.352964 0 0 -0.0363044 -0.15296 -0.15296 0
          -0.136772 0 0.136772 0 0 -0.247182 0.032608 -0 -0 0 -0.500823 0
          -0 0.155118 -0.155118 0 0 -0 -0.0249502 0.0249502 0 0 -0.0976393 0.0976393
          -0.789702 -0.789702 0 0.385892 -0.385892 -0.385892 -0 0 0 0.375718 -0 -0
          0 0 -1.93322 0.864989 0.864989 0.864989 -0.0803117 0 0.0803117 -0 0.0413354 -0
          -1.39597 0 -1.39597 0 -0.0620495 0 0.0296749 -0 0.0296749 -0 -0 0.177424
          0 -0.11169 0 -0.0286635 -0.0286635 0.0286635 -0.022169 0 0.022169 -0.121862 -0.121862 -0.121862
          0 -0.0125326 -0.0125326 0 -0.0843944 -0.0843944 0 -0.0695752 0 0.0528951 -0.0528951 0.0528951
          0.0309883 -0 0.0309883 -0 0.0130172 0.0130172 -0.169056 -0.169056 0.169056 0.343082 -0 0.343082
          0.0746307 -0 0.0746307 -0 0.167922 -0.167922 0 -0.0851875 0 1.38954 1.38954 -0
          -0.569476 -0.569476 0.569476 -0 0.630184 0.630184 0.0614296 -0.0614296 -0 0.12858 -0.12858 -0.12858
          -0 0.26518 -0.26518 -1.97081 0 -1.97081 1.97034 -0 -1.97034 -0.0500077 0.0500077 0.0500077
          -0.917625 0 0 -0 -0 0.618042 0.213196 -0.213196 -0 -0 -0 0.282283
          -0 0.422672 0.422672 -0.124398 0.124398 0.124398 1.1865 -0 -1.1865 -0 0.0753748 -0.0753748
          -0 0.948298 -0 0.609619 0.609619 -0 -0.102956 0.102956 0 -0.973098 0.973098 0.973098
          -2.13366 2.13366 0 0 0 -0.578236 0.40113 -0.40113 0.40113 0.148933 -0.148933 0.148933
          1.61543 -0 -1.61543 -0 -0 0.0849638 -0 0.0127889 -0 -0.0744061 -0.0744061 -0.0744061
          0 -0.0258329 0.0258329 -0 -0 0.00331901 0.000466631 0.000466631 -0 -0.00231915 -0.00231915 0.00231915
          0 -0.0527831 0 -0.000393909 -0.000393909 0.000393909 0.0332494 0.0332494 0.0332494 -0.041009 -0.041009 -0.041009
          -0.0543212 0 0 0.0516605 0.0516605 -0 -0 0 0 -0 0 -0
          0.0595532 0.0595532 0.0595532 -0 0.0634014 0.0634014 0.0873145 0.0873145 -0.0873145 0 -0.0917881 0
          -0.0488412 0 0.0488412 -0 -0 0 -0.153281 0.153281 0 0.698768 -0 -0
          0.234733 -0.234733 -0.234733 -0 0 0 -0.0332652 0.0332652 -0.0332652 12.1259 12.1259 -0
          0.975175 -0.975175 -0.975175 0.967096 0.967096 -0.967096 -0 -0 0.658989 -0.682853 0.682853 0
          -0 0.697956 0.697956 -0 -0 0.676205 1.24547 -0 -0 -0 0 0
          -0 0 0 0 -0.23511 0.23511 1.56574 -0 1.56574 -0 0 0
          0.901078 -0.901078 0.901078
        </DataArray>
        <DataArray type="Float32" Name="velocity_gas (m/s)" NumberOfComponents="3" format="ascii">
          -0 -0 0 -0.240284 0 0.240284 2.41731 -2.41731 -0 -0.119635 0 0
          0.00297544 -0.00297544 -0 13.8405 13.8405 13.8405 -0.154837 0 -0.154837 -0.270278 0 0.270278
          -0 0 0 -0 0 0 -0 -0 0 -0 0 0
          -0 0 -0 -0 0 0 -0 0 0 -0 -0 0
          -0 0 -0 -0 0 -0 -0 0 0 -0 0 0
          -0 -0 0 -0 0 -0 -0 0 0 -0 0 0
          0.925566 -0 -0 1.79181 1.79181 -0 -0 0 0 -0 0 0
          -4.03678 0 0 -0 -0 0 0 -0 -0 -0 -0 0
          -0 -0 -0 -0 0 -0 0 0 -0 -0 -0 0
          -0 0 0 0 0 -0 -0 0 0 0 -0 0
          0 -0 0 0 0 -0 16.5305 -16.5305 -0 0 -0 0
          -0 -0 0 -0 0 0 -0 0 0 -0 0 0
          0 0 -0 -0 -0 -0 -0 0 0 0 -0 0
          -0 0 -0 -0 0.643247 -0 0.180985 -0 0.180985 0 0 -0
          0 -0 0 -0 -0 0 -0 0 0 -0 -0 -0
          -0 0.178121 0.178121 0 -0 -0 0 -0.00273121 0 -0.22819 0.22819 -0.22819
          -0.0803979 0 -0.0803979 0 -0.076691 -0.076691 -0 -0 0 -0 0 -0
          17.5475 -0 17.5475 0 -0 0 0 -0 0 -0 -0 0
          -0 -0 0 0 -0 -0 -0 0 0 -0 0 0
          0 -0 0 -0 0 -0 -0 0 0 -0 0 0
          -0 0 0 0 0 -0 -0 0 0 0 0 -0
          0 -0 -0 -0 0 0 -0 0 0 0 -0 0
          0 -0 0 -0 -0 0 -0 0 0 -0 0 0
          -0 0 0 0 0 -0 -0 0 -0 -0 0 -0
          -0 0 0 0 0 -0 0 -0 0 -0 -0 -0
          0 -0 0 0 0 -0 -0 -0 0 -0 -0 0
          0 -0 0 -0 -0 0 -0 -0 -0 -0 -0 -0
          -0 0 0 -0 -0 0 -0 0 0 -0 0 -0
          -0 -0 -0 0 -0 -0 -0 -0 0 -0 25.5388 -0
          -1.19853 0 1.19853 -0 -0 0 -0 0 0 -0 0 0
          -0 0 0 -0 0 0 -0 0 -0 -0 -0 0
          -0 0 0 -0 -0 0 0 0 -0 -0 0 0
          0 -0 -0 0 0 -0 -0 0 0 -0 0 0
          -0 0 0 0 -0 0 -0 0 -0 -0 0 0
          -0 0 -0
        </DataArray>
        <DataArray type="Float32" Name="process rank" NumberOfComponents="1" format="ascii">
          0 0 0 0 0 0 0 0 0 0 0 0
          0 0 0 0 0 0 0 0 0 0 0 0
          0 0 0 0 0 0 0 0 0 0 0 0
          0 0 0 0 0 0 0 0 0 0 0 0
          0 0 0 0 0 0 0 0 0 0 0 0
          0 0 0 0 0 0 0 0 0 0 0 0
          0 0 0 0 0 0 0 0 0 0 0 0
          0 0 0 0 0 0 0 0 0 0 0 0
          0 0 0 0 0 0 0 0 0 0 0 0
          0 0 0 0 0 0 0 0 0 0 0 0
          0 0 0 0 0 0 0 0 0 0 0 0
          0 0 0 0 0
        </DataArray>
        <DataArray type="Float32" Name="throatLabel" NumberOfComponents="1" format="ascii">
          2 2 2 2 2 2 2 2 2 -1 -1 -1
          -1 -1 -1 -1 -1 -1 -1 -1 -1 -1 -1 -1
          -1 -1 -1 -1 -1 -1 -1 -1 -1 -1 -1 -1
          -1 -1 -1 -1 -1 -1 -1 -1 -1 -1 -1 -1
          -1 -1 -1 -1 -1 -1 -1 -1 -1 -1 -1 -1
          -1 -1 -1 -1 -1 -1 -1 -1 -1 -1 -1 -1
          -1 -1 -1 -1 -1 -1 -1 -1 -1 -1 -1 -1
          -1 -1 -1 -1 -1 -1 -1 -1 -1 -1 -1 -1
          -1 -1 -1 -1 -1 -1 -1 -1 -1 -1 -1 -1
          -1 -1 -1 -1 -1 -1 -1 -1 -1 -1 -1 -1
          -1 -1 -1 3 -1 3 -1 -1 -1 -1 3 -1
          -1 -1 3 -1 3
        </DataArray>
        <DataArray type="Float32" Name="throatInscribedRadius" NumberOfComponents="1" format="ascii">
          3.3304e-05 3.384e-05 3.3615e-05 3.3259e-05 3.3423e-05 3.3717e-05 3.3301e-05 3.3963e-05 3.3418e-05 3.4247e-05 3.3272e-05 3.37e-05
          3.3125e-05 3.3391e-05 3.3434e-05 3.3768e-05 3.3951e-05 3.3734e-05 3.3508e-05 3.3908e-05 3.3903e-05 3.3674e-05 3.3826e-05 3.3772e-05
          3.3303e-05 3.389e-05 3.3413e-05 3.3431e-05 3.3693e-05 3.353e-05 3.3589e-05 3.3834e-05 3.3987e-05 3.3567e-05 3.3743e-05 3.3553e-05
          3.371e-05 3.3781e-05 3.3426e-05 3.3726e-05 3.3836e-05 3.3664e-05 3.422e-05 3.3429e-05 3.3386e-05 3.305e-05 3.3941e-05 3.3926e-05
          3.3606e-05 3.3937e-05 3.3695e-05 3.3731e-05 3.3671e-05 3.3781e-05 3.3667e-05 3.4584e-05 3.3243e-05 3.3015e-05 3.3252e-05 3.3267e-05
          3.3488e-05 3.3576e-05 3.356e-05 3.3816e-05 3.3764e-05 3.3887e-05 3.4237e-05 3.4047e-05 3.3204e-05 3.2859e-05 3.3938e-05 3.3021e-05
          3.3656e-05 3.3645e-05 3.4391e-05 3.361e-05 3.3463e-05 3.3712e-05 3.3716e-05 3.3657e-05 3.3429e-05 3.3224e-05 3.374e-05 3.3184e-05
          3.3288e-05 3.4084e-05 3.3492e-05 3.3586e-05 3.3937e-05 3.3532e-05 3.3981e-05 3.3517e-05 3.3975e-05 3.3845e-05 3.3562e-05 3.3343e-05
          3.3284e-05 3.3542e-05 3.3486e-05 3.3496e-05 3.3966e-05 3.3533e-05 3.402e-05 3.3455e-05 3.3962e-05 3.3458e-05 3.3693e-05 3.3961e-05
          3.3494e-05 3.3486e-05 3.4314e-05 3.3954e-05 3.3488e-05 3.3852e-05 3.3512e-05 3.3871e-05 3.4113e-05 3.3098e-05 3.3981e-05 3.4127e-05
          3.3649e-05 3.4226e-05 3.3685e-05 3.322e-05 3.2903e-05 3.3521e-05 3.3874e-05 3.374e-05 3.3772e-05 3.344e-05 3.3682e-05 3.3086e-05
          3.3378e-05 3.3359e-05 3.3808e-05 3.3628e-05 3.3247e-05
        </DataArray>
        <DataArray type="Float32" Name="throatLength" NumberOfComponents="1" format="ascii">
          6.6609e-05 3.384e-05 3.3615e-05 9.9777e-05 6.6846e-05 0.00010115 9.9902e-05 6.7925e-05 0.00010025 0.00010274 9.9816e-05 3.37e-05
          9.9376e-05 6.6781e-05 0.0001003 6.7537e-05 6.7903e-05 0.0001012 3.3508e-05 6.7817e-05 0.00010171 6.7347e-05 0.00010148 0.00010132
          6.6606e-05 3.389e-05 6.6826e-05 3.3431e-05 6.7385e-05 6.706e-05 0.00010077 0.0001015 0.00010196 0.0001007 6.7487e-05 0.00010066
          6.7421e-05 3.3781e-05 3.3426e-05 0.00010118 6.7672e-05 0.00010099 3.422e-05 6.6858e-05 6.6772e-05 3.305e-05 6.7881e-05 6.7852e-05
          3.3606e-05 6.7873e-05 3.3695e-05 3.3731e-05 3.3671e-05 3.3781e-05 3.3667e-05 3.4584e-05 6.6486e-05 3.3015e-05 6.6503e-05 9.9802e-05
          6.6975e-05 6.7153e-05 6.7119e-05 3.3816e-05 6.7529e-05 0.00010166 0.00010271 3.4047e-05 3.3204e-05 6.5718e-05 6.7876e-05 6.6043e-05
          3.3656e-05 0.00010094 3.4391e-05 3.361e-05 3.3463e-05 3.3712e-05 6.7432e-05 6.7313e-05 3.3429e-05 9.9673e-05 0.00010122 9.9553e-05
          3.3288e-05 0.00010225 0.00010048 0.00010076 0.00010181 0.0001006 6.7962e-05 3.3517e-05 6.7951e-05 3.3845e-05 3.3562e-05 0.00010003
          3.3284e-05 3.3542e-05 3.3486e-05 6.6992e-05 6.7931e-05 3.3533e-05 0.00010206 6.691e-05 0.00010189 6.6916e-05 6.7385e-05 3.3961e-05
          3.3494e-05 6.6972e-05 3.4314e-05 0.00010186 3.3488e-05 0.00010156 6.7024e-05 0.00010161 0.00010234 3.3098e-05 6.7962e-05 6.8254e-05
          0.00010095 0.00010268 3.3685e-05 3.322e-05 6.5807e-05 3.3521e-05 6.7748e-05 6.748e-05 3.3772e-05 3.344e-05 0.00010104 9.9259e-05
          6.6757e-05 0.00010008 3.3808e-05 0.00010088 9.974e-05
        </DataArray>
        <DataArray type="Float32" Name="pcEntry" NumberOfComponents="1" format="ascii">
          4106.16 4041.12 4068.17 4111.71 4091.54 4055.86 4106.53 4026.48 4092.15 3993.09 4110.11 4057.91
          4128.35 4095.46 4090.19 4049.74 4027.91 4053.82 4081.16 4033.01 4033.61 4061.04 4042.79 4049.26
          4106.28 4035.16 4092.76 4090.56 4058.75 4078.48 4071.32 4041.84 4023.64 4073.98 4052.74 4075.68
          4056.7 4048.18 4091.17 4054.78 4041.6 4062.25 3996.24 4090.8 4096.07 4137.71 4029.09 4030.87
          4069.26 4029.57 4058.51 4054.18 4061.4 4048.18 4061.88 3954.18 4113.69 4142.1 4112.58 4110.72
          4083.6 4072.89 4074.83 4043.99 4050.21 4035.51 3994.26 4016.55 4118.52 4161.77 4029.45 4141.35
          4063.21 4064.54 3976.37 4068.77 4086.65 4056.46 4055.98 4063.09 4090.8 4116.04 4053.1 4121.01
          4108.13 4012.19 4083.11 4071.68 4029.57 4078.24 4024.35 4080.06 4025.06 4040.52 4074.59 4101.35
          4108.62 4077.02 4083.84 4082.62 4026.13 4078.12 4019.74 4087.62 4026.6 4087.26 4058.75 4026.72
          4082.86 4083.84 3985.3 4027.55 4083.6 4039.69 4080.67 4037.42 4008.78 4131.71 4024.35 4007.13
          4064.06 3995.54 4059.71 4116.54 4156.2 4079.58 4037.06 4053.1 4049.26 4089.46 4060.08 4133.21
          4097.05 4099.39 4044.94 4066.59 4113.2
        </DataArray>
        <DataArray type="Float32" Name="transmissibilityW" NumberOfComponents="1" format="ascii">
          1.03853e-14 4.14542e-17 3.56912e-17 1.47453e-17 4.06657e-17 1.99328e-17 1.49704e-17 4.00198e-17 6.99529e-15 7.52868e-15 6.90373e-15 2.15208e-14
          6.81256e-15 1.04673e-14 7.0052e-15 1.08255e-14 1.10024e-14 7.19547e-15 2.1155e-14 1.09607e-14 7.30394e-15 1.07357e-14 7.25421e-15 7.21938e-15
          3.17452e-17 6.23906e-17 1.04878e-14 2.10095e-14 6.5254e-17 1.05984e-14 7.10273e-15 7.25965e-15 7.3585e-15 7.08906e-15 1.08015e-14 7.08005e-15
          1.07698e-14 2.16763e-14 2.10001e-14 7.19006e-15 1.08912e-14 7.15077e-15 5.89189e-17 1.05029e-14 1.04624e-14 2.02994e-14 1.09931e-14 1.09783e-14
          2.13412e-14 1.09892e-14 2.15112e-14 2.15802e-14 2.14653e-14 7.16338e-17 4.64602e-17 2.32591e-14 1.03285e-14 2.02349e-14 1.03371e-14 6.90054e-15
          3.46582e-17 1.06419e-14 6.55126e-17 4.62554e-17 2.49283e-17 2.58155e-17 7.52208e-15 2.21924e-14 2.80117e-17 9.97473e-15 1.099e-14 1.01228e-14
          2.14366e-14 7.13817e-15 2.28719e-14 2.13488e-14 2.10699e-14 2.15438e-14 1.07757e-14 1.07194e-14 2.10058e-14 6.87382e-15 7.19916e-15 6.84902e-15
          2.07411e-14 7.42176e-15 7.0413e-15 7.10089e-15 7.32608e-15 7.06656e-15 1.10318e-14 2.11721e-14 1.10258e-14 2.17998e-14 2.12575e-14 6.94795e-15
          2.07336e-14 2.12195e-14 2.11134e-14 1.05662e-14 1.10174e-14 2.12024e-14 7.37989e-15 1.05274e-14 7.34192e-15 1.05302e-14 1.07538e-14 2.20247e-14
          2.11285e-14 1.05567e-14 2.27186e-14 7.33716e-15 2.11172e-14 7.27081e-15 1.05813e-14 9.15364e-18 9.08835e-18 2.03879e-14 1.10318e-14 1.11746e-14
          7.14086e-15 7.51462e-15 2.1492e-14 2.06142e-14 1.00147e-14 2.11797e-14 1.09279e-14 1.07987e-14 2.1659e-14 2.10265e-14 7.16253e-15 6.78852e-15
          1.04547e-14 6.95781e-15 2.17283e-14 7.12799e-15 6.88824e-15
        </DataArray>
        <DataArray type="Float32" Name="transmissibilityN" NumberOfComponents="1" format="ascii">
          0 1.93018e-14 1.9078e-14 6.05924e-15 8.77504e-15 6.18886e-15 6.07737e-15 9.26472e-15 0 0 0 0
          0 0 0 0 0 0 0 0 0 0 0 0
          8.87275e-15 1.88116e-14 0 0 8.5483e-15 0 0 0 0 0 0 0
          0 0 0 0 0 0 1.95026e-14 0 0 0 0 0
          0 0 0 0 0 1.83937e-14 1.88382e-14 0 0 0 0 0
          8.9652e-15 0 8.43042e-15 1.91134e-14 9.4579e-15 6.15027e-15 0 0 1.86104e-14 0 0 0
          0 0 0 0 0 0 0 0 0 0 0 0
          0 0 0 0 0 0 0 0 0 0 0 0
          0 0 0 0 0 0 0 0 0 0 0 0
          0 0 0 0 0 0 0 6.61368e-15 6.7664e-15 0 0 0
          0 0 0 0 0 0 0 0 0 0 0 0
          0 0 0 0 0
        </DataArray>
        <DataArray type="Float32" Name="volumeFluxW" NumberOfComponents="1" format="ascii">
          1.37474e-09 2.56994e-11 1.66515e-11 7.22346e-12 1.7946e-11 1.02607e-11 7.10454e-12 2.46484e-12 1.31172e-12 5.94783e-11 5.99933e-11 0
          0 1.04416e-10 1.04416e-10 0 0 0 0 2.19665e-10 2.19665e-10 0 3.15427e-11 3.15427e-11
          3.086e-12 3.22927e-11 5.38203e-10 8.15417e-10 1.40707e-10 1.54898e-08 0 6.86287e-09 3.04556e-09 2.24973e-09 1.65344e-10 9.74129e-10
          8.79202e-10 1.12829e-09 1.45731e-10 2.27863e-09 1.00461e-09 0 1.56307e-11 6.17229e-10 4.97928e-09 2.92032e-09 0 1.72977e-09
          8.73324e-09 6.90205e-09 5.15804e-10 1.88122e-10 8.95291e-09 3.01132e-11 1.63746e-11 8.48832e-10 4.93713e-10 2.16457e-10 1.38662e-10 9.34364e-10
          8.42439e-12 5.38203e-10 4.55159e-11 3.57472e-11 1.77389e-11 9.304e-12 1.37292e-09 2.24973e-09 3.17556e-11 1.02563e-09 3.92472e-10 8.57089e-09
          4.46911e-09 4.03537e-09 4.11e-10 1.00631e-09 1.67975e-09 1.26703e-08 1.26703e-08 3.92472e-10 4.10178e-09 2.72886e-09 1.37292e-09 1.24337e-09
          2.64944e-09 1.00123e-09 7.52877e-09 4.8097e-10 4.36869e-09 3.8775e-09 6.72507e-10 7.57369e-09 1.39322e-08 2.64944e-09 3.13041e-09 1.14715e-09
          1.01236e-08 3.82359e-10 5.73615e-11 5.78383e-10 1.68592e-10 1.49284e-11 3.05504e-12 1.79834e-11 2.43524e-10 3.05504e-12 2.61507e-10 3.27688e-10
          2.43761e-10 3.27688e-10 0 0 4.62705e-10 4.11e-10 6.79372e-10 2.76169e-11 2.07821e-11 0 1.00123e-09 3.25528e-09
          1.84136e-09 0 2.61507e-10 7.5699e-08 7.31432e-09 7.52877e-09 3.02462e-09 4.39736e-09 4.50315e-09 3.02462e-09 5.65181e-09 0
          0 1.48004e-09 1.01236e-08 0 6.90062e-09
        </DataArray>
        <DataArray type="Float32" Name="volumeFluxN" NumberOfComponents="1" format="ascii">
          0 1.43098e-09 1.42834e-08 4.84071e-10 1.66381e-11 9.83918e-08 8.8778e-10 1.56698e-09 0 0 0 0
          0 0 0 0 0 0 0 0 0 0 0 0
          3.68626e-09 1.0492e-08 0 0 1.56897e-08 0 0 0 0 0 0 0
          0 0 0 0 0 0 9.91456e-08 0 0 0 0 0
          0 0 0 0 0 2.62401e-09 1.06058e-09 0 0 0 0 0
          1.01024e-09 0 1.05176e-11 1.65363e-09 4.72452e-10 4.43365e-10 0 0 1.01972e-07 0 0 0
          0 0 0 0 0 0 0 0 0 0 0 0
          0 0 0 0 0 0 0 0 0 0 0 0
          0 0 0 0 0 0 0 0 0 0 0 0
          0 0 0 0 0 0 0 1.09513e-07 7.37976e-09 0 0 0
          0 0 0 0 0 0 0 0 0 0 0 0
          0 0 0 0 0
        </DataArray>
      </CellData>
      <Points>
        <DataArray type="Float32" Name="Coordinates" NumberOfComponents="3" format="ascii">
          2 2 3 1 1 4 2 1 4 1 1 5
          2 1 1 1 2 1 1 2 3 2 1 3
          2 3 4 2 2 4 2 2 2 1 2 4
          1 2 5 2 3 2 1 3 2 2 3 3
          1 3 4 2 4 4 1 3 5 1 4 1
          1 4 2 1 4 4 2 3 5 1 4 5
          2 5 4 2 4 2 1 5 1 1 5 4
          3 1 1 3 2 1 3 1 4 3 1 3
          2 2 1 3 3 1 3 3 3 3 2 3
          3 2 2 2 2 5 3 2 5 3 2 4
          2 4 3 3 4 5 3 3 2 3 4 3
          3 5 4 3 4 2 4 1 2 3 1 2
          4 2 1 4 1 1 4 2 4 4 2 2
          4 3 1 4 2 5 3 3 5 4 4 1
          4 2 3 4 3 5 3 3 4 4 3 3
          3 4 1 3 5 3 4 3 2 4 4 2
          3 5 2 3 4 4 4 5 4 4 3 4
          4 4 3 4 4 5 4 5 3 5 2 2
          4 1 4 4 1 3 5 2 3 5 2 5
          5 3 2 5 1 1 5 1 3 5 3 3
          5 2 4 5 4 1 5 3 4 5 4 5
          5 5 1 4 4 4 5 3 5 5 4 4
          5 5 4 5 4 3
        </DataArray>
      </Points>
      <Lines>
        <DataArray type="Int32" Name="connectivity" NumberOfComponents="1" format="ascii">
          0 1 2 3 4 5 0 6 7 6 8 6
          9 6 10 6 7 11 2 12 8 12 13 14
          15 14 8 16 0 16 17 18 13 19 15 20
          17 21 22 23 24 23 25 26 24 27 17 27
          28 4 29 4 30 2 31 2 29 32 33 32
          13 32 33 10 34 10 35 10 9 0 34 0
          36 0 37 9 38 37 22 37 8 37 15 13
          39 8 40 8 41 22 39 22 42 25 43 40
          17 40 44 40 45 40 24 17 41 17 29 28
          46 28 31 47 36 47 48 47 49 47 50 31
          39 31 38 30 33 29 46 29 51 29 42 29
          52 36 50 35 53 39 34 39 54 38 55 33
          55 42 43 42 56 34 51 34 45 34 57 58
          59 58 50 54 55 60 45 60 52 60 43 45
          61 45 62 43 63 43 64 43 44 65 66 65
          67 65 59 65 57 41 61 64 68 64 69 44
          70 44 46 49 48 49 71 49 48 46 72 73
          74 73 71 73 50 72 74 72 75 72 76 48
          71 51 76 51 77 51 78 51 79 51 67 56
          79 50 57 53 80 53 81 52 71 62 79 59
          71 59 82 67 75 67 83 57 80 57 84 63
          85 68 79 68 66 68 69 85 83 69 86 69
          87 69 66 69 88 70 89 66 83 66
        </DataArray>
        <DataArray type="Int32" Name="offsets" NumberOfComponents="1" format="ascii">
          2 4 6 8 10 12 14 16 18 20 22 24
          26 28 30 32 34 36 38 40 42 44 46 48
          50 52 54 56 58 60 62 64 66 68 70 72
          74 76 78 80 82 84 86 88 90 92 94 96
          98 100 102 104 106 108 110 112 114 116 118 120
          122 124 126 128 130 132 134 136 138 140 142 144
          146 148 150 152 154 156 158 160 162 164 166 168
          170 172 174 176 178 180 182 184 186 188 190 192
          194 196 198 200 202 204 206 208 210 212 214 216
          218 220 222 224 226 228 230 232 234 236 238 240
          242 244 246 248 250 252 254 256 258 260 262 264
          266 268 270 272 274
        </DataArray>
      </Lines>
    </Piece>
  </PolyData>
</VTKFile>
