<?xml version="1.0"?>
<VTKFile type="UnstructuredGrid" version="0.1" byte_order="LittleEndian">
  <UnstructuredGrid>
    <Piece NumberOfCells="90" NumberOfPoints="112">
      <CellData Scalars="wetting pressure">
        <DataArray type="Float32" Name="wetting pressure" NumberOfComponents="1" format="ascii">
          199999 199999 199999 199999 199999 199999 199998 199998 199998 199998 199998 199998
          199998 199998 199998 199999 199999 199999 199999 199999 199999 199998 199998 199998
          199998 199998 199998 199998 199998 199998 199999 199999 199999 199999 199999 199999
          199998 199998 199998 199998 199998 199998 199998 199998 199998 199999 199999 199999
          199999 199999 199999 199998 199998 199998 199998 199998 199998 199998 199998 199998
          199999 199999 199999 199999 199999 199999 199998 199998 199998 199998 199998 199998
          199998 199998 199998 199999 199999 199999 199999 199999 199999 199998 199998 199998
          199998 199998 199998 199998 199998 199998
        </DataArray>
        <DataArray type="Float32" Name="wetting saturation" NumberOfComponents="1" format="ascii">
          0.659477 0.655381 0.650858 0.645405 0.637672 0.622146 0.518202 0.212893 0.2 0.2 0.2 0.2
          0.2 0.2 0.2 0.659477 0.655381 0.650858 0.645405 0.637672 0.622146 0.518202 0.212893 0.2
          0.2 0.2 0.2 0.2 0.2 0.2 0.659477 0.655381 0.650858 0.645405 0.637672 0.622146
          0.518202 0.212893 0.2 0.2 0.2 0.2 0.2 0.2 0.2 0.659477 0.655381 0.650858
          0.645405 0.637672 0.622146 0.518202 0.212893 0.2 0.2 0.2 0.2 0.2 0.2 0.2
          0.659477 0.655381 0.650858 0.645405 0.637672 0.622146 0.518202 0.212893 0.2 0.2 0.2 0.2
          0.2 0.2 0.2 0.659477 0.655381 0.650858 0.645405 0.637672 0.622146 0.518202 0.212893 0.2
          0.2 0.2 0.2 0.2 0.2 0.2
        </DataArray>
      </CellData>
      <Points>
        <DataArray type="Float32" Name="Coordinates" NumberOfComponents="3" format="ascii">
          150 0 0 160 0 0 150 10 0 160 10 0
          170 0 0 170 10 0 180 0 0 180 10 0
          190 0 0 190 10 0 200 0 0 200 10 0
          210 0 0 210 10 0 220 0 0 220 10 0
          230 0 0 230 10 0 240 0 0 240 10 0
          250 0 0 250 10 0 260 0 0 260 10 0
          270 0 0 270 10 0 280 0 0 280 10 0
          290 0 0 290 10 0 300 0 0 300 10 0
          150 20 0 160 20 0 170 20 0 180 20 0
          190 20 0 200 20 0 210 20 0 220 20 0
          230 20 0 240 20 0 250 20 0 260 20 0
          270 20 0 280 20 0 290 20 0 300 20 0
          150 30 0 160 30 0 170 30 0 180 30 0
          190 30 0 200 30 0 210 30 0 220 30 0
          230 30 0 240 30 0 250 30 0 260 30 0
          270 30 0 280 30 0 290 30 0 300 30 0
          150 40 0 160 40 0 170 40 0 180 40 0
          190 40 0 200 40 0 210 40 0 220 40 0
          230 40 0 240 40 0 250 40 0 260 40 0
          270 40 0 280 40 0 290 40 0 300 40 0
          150 50 0 160 50 0 170 50 0 180 50 0
          190 50 0 200 50 0 210 50 0 220 50 0
          230 50 0 240 50 0 250 50 0 260 50 0
          270 50 0 280 50 0 290 50 0 300 50 0
          150 60 0 160 60 0 170 60 0 180 60 0
          190 60 0 200 60 0 210 60 0 220 60 0
          230 60 0 240 60 0 250 60 0 260 60 0
          270 60 0 280 60 0 290 60 0 300 60 0
        </DataArray>
      </Points>
      <Cells>
        <DataArray type="Int32" Name="connectivity" NumberOfComponents="1" format="ascii">
          0 1 3 2 1 4 5 3 4 6 7 5
          6 8 9 7 8 10 11 9 10 12 13 11
          12 14 15 13 14 16 17 15 16 18 19 17
          18 20 21 19 20 22 23 21 22 24 25 23
          24 26 27 25 26 28 29 27 28 30 31 29
          2 3 33 32 3 5 34 33 5 7 35 34
          7 9 36 35 9 11 37 36 11 13 38 37
          13 15 39 38 15 17 40 39 17 19 41 40
          19 21 42 41 21 23 43 42 23 25 44 43
          25 27 45 44 27 29 46 45 29 31 47 46
          32 33 49 48 33 34 50 49 34 35 51 50
          35 36 52 51 36 37 53 52 37 38 54 53
          38 39 55 54 39 40 56 55 40 41 57 56
          41 42 58 57 42 43 59 58 43 44 60 59
          44 45 61 60 45 46 62 61 46 47 63 62
          48 49 65 64 49 50 66 65 50 51 67 66
          51 52 68 67 52 53 69 68 53 54 70 69
          54 55 71 70 55 56 72 71 56 57 73 72
          57 58 74 73 58 59 75 74 59 60 76 75
          60 61 77 76 61 62 78 77 62 63 79 78
          64 65 81 80 65 66 82 81 66 67 83 82
          67 68 84 83 68 69 85 84 69 70 86 85
          70 71 87 86 71 72 88 87 72 73 89 88
          73 74 90 89 74 75 91 90 75 76 92 91
          76 77 93 92 77 78 94 93 78 79 95 94
          80 81 97 96 81 82 98 97 82 83 99 98
          83 84 100 99 84 85 101 100 85 86 102 101
          86 87 103 102 87 88 104 103 88 89 105 104
          89 90 106 105 90 91 107 106 91 92 108 107
          92 93 109 108 93 94 110 109 94 95 111 110
        </DataArray>
        <DataArray type="Int32" Name="offsets" NumberOfComponents="1" format="ascii">
          4 8 12 16 20 24 28 32 36 40 44 48
          52 56 60 64 68 72 76 80 84 88 92 96
          100 104 108 112 116 120 124 128 132 136 140 144
          148 152 156 160 164 168 172 176 180 184 188 192
          196 200 204 208 212 216 220 224 228 232 236 240
          244 248 252 256 260 264 268 272 276 280 284 288
          292 296 300 304 308 312 316 320 324 328 332 336
          340 344 348 352 356 360
        </DataArray>
        <DataArray type="UInt8" Name="types" NumberOfComponents="1" format="ascii">
          9 9 9 9 9 9 9 9 9 9 9 9
          9 9 9 9 9 9 9 9 9 9 9 9
          9 9 9 9 9 9 9 9 9 9 9 9
          9 9 9 9 9 9 9 9 9 9 9 9
          9 9 9 9 9 9 9 9 9 9 9 9
          9 9 9 9 9 9 9 9 9 9 9 9
          9 9 9 9 9 9 9 9 9 9 9 9
          9 9 9 9 9 9
        </DataArray>
      </Cells>
    </Piece>
  </UnstructuredGrid>
</VTKFile>
