<?xml version="1.0"?>
<VTKFile type="UnstructuredGrid" version="0.1" byte_order="LittleEndian">
  <UnstructuredGrid>
    <Piece NumberOfCells="1923" NumberOfPoints="1087">
      <PointData Vectors="d">
        <DataArray type="Float64" Name="d" NumberOfComponents="3" format="ascii">
          -1.83208852710866e-05 -1.96205451720041e-05 0 0 0 0 0 0 0 -2.30545689033587e-05 -1.93264862193229e-05 0
          -4.0832690015071e-05 -3.43412120857123e-05 0 -9.1457636032814e-06 -8.24022180697031e-06 0 -3.54679692524098e-05 -3.17761760897417e-05 0 -6.19820484400414e-05 -5.21805178182013e-05 0
          -5.35109624668649e-05 -5.5186528809028e-05 0 -8.27273612945335e-05 -7.5936115908433e-05 0 -6.91269596343335e-05 -8.222152359933e-05 0 -0.000103280986691914 -0.000106213771488606 0
          -8.82988417459869e-05 -0.000115844955253199 0 -0.000123812300654773 -0.000142541768347017 0 -0.000106234653636828 -0.000155122298665246 0 -0.000143973737627398 -0.000184274535820602 0
          -0.000162772910547577 -0.000231429525963838 0 -0.000113612751477713 -0.00019418211993323 0 -0.000180638129727215 -0.000284494224182381 0 -0.000123191831901713 -0.000242937055842897 0
          -0.000197552343926957 -0.000342327551127627 0 -0.000130894356528031 -0.000300395539836696 0 -0.000153652900477957 -0.000367289158729493 0 -0.000214504050004783 -0.000404895922436513 0
          -0.000165437665795092 -0.000433123594742588 0 -0.000230886023518075 -0.000472610978449968 0 -0.000172407847222132 -0.000511894883514011 0 -0.000246271257528848 -0.000545086248354531 0
          -0.000202410995192201 -0.000577651508241574 0 -0.000262075443310394 -0.000621519088220816 0 -0.000197052712670299 -0.000656805647426509 0 -0.000276611795682263 -0.000701943152959641 0
          -0.000225830401502698 -0.000737467274319448 0 -0.000291283788802372 -0.000786886176180174 0 -0.000304648894893949 -0.000874906486518463 0 -0.000211267339210182 -0.000816848962654842 0
          -0.000233127075842636 -0.000917566010890389 0 -1.58276059231401e-05 -1.3506747911248e-05 0 0 0 0 -1.87452342803467e-05 -2.41411713624868e-05 0
          -3.28340637644978e-05 -4.16587255461274e-05 0 -3.79899239129507e-05 -6.24868781715701e-05 0 -4.77200644514059e-06 -3.2838152092231e-06 0 0 0 0
          -7.53708838035119e-06 -9.40012584890735e-06 0 -1.73838679523603e-05 -3.87785404141814e-05 0 -5.77860115332291e-05 -9.85061144467969e-05 0 -7.62348290687517e-05 -0.000131226375139605 0
          -7.58306073890018e-05 -0.000160031083931473 0 -7.12763883462939e-05 -0.000204292213607699 0 -8.71937588094738e-05 -0.000252048735482254 0 -4.76037946949544e-05 -0.00012234931313232 0
          -2.73459177050375e-05 -8.8064154083866e-05 0 -3.72051767832683e-05 -0.000156243229477998 0 -4.53208560782915e-05 -0.000240732210710523 0 -1.54791600344018e-06 -1.21848907524481e-06 0
          -6.20922623489146e-06 -2.05624125572119e-05 0 0 0 0 -1.1978852279801e-07 -7.79947720976225e-06 0 -1.08072591482406e-05 -6.03883512024808e-05 0
          2.80927783188356e-07 -3.74100603832657e-05 0 1.48271668389398e-06 -1.13431083785137e-06 0 5.52542055502123e-06 -2.01802300045969e-05 0 1.65502336438549e-05 -6.35143733271255e-05 0
          -1.50487738399687e-05 -0.000118812412029881 0 1.7359703448954e-06 -8.65027823448156e-05 0 2.94687210369981e-06 -0.00015473422691724 0 -1.88041854703495e-05 -0.000195433894136163 0
          4.4276538087144e-06 -0.000239209101668538 0 1.94308409420417e-05 -0.000120407472369632 0 2.71755197004585e-05 -0.000195973194822274 0 -0.000101827641420068 -0.000338797811235205 0
          -7.30906678976195e-05 -0.000291911814086869 0 -9.90738654779153e-05 -0.000395459746392781 0 -0.000120337585615006 -0.000461718375023079 0 -9.84764375708732e-05 -0.000519607136471522 0
          -5.316710164734e-05 -0.000340661295673161 0 -5.98309650024131e-05 -0.000456357432630772 0 -0.00014161692075913 -0.000584510422298431 0 -0.00011002669056395 -0.000655759416868276 0
          -0.000154127932664018 -0.000730624403508449 0 -0.000116920431223103 -0.000804069808073125 0 -0.000156519295098133 -0.000874912632627831 0 -6.62525161425648e-05 -0.000584194926374146 0
          -7.14682640032075e-05 -0.000727423628736868 0 -7.96768329742519e-05 -0.000879881993371038 0 -2.2000931182928e-05 -0.000288086685026704 0 5.86685466328485e-06 -0.000339852824344829 0
          -2.7464209941097e-05 -0.000394955579007729 0 -2.80523764448906e-05 -0.0005183522268992 0 3.30793922033346e-06 -0.000452662707545276 0 3.24234249768246e-05 -0.000288143489951595 0
          3.4390138918429e-05 -0.000394269381774131 0 4.94249375316754e-05 -0.00050957760155007 0 -2.94818158043704e-05 -0.000654454196748249 0 9.90525784206444e-06 -0.000583214157056111 0
          -3.15356311661367e-05 -0.000802073055238181 0 4.90252848017796e-05 -0.000654668610854656 0 1.04075791262036e-05 -0.000726719624364824 0 8.55026240755229e-06 -0.00088428670103588 0
          6.04508749906499e-05 -0.000812465127011179 0 0 0 0 8.01818089998322e-06 -8.88568154721088e-06 0 4.06652319224504e-06 -2.91025334810041e-06 0
          1.54553745539182e-05 -2.17364178232692e-05 0 1.7479331317291e-05 -3.78249347621408e-05 0 3.83227010738453e-05 -5.78427173473904e-05 0 0 0 0
          1.95465618743623e-05 -1.88018436915003e-05 0 1.17998063715489e-05 -9.9017806484035e-06 0 7.88893841542576e-06 -7.45731968286078e-06 0 2.9318590612154e-05 -3.48472901843037e-05 0
          4.72536887116309e-05 -8.68964943596969e-05 0 2.69564563795632e-05 -9.37519642129563e-05 0 4.33980522166867e-05 -0.000157953993084637 0 5.61711814997909e-05 -0.000125167461816533 0
          5.43173283140318e-05 -0.000241135447154898 0 7.8006810425548e-05 -0.000200279203970066 0 7.54605346121586e-05 -0.000165860245363445 0 0.000119583569036705 -0.000250138031922422 0
          0 0 0 2.13070503168849e-05 -1.77069748421005e-05 0 3.65746614653344e-05 -3.28370212267561e-05 0 5.19596625814275e-05 -5.33418541628288e-05 0
          6.75311288543505e-05 -8.08218849987934e-05 0 1.83256841609706e-05 -2.00591016993797e-05 0 4.02897130895591e-05 -3.50075405067425e-05 0 0 0 0
          6.17360606302618e-05 -5.33494753928315e-05 0 8.25675435184785e-05 -7.72623661867323e-05 0 0.000102860474681612 -0.000107500958820576 0 8.21397480633216e-05 -0.000114692461467812 0
          9.88071979260517e-05 -0.000154464367194193 0 0.000114667234157963 -0.00019902517616664 0 0.000122226706966017 -0.000144094846982322 0 0.000141057281881351 -0.000186556730283849 0
          0.000159588829393207 -0.000234401839371845 0 0.000176482648637315 -0.000287724569970487 0 6.11768931548454e-05 -0.000339171856588591 0 8.69242384897167e-05 -0.000291524469087982 0
          5.5688335306389e-05 -0.00044573692344461 0 9.86933725311013e-05 -0.000397226707033247 0 0.00010780640103149 -0.000469108530811846 0 0.000106770935298769 -0.00033596532834114 0
          0.000115128118055597 -0.000530436904327847 0 8.38530971108377e-05 -0.000586981232609899 0 9.21747647528083e-05 -0.000728815058128115 0 7.61536005511875e-05 -0.000897144485612057 0
          0.000138492670667901 -0.000869149761682389 0 0.000127432908839824 -0.000658101536611427 0 0.000168341498549752 -0.0005869620183068 0 0.000135952484954865 -0.000794754507043371 0
          0.000185017208537248 -0.000738124732018225 0 0.000139271907906957 -0.000309662849370212 0 0.000151246975294215 -0.000370386335784861 0 0.000158399764318755 -0.000435135592739361 0
          0.00016674584411246 -0.000506220849702062 0 0.000193033510430318 -0.000346793384454214 0 0.000208883028000903 -0.000409934922840799 0 0.000223727082384353 -0.000478203294016683 0
          0.000237721667666184 -0.000551220034071236 0 0.000198619456352349 -0.000662835989880114 0 0.000205289331162587 -0.000831680952377504 0 0.000213991641100086 -0.000922788436795422 0
          0.000250554722615446 -0.000628679537310811 0 0.000263733851911599 -0.000710194061357719 0 0.000275284235593868 -0.000794986510615616 0 0.000286442821288928 -0.000883998630219413 0
          -0.000317677436208852 -0.000966693999295309 0 -0.000243091616039019 -0.00101019883374532 0 -0.000330279610029008 -0.00106222028414003 0 -0.000252253572004674 -0.00110737755286926 0
          -0.000342386479914852 -0.0011608507425079 0 -0.000260230353291741 -0.00120780503779662 0 -0.000354138945860563 -0.00126260388249716 0 -0.000253616363754073 -0.0013110137984341 0
          -0.000364963179813414 -0.00136706667046029 0 -0.000375763534239609 -0.00147418074882061 0 -0.000277997479206884 -0.00141749406907671 0 -0.000286997201634496 -0.00152630832166693 0
          -0.000386012574327947 -0.00158381762068337 0 -0.000295554459011304 -0.00163643485805067 0 -0.000395733536523841 -0.00169596176433715 0 -0.000305420932723299 -0.00174391297121485 0
          -0.000405090590635576 -0.00181042821992898 0 -0.000414083275541114 -0.00192680032923243 0 -0.000327172953174497 -0.00183178171231698 0 -0.000273450927024935 -0.00190316150347871 0
          -0.000313934917964031 -0.0020079700698199 0 -0.000422544161491767 -0.00204539714532093 0 -0.000328259063095431 -0.00211079994068086 0 -0.000430704405641802 -0.00216535441061583 0
          -0.000330366022154722 -0.00222651115159084 0 -0.000438449246843485 -0.00228697625176588 0 -0.000445722700903794 -0.00241020416902815 0 -0.000335645998697721 -0.00234822954993641 0
          -0.000347517240648192 -0.00247285970031715 0 -0.000452718328090245 -0.00253496375120836 0 -0.000339004889457669 -0.00261206209287232 0 -0.000459175379610053 -0.00266082764683414 0
          -0.00035948187499426 -0.00273833555890611 0 -0.00046536127414965 -0.00278774926526391 0 -0.000359955675164498 -0.00285584024325276 0 -0.000471179762236713 -0.00291561938783576 0
          -0.000361673640397195 -0.00298383777158009 0 -0.000476592248646667 -0.00304440551257548 0 -0.000368017204455854 -0.00311037497349961 0 -0.000481672399193444 -0.0031740087521173 0
          -0.000376553387201254 -0.00323504343463328 0 -0.000486408817075248 -0.00330409716801226 0 -0.000490890209494986 -0.00343481585096579 0 -0.000388186359441317 -0.00335014309861274 0
          -0.000386353583070507 -0.00350652509240017 0 -0.000494994204834685 -0.00356590241608229 0 -0.000498805062030853 -0.00369731998787087 0 -0.000384066561915838 -0.00362156185528749 0
          -0.000502273520202335 -0.00382893726175969 0 -0.000379384022642012 -0.0037641954891821 0 -0.000419766052839462 -0.00389270177427456 0 -0.000505499577409872 -0.00396081143269249 0
          -0.000508450324736794 -0.00409261803286853 0 -0.000387115201944089 -0.00400954364359082 0 -0.00039907627293169 -0.00415726516165211 0 -0.000511093889826763 -0.00422441606604824 0
          -0.000401033781028662 -0.00428981894111433 0 -0.000513489765555341 -0.00435610130707209 0 -0.000387158383408668 -0.0044301750229858 0 -0.000515608864386041 -0.0044875033632886 0
          -0.00042787465039535 -0.00455166131781243 0 -0.000517493128800923 -0.00461883113714018 0 -0.000402767432067748 -0.00468196844568633 0 -0.000519168159019024 -0.00474967928402397 0
          -0.00043052750227087 -0.00481750994736244 0 -0.000520543902522965 -0.00488016570318895 0 -0.00042467203072125 -0.00494630956311385 0 -0.000168297382873827 -0.00106207795943635 0
          -0.00014237226668149 -0.00096205801317562 0 -0.000178248419470187 -0.00115472343619137 0 -0.000184975314111755 -0.00123757967832689 0 -8.17263393756898e-05 -0.00104454618386217 0
          -0.000107268254327373 -0.0011161824521421 0 -9.39260098923223e-05 -0.00120902437824242 0 -0.000139781239058141 -0.00130945361756211 0 -0.000193689440950506 -0.00138266397181632 0
          -0.000196277117536689 -0.00147004191142801 0 -0.000187111568643186 -0.00158511412296349 0 -0.000206787246709235 -0.00169977767068201 0 -0.000100859970490792 -0.00140922847079969 0
          -0.000121446938968406 -0.00150896011440336 0 -0.000120538689886057 -0.00167083853325241 0 -0.000107210732516294 -0.00177273567329307 0 -3.34770481382937e-05 -0.000961097587002671 0
          -3.18489015628123e-05 -0.00112682958689469 0 7.97633913075159e-06 -0.00104133986295321 0 5.79263181548841e-05 -0.000961886617547617 0 1.35902532453094e-05 -0.00121837909888358 0
          -3.85751440582374e-05 -0.0013067346248793 0 6.781051612884e-05 -0.00111868173618018 0 -3.9008384862747e-05 -0.00149477946336343 0 -8.41279838348782e-05 -0.00158888569850415 0
          -3.38604151217239e-05 -0.00168532794909159 0 1.34783105124001e-05 -0.00140023770995669 0 6.21655370585784e-05 -0.00130734282198347 0 6.55188927614068e-05 -0.00149434547268077 0
          1.4301843506454e-05 -0.00159116157439153 0 7.15283303475081e-05 -0.00168924375549079 0 1.62851859432745e-05 -0.00178823892053671 0 -0.000229515335354574 -0.00180598162141393 0
          -0.000207119013507133 -0.00198683116927676 0 -0.00024108738803217 -0.00207612647187247 0 -0.000231279689233325 -0.00216593636080521 0 -0.000230609458442474 -0.00227998279908981 0
          -0.000158290690348752 -0.00188911792397149 0 -9.95751143488239e-05 -0.00199007715769356 0 -0.000147823347881849 -0.00208746748519367 0 -0.000115584585116675 -0.00220856788284135 0
          -0.000228015811889874 -0.00241398738639313 0 -0.000265902404845929 -0.00253478182978575 0 -0.00027022960719429 -0.002702882179423 0 -0.000222693796227046 -0.00262346533064217 0
          -0.000140027017478656 -0.00232340856652035 0 -0.000163210300383639 -0.00252431571995847 0 -0.000171591022123474 -0.00273154386818873 0 -4.37604491588869e-05 -0.0018868295118056 0
          -4.13822920641548e-05 -0.00209408883270415 0 1.50932126453934e-05 -0.00199185023563644 0 7.24587937579969e-05 -0.00189076783792519 0 1.46763063787347e-05 -0.0022009457815122 0
          7.06287983986213e-05 -0.00209442443867506 0 -0.000103060588883026 -0.00241691126688894 0 -4.5901019491109e-05 -0.0023075069850561 0 -0.000110465965458421 -0.0026326422459999 0
          -4.62000908869974e-05 -0.00252389979949813 0 -4.93138578249756e-05 -0.00274305328238533 0 1.81594025335081e-05 -0.00241584800022649 0 7.51111482972152e-05 -0.00230878383079643 0
          1.3936868220071e-05 -0.00263353638964063 0 7.98458866306848e-05 -0.00102877430452439 0 0.000133250879774207 -0.000964147572825864 0 0.00011077083743527 -0.00121782652549055 0
          0.000148577316569443 -0.00106341089063692 0 0.000153202415833976 -0.00114576126565411 0 0.00015099767329496 -0.00130195811385257 0 0.000218074707778137 -0.00122064837436712 0
          0.000106507309210247 -0.00139326908355081 0 0.000141228784709639 -0.00158922119387788 0 0.000166268664321113 -0.00146835306358632 0 0.000184621368561138 -0.00137803684455187 0
          0.000171634638504884 -0.0016968542451941 0 0.00014609400297678 -0.00179994250659733 0 0.000221271657590972 -0.0010169663068082 0 0.000227352193404789 -0.00111277451057276 0
          0.000244315890107869 -0.00132758217426041 0 0.000296849725268908 -0.000976518008146089 0 0.00030653679635206 -0.00107262829284792 0 0.000315603401639158 -0.00117200329024968 0
          0.000323545725463665 -0.00127432752642241 0 0.000251412521707738 -0.00143113866343048 0 0.00024723958316855 -0.00153618961622662 0 0.000253647362733909 -0.00164424022134338 0
          0.000257587672613178 -0.00176270083276976 0 0.000331308400146234 -0.00137970843017082 0 0.000338487612457213 -0.00148737951023734 0 0.000344793020040966 -0.00159752397796788 0
          0.000350498804398567 -0.00171039781251941 0 0.00012571025142117 -0.00199337451556035 0 0.000147108275406433 -0.00219381178526566 0 0.000168302871268246 -0.00190980380167055 0
          0.000242807757039468 -0.00199691076164898 0 0.000169241108852204 -0.00208052637286366 0 7.57939918958124e-05 -0.00252477763340239 0 0.000151939431032486 -0.00241866620817425 0
          7.05317076943499e-05 -0.00274977287267591 0 0.000150021875953941 -0.00264995150299516 0 0.000180106870858185 -0.00230396253521024 0 0.000181861457192975 -0.00253718764147047 0
          0.000173098845701737 -0.00276920101981925 0 0.000254610109937397 -0.00187066898789485 0 0.000259972824826082 -0.00212685456702099 0 0.00026241007101418 -0.00224546574712415 0
          0.000355630909637289 -0.00182523110955009 0 0.00036018541539217 -0.00194222273159118 0 0.000363984859885911 -0.0020610269236769 0 0.000367403156881007 -0.00218155936638449 0
          0.000268680702212205 -0.00236282004607746 0 0.000269458743125292 -0.00248435631881759 0 0.000268369714338925 -0.00260669013883945 0 0.000265723864729075 -0.00272810149755342 0
          0.00037029744869028 -0.0023038345646564 0 0.000372696569194421 -0.00242740351928275 0 0.000374609479645927 -0.00255244860729555 0 0.000375997697744467 -0.00267856039636602 0
          0.000376956520777203 -0.00280583324608471 0 -0.000258407291578247 -0.00281040290751424 0 -0.000252603598740328 -0.00292366705429992 0 -0.00024500436887863 -0.00306090150519795 0
          -0.000286012050129007 -0.00317606064802255 0 -0.000260924123436193 -0.00329767680395795 0 -0.000132309166707877 -0.00285661685316551 0 -0.000158799782949543 -0.00297698281075333 0
          -0.000176900921279394 -0.00318782271318784 0 -0.000294935016457767 -0.00342354397417284 0 -0.00026617939753209 -0.00354294649718276 0 -0.000286381166302583 -0.00366162956904623 0
          -0.000248166959490957 -0.00376215859805522 0 -0.000314872996670096 -0.00388170875002105 0 -0.000184857421068762 -0.00341581216870081 0 -0.000186857602591358 -0.0036441583369926 0
          -5.12015879944928e-05 -0.00296557679543144 0 -0.000112950872595345 -0.00307926277732146 0 -0.000117584334664093 -0.00330294652666601 0 -5.26638543208285e-05 -0.00319077717845531 0
          9.74283032653684e-06 -0.00285510784720827 0 1.09135975385435e-05 -0.00307796408497494 0 8.8543725083184e-06 -0.00330377967458804 0 -0.000121431142061396 -0.00353008413466328 0
          -5.88689025564405e-05 -0.00341475947602882 0 -0.000119479735692726 -0.00376006383426847 0 -0.000188541570580203 -0.00387295640596715 0 -5.37099077853926e-05 -0.00364343730915489 0
          -5.85575934561872e-05 -0.00387386817389392 0 2.76683478382635e-05 -0.0035217287631536 0 2.45453130979124e-05 -0.00376860606478893 0 -0.00030327184817967 -0.00409717833052544 0
          -0.000251559529458199 -0.00399178616912148 0 -0.000274356965546457 -0.00421965345462849 0 -0.000301066336962813 -0.00434249709182533 0 -0.000191128576905014 -0.00410163532479945 0
          -0.00019292881465933 -0.00433036648036143 0 -0.000252853516929502 -0.00444050368596527 0 -0.000298729108311277 -0.00454223779954487 0 -0.000258436658615156 -0.00467141556164008 0
          -0.000317441116475401 -0.00478875916461974 0 -0.000350351868033063 -0.0048812691838426 0 -0.000188404622581709 -0.00455496552650176 0 -0.000251354933135311 -0.00489652031643833 0
          -0.000319741012517203 -0.00498939690608548 0 -0.000195658293063762 -0.00478559589263714 0 -0.000124713785134555 -0.00398777922137047 0 -6.71166890155878e-05 -0.00409912554895789 0
          -0.000132231615639761 -0.00421839934309642 0 -6.62364825003802e-05 -0.00432615065814982 0 -0.000129173024844703 -0.00444422597806058 0 -2.98360212926788e-06 -0.00398565788183543 0
          1.29224260906007e-05 -0.00419959919611255 0 -0.000129432850942494 -0.00467261307856641 0 -6.18463274436206e-05 -0.00455799214505545 0 -0.000131707535845044 -0.00489939929251491 0
          -6.56876136675418e-05 -0.00478689816437977 0 1.72305680358361e-05 -0.00443711942625796 0 2.08852718907723e-06 -0.00467448547480623 0 -2.7259572794134e-06 -0.00490065712928937 0
          7.0653252061276e-05 -0.00296410627656967 0 0.000126113586086876 -0.00285658384198555 0 7.33748451463689e-05 -0.00318963902796319 0 0.000149191431685464 -0.00306978903897013 0
          0.000142918461152408 -0.00331052256739446 0 0.000173079509597609 -0.00295053037061363 0 0.000253288463898849 -0.00286291289464789 0 0.000180955959336795 -0.00318674311208384 0
          5.20379385732523e-05 -0.00340334671176583 0 0.000151036535230125 -0.00344929205775828 0 6.27490260632418e-05 -0.00364434310954783 0 0.000155384151937912 -0.00356973136637904 0
          0.000153203323939764 -0.00372117742781938 0 0.000142986903699413 -0.00384317289444345 0 4.60752212260647e-05 -0.00389084826606426 0 0.000264081945358145 -0.00338473039467576 0
          0.000266211884286164 -0.00300060005196491 0 0.000265543968438871 -0.00312415063093503 0 0.000269092013776273 -0.00325454225363541 0 0.00037738932190398 -0.00293401366104932 0
          0.000377457786784155 -0.00306301678370945 0 0.000377131217282661 -0.00319279624062154 0 0.000376393798027499 -0.0033231072623203 0 0.000262818467380835 -0.00351389721381157 0
          0.000260380843761098 -0.00364797362625244 0 0.000258857854952013 -0.00378246222189186 0 0.00037528650764779 -0.00345390429122503 0 0.000373822747771272 -0.00358514225473507 0
          0.000372013930194567 -0.0037166557790811 0 0.000369889685376799 -0.00384837631483268 0 3.8847044067187e-05 -0.00408523910530302 0 0.00012439388682884 -0.00398302049531847 0
          4.41726915021158e-05 -0.00431629701565549 0 0.000138368203642213 -0.00412080843968597 0 0.000136825026672067 -0.00424601913286094 0 0.000133169644072593 -0.00437045334908297 0
          0.000252551097894193 -0.0039137420807833 0 0.000252431955286413 -0.00404581060502425 0 7.76649432339164e-05 -0.00456594156472657 0 5.82103227640385e-05 -0.00478533584331811 0
          0.000131561903594853 -0.00467822816223367 0 0.000138941368329358 -0.0044763568058546 0 0.000221335862261355 -0.0045725439553578 0 0.000136580974344789 -0.00489283642779317 0
          6.04804160332492e-05 -0.0050138131412562 0 0.000161158367611839 -0.00477353463127963 0 0.000249443426171688 -0.00417546803649626 0 0.000246798685697389 -0.00430671376819772 0
          0.000245432057338521 -0.00443534912352571 0 0.000367459023624464 -0.00398018086347745 0 0.000364744795707513 -0.00411202582865366 0 0.000361760121387422 -0.00424381123614345 0
          0.00035851987445601 -0.00437543491635218 0 0.000243969713099375 -0.00470709533472446 0 0.000244969451206919 -0.00482881340905012 0 0.000250479686845014 -0.00493407555735805 0
          0.000355048487802985 -0.00450687902708727 0 0.00035138467969207 -0.00463798994935927 0 0.000347469614521014 -0.00476881227548954 0 0.000343337444574313 -0.00489915363875123 0
          -0.00052172903149783 -0.00501021265612399 0 -0.000522739585780238 -0.00513973833542371 0 -0.000411532404492195 -0.00507382794852306 0 -0.000406613974772305 -0.00519883055051546 0
          -0.000523580732957447 -0.00526865653232326 0 -0.000524262288810654 -0.00539698341393968 0 -0.000394309626016965 -0.00533679790310342 0 -0.000416802602333985 -0.00546887411832895 0
          -0.000524657576275611 -0.00552467342769938 0 -0.000417424924207544 -0.00559244623521845 0 -0.000524924900869403 -0.00565162850020341 0 -0.000417549020167807 -0.00571835454364675 0
          -0.000525044478916103 -0.00577787017209792 0 -0.000418564073077436 -0.00584417701811515 0 -0.000525012125637825 -0.00590323666124678 0 -0.000418667577192411 -0.00596921135526426 0
          -0.000524819782765421 -0.00602781765435137 0 -0.000417836153900084 -0.00609342956090508 0 -0.000524481969951285 -0.00615153452350613 0 -0.000524157061358561 -0.00627439878432462 0
          -0.000399292324260646 -0.00621652809853751 0 -0.000418419759222835 -0.00633920282362284 0 -0.000523581751088911 -0.0063964088838127 0 -0.000419225765310485 -0.00646068971082791 0
          -0.000522952735958459 -0.0065174827330004 0 -0.000419088054870951 -0.00658241255805581 0 -0.000522266001910501 -0.00663758905571798 0 -0.000419555325777482 -0.00671955319184196 0
          -0.000521449342291685 -0.00675664581385592 0 -0.000455540477739981 -0.00682182211649039 0 -0.000520362979385236 -0.00687483590017449 0 -0.000427412958538365 -0.00693845824964219 0
          -0.000519396149231699 -0.00699207249082684 0 -0.000424847686097263 -0.00706154208715973 0 -0.000518380594711362 -0.00710822786551195 0 -0.000433429329355172 -0.0071528313889499 0
          -0.000517229851737497 -0.00722342791760799 0 -0.000379636042859149 -0.00723609835320765 0 -0.000432949369781788 -0.00730987563192551 0 -0.000516056318493785 -0.00733764126802277 0
          -0.000419494268704621 -0.00740225957886507 0 -0.000514883922851122 -0.00745090264733154 0 -0.000417716962120693 -0.00751129710146632 0 -0.000513697059592409 -0.0075630803558993 0
          -0.000417517300722559 -0.00762221506299706 0 -0.000512494381976986 -0.00767430552069664 0 -0.00041995283898958 -0.00773286462287636 0 -0.000511188817978076 -0.0077845365087867 0
          -0.000419237766330631 -0.00784435048016853 0 -0.000509888171196804 -0.00789376281779021 0 -0.000419778526558673 -0.00795243088981969 0 -0.000508577825661369 -0.00800192472472673 0
          -0.000418731908511527 -0.00805403893563201 0 -0.000507264584220987 -0.00810925319866057 0 -0.000423542633610741 -0.00815146772135689 0 -0.00050591121556125 -0.00821552322081749 0
          -0.000504593487718718 -0.00832090500681355 0 -0.000419624759040367 -0.00825968148500564 0 -0.000503334349560641 -0.00842531915687409 0 -0.000413894988408979 -0.00836547572407161 0
          -0.000502113576111538 -0.00852876058095823 0 -0.000406472868466733 -0.0084783068690346 0 -0.000434937245268567 -0.00857911487612203 0 -0.000500675849904809 -0.00863130946584316 0
          -0.00049949184095556 -0.00873301907643126 0 -0.000407074634403144 -0.00866944815870793 0 -0.000498320191904686 -0.0088338363023558 0 -0.000411753709861728 -0.0087818868639055 0
          -0.000280741481525099 -0.00513043046910961 0 -0.00030761616078284 -0.00524842230069173 0 -0.00031964473219515 -0.00543076135058273 0 -0.000260278592413262 -0.00534440077977705 0
          -0.000198196543612215 -0.0050136820537025 0 -0.000196124429855096 -0.00523702067374254 0 -0.000209058542202134 -0.00546819944352458 0 -0.000317885952811008 -0.00553459827876671 0
          -0.000312854348572788 -0.00565227697211977 0 -0.000287149891249904 -0.00578518231506333 0 -0.00031495239939107 -0.00591453348720256 0 -0.000319922235227386 -0.00603297953261641 0
          -0.000232053506168327 -0.00558445303285094 0 -0.000200994658700537 -0.00567942195236045 0 -0.000232323812157835 -0.00598675712950651 0 -0.000202516650078374 -0.00589505068949397 0
          -0.000134171220721913 -0.00512402865325312 0 -6.81474889501667e-05 -0.00501272950184894 0 -7.57483454548634e-05 -0.00523364535770207 0 -0.00013542046023132 -0.00534752428395983 0
          -7.65245917350582e-05 -0.00546200787165518 0 -9.64786741160949e-06 -0.00512272516889394 0 -5.37067561047401e-06 -0.00534858930016615 0 -0.000136166213303269 -0.00556932874587624 0
          -0.00013746225974512 -0.00578845224273155 0 -0.000134994813947447 -0.00600142599788865 0 -7.97146544929886e-05 -0.00568592929075378 0 -6.03807263054664e-06 -0.00558562200137391 0
          -8.33972356470891e-05 -0.00589410879354851 0 -2.00236765803049e-05 -0.00579009629616405 0 -7.52435824937258e-06 -0.00599179606485811 0 -0.000323136636479333 -0.00613279975129134 0
          -0.000323900292538978 -0.00630137746040632 0 -0.000320937172495178 -0.00640153578021664 0 -0.000304267922358836 -0.00652910411620208 0 -0.000267064156500915 -0.00621818230322353 0
          -0.000211414514333476 -0.00610166101511922 0 -0.000213569593926974 -0.00633520397813522 0 -0.000233280095639419 -0.00644664471895225 0 -0.000319697790181108 -0.00665484152679145 0
          -0.000319039882278429 -0.00675389154086824 0 -0.00036661237342367 -0.00683612167647249 0 -0.000311608667608148 -0.00694108053154997 0 -0.000341028598472216 -0.0070254921637635 0
          -0.000230225275641062 -0.00661936010235112 0 -0.000212067683035698 -0.00672711168809035 0 -0.000260741625272717 -0.00684422818450217 0 -0.000201969580588316 -0.00694668949177286 0
          -0.000254598177385146 -0.0070409284763884 0 -0.000141600670637678 -0.0062177270564131 0 -0.000189786579773627 -0.00653331526249163 0 -0.000140958618333526 -0.00643102310126474 0
          -7.77094503343657e-05 -0.00611313680429818 0 -2.10186398661239e-05 -0.00621796889188397 0 -8.044210352958e-05 -0.00632535476435467 0 -7.61733655860271e-05 -0.00653538144646507 0
          -2.00082611634725e-05 -0.00643168405759815 0 -0.000133889280060086 -0.0066362916805064 0 -0.000143028358861901 -0.0068454333745875 0 -8.19071676468311e-05 -0.00674269214815222 0
          -2.26445923789929e-05 -0.00664033929957484 0 -8.50703349298996e-05 -0.00694750698787508 0 -0.000144032061717539 -0.00704828616339835 0 -2.52821149424316e-05 -0.00684598920382852 0
          2.95819919139675e-05 -0.00522095936951248 0 0.000119294376109859 -0.00514171562507894 0 2.64433481599617e-05 -0.00547644464920077 0 0.00011421091467237 -0.00528276146893306 0
          0.000112286259355338 -0.00541289099282535 0 0.000188478015472035 -0.00501981531838866 0 1.44387580567165e-05 -0.00570250676140142 0 0.000107501133407702 -0.00554014383044935 0
          0.000105692534626738 -0.0056599944395737 0 1.2254441193799e-05 -0.0058764796733316 0 8.8333214178547e-05 -0.00579136904410605 0 0.000100639746372253 -0.00592020125396586 0
          9.95184967561708e-05 -0.00602280406510204 0 0.000240386531799363 -0.00511425697030943 0 0.000220919601973194 -0.00522142171089223 0 0.000217013751006917 -0.00534999895387939 0
          0.000213926073340945 -0.00547791371141313 0 0.000339026908484678 -0.00502907247376346 0 0.00033458315854831 -0.0051584473858074 0 0.000330031511997144 -0.00528722821607527 0
          0.000325328171125634 -0.00541536972205592 0 0.000320505479595657 -0.00554284596917516 0 0.000209431030863113 -0.00560515068418223 0 0.000205898700544974 -0.00573163387325321 0
          0.00020199460740615 -0.00585676361749802 0 0.000197153464268871 -0.00597879160431381 0 0.000315554812038809 -0.00566961351704873 0 0.000310511127205262 -0.00579563051943139 0
          0.000305370115867204 -0.00592080761351553 0 0.000300139793875728 -0.00604517804264385 0 4.16836548697768e-05 -0.00611119980566872 0 2.84276298786065e-05 -0.00631639384552864 0