<?xml version="1.0"?>
<VTKFile type="UnstructuredGrid" version="0.1" byte_order="LittleEndian">
  <UnstructuredGrid>
    <Piece NumberOfCells="6144" NumberOfPoints="7225">
      <PointData Vectors="d">
        <DataArray type="Float64" Name="d" NumberOfComponents="3" format="ascii">
          0 0.34150635094611 -0.0915063509461097 -0.010968282766703 0.324958763845076 -0.120523600124033 0 0.32588135094611 -0.064443057077846 0.00244987625747139 0.31106814368832 -0.088948953080431
          0 0.314443057077846 -0.10713135094611 -0.00961117612502956 0.291073649581849 -0.127380796265105 0 0.298818057077846 -0.080068057077846 0.00393975638633489 0.280490524195868 -0.0972336390099153
          -0.0161906280083094 0.303293643109146 -0.130249574493738 0.00150972266301458 0.289787634711338 -0.102553225016282 -0.0175133561499484 0.271843320130168 -0.13839981058302 0.00114959294529924 0.260530147215014 -0.10995834894007
          -0.0178177514177386 0.280839019676478 -0.135429023640425 0.00100026565109429 0.268336987191184 -0.110103254793067 -0.0213599243633677 0.252511217196194 -0.143730285319083 -0.00172687957165677 0.241212028557505 -0.117252133196851
          -0.0175806239310705 0.259052279859533 -0.137807207484558 0.00104464225970133 0.247599282905877 -0.114069085668143 -0.02258422226368 0.233401709422986 -0.145854369975018 -0.00349025231234224 0.222632217398832 -0.120949062662101
          -0.0162949615197071 0.238341010137782 -0.138117808382806 0.00157274262458109 0.227893263345144 -0.115617386914544 -0.0223221337220573 0.214860830207346 -0.145764377548476 -0.00423447688378658 0.20485341083306 -0.122180888391367
          -0.0144475472251666 0.218761381271082 -0.136795277870662 0.00247100049482289 0.209252023200637 -0.115398546814479 -0.0212498863052886 0.197087307945114 -0.143987850872837 -0.00425324452959265 0.187906081238034 -0.12161123070633
          -0.0123401183482445 0.200252611125687 -0.134143276543296 0.00361208429038358 0.191614139884081 -0.113810880435682 -0.0197603631422267 0.180150612556166 -0.140866127899248 -0.00380496315842224 0.171786910160911 -0.119652375248276
          -0.0101591863678306 0.182726273888848 -0.13038787841326 0.00488110105193454 0.174895902883461 -0.111120117795047 -0.0180866923750402 0.164051129990063 -0.136643174166567 -0.00308171788683049 0.156468442740341 -0.11658126301068
          -0.00801920107989038 0.166095355581869 -0.125702716333287 0.00618678560223601 0.159015538544223 -0.107515901649124 -0.0163707389576214 0.14875814754033 -0.131502151371134 -0.00221941020723033 0.14191098294548 -0.112596198896173
          -0.0059898509369753 0.150281943614135 -0.120223261680297 0.00746179995972805 0.143899820253762 -0.103139961038908 -0.0147003803441978 0.134229266732136 -0.1255841320003 -0.00131250637887579 0.128070731697609 -0.107845516965626
          -0.00411305512667359 0.135217943220007 -0.11405580203904 0.00865848510948205 0.129484882307148 -0.0981011423516116 -0.013130505809309 0.120419461282658 -0.118998971090586 -0.000426302147006456 0.114904305699453 -0.102443036800649
          -0.00241369073978047 0.120843828183392 -0.107283394501599 0.00974356955485518 0.115715354403247 -0.092484116387795 -0.0116953776390655 0.10728507689443 -0.111832100030187 0.000393913389918501 0.102370978908508 -0.0964770511016108
          -0.000906637507388654 0.107107082157197 -0.0999699606841731 0.0106931520121202 0.102543253935481 -0.0863549388818218 -0.0104161285867924 0.0947855679185456 -0.104149001064044 0.00111620592645031 0.0904337794799658 -0.0900159993322216
          0.000398348105615929 0.0939609082333576 -0.092163242272356 0.0114882116255 0.089927218979627 -0.0797650755621857 -0.00930522477756565 0.0828844270735299 -0.0959983394207699 0.00171721864520359 0.0790602243065231 -0.0831124209428407
          0.00149307509808508 0.0813635126878563 -0.0838971639294023 0.0121104527811259 0.0778324675446523 -0.0727548679806086 -0.00836867907983844 0.0715501762941639 -0.0874144163693774 0.00217880725312751 0.0682232715858612 -0.075806110309533
          0.0023682203960927 0.0692783206424089 -0.075194166624166 0.0125380761091613 0.0662319557824875 -0.0653572488171848 -0.00760611691315519 0.0607581324804061 -0.0784195618601956 0.00248582869147957 0.0579030390233382 -0.0681271477728272
          0.00301135126251975 0.0576757777889673 -0.0660683300698827 0.0127408778884898 0.0551095138210074 -0.0576026559608459 -0.00700817398992973 0.050493818663761 -0.0690273161691324 0.00262504224618305 0.0480899668845129 -0.0600994798130658
          0.00340596178508309 0.0465380977387978 -0.0565308150460242 0.0126738131393705 0.0444663523034984 -0.0495265220395405 -0.00654997255951657 0.0407593935203152 -0.059247935387734 0.00258535503914052 0.0387904294542363 -0.0517459201151804
          0.00353263832321184 0.0358699356259362 -0.046600902542595 0.0122677868279772 0.0343335021306978 -0.0411814254138257 -0.00617860724562666 0.031585495693315 -0.0490993458957419 0.00236005674335659 0.0300363699362939 -0.0430958692684689
          0.00337484041528965 0.0257218119399201 -0.0363302264115047 0.0114161614791234 0.0247950099415808 -0.0326567159650374 -0.00579236482694699 0.0230527030233137 -0.038630083955201 0.00195240475574963 0.0219013300316478 -0.0341978201315156
          0.00293230596625556 0.0162426852198695 -0.0258591155733413 0.00995638833303515 0.0160314868314993 -0.0241078289654303 -0.00521266088726378 0.0153291749379135 -0.0279675042780581 0.00138728736359195 0.0145255567624122 -0.0251400503437768
          0.00223556794840779 0.00780399219268393 -0.0155544125733472 0.00765347467927771 0.00840420643658744 -0.0157875074698445 -0.00416658747764299 0.00872833688841377 -0.0174159553691758 0.000734712564827487 0.00814996155281377 -0.016086997137668
          0.00128455033387077 0.00132282460474088 -0.00637466893069855 0.00422451590552287 0.00265035794047559 -0.00803181388734738 -0.00234612919590682 0.00375367512235145 -0.00763375769752397 0.000158847799752082 0.00311750175750662 -0.00732849419515886
          0 0 0 0 0 0 0 0 0 0 0 0
          0 0.31025635094611 -0.0373797632095823 0.00400414412791832 0.298464827795318 -0.0618474139829739 0 0.283193057077846 -0.0530047632095823 0.00656301373517611 0.268383272551556 -0.0695077087305741
          0.00720003329574751 0.279436854173918 -0.0756678136993242 0.00825521612559054 0.250828073087981 -0.0824501746562951 0.00927465997556497 0.259262651501991 -0.0846255813918075 0.00812499381863939 0.232445277545605 -0.0910035321695922
          0.0106714483229713 0.239474369854221 -0.0900569700504106 0.0076061897686453 0.214516957931383 -0.0961442504072265 0.0117311123953825 0.220537223110229 -0.0929683261526289 0.0072071763192534 0.197349582238342 -0.0987537066038752
          0.0126465971517103 0.20257393605296 -0.0940107095090171 0.00704454013698511 0.181015495257764 -0.09947129883577 0.0135044227428193 0.185567249508014 -0.0936185698640236 0.0070967832921687 0.165507606148801 -0.098736891920745
          0.014327894242679 0.169451340813589 -0.0920905878549323 0.00730378689002048 0.1507895964016 -0.0968566233977104 0.0151098669439216 0.154149950425 -0.089639534117031 0.00760222783241595 0.136815056675555 -0.0940499612294933
          0.0158317918785333 0.139590754323362 -0.0864219516669268 0.00793675470484502 0.123536133133699 -0.090479031750914 0.016472776432201 0.125709841303785 -0.0825559692464702 0.00826205982444905 0.110907528697109 -0.0862664069256172
          0.0170127430903763 0.112452452530373 -0.078132333498775 0.00854158637778945 0.0988882733224706 -0.0815060823566217 0.0174324089748091 0.0997725914933305 -0.0732216299842958 0.00874510918846275 0.0874425109112108 -0.0762705454693266
          0.0177115557032156 0.0876326531484248 -0.0678794318428702 0.00884607075494735 0.0765400402791899 -0.0706156268874487 0.0178262313935045 0.0760036997347549 -0.0621504580219462 0.00881901276712104 0.0661571188969391 -0.0645841443691003
          0.0177450214984725 0.0648669129538804 -0.0560725084200741 0.00863726057083758 0.0562779699280693 -0.0582089889297753 0.0174242141791079 0.0542168759165949 -0.0496808264179993 0.0082710591365841 0.0468974675999736 -0.0515161319939708
          0.0168015246372652 0.0440676077837315 -0.0430135112472795 0.00768665640257879 0.0380255675717452 -0.044527980373101 0.0157881494037294 0.0344626158520859 -0.0361185104359916 0.00684758371834771 0.0296941108717068 -0.0372675679616433
          0.0142597820286089 0.0254903976948961 -0.029062193707405 0.00572105725533764 0.0219664182247063 -0.029764391173431 0.012050210183636 0.017305800425595 -0.0219375814318927 0.00429597656666967 0.0149490660627143 -0.0220637670420297
          0.00896096451391364 0.010152183597918 -0.0148610562873927 0.00262630849184163 0.00880151774333229 -0.0142474722202351 0.00482259875743507 0.00433010406607727 -0.00793348801714886 0.0009352503391465 0.00375376561430818 -0.00647502707393036
          0 0 0 0 0 0 0 0.29463135094611 -0.0103164693413186 0.00382494115791394 0.28465082079552 -0.0351826867649404
          0 0.267568057077846 -0.0259414693413185 0.0073500091762408 0.254852123146884 -0.0427361550749777 0.00801228258675102 0.268386854154969 -0.049679516381268 0.0105456219247574 0.239939149867922 -0.0560548515238223
          0.0117114914029605 0.250387501625589 -0.059503905478753 0.0122023954408503 0.223567887164128 -0.0653730418028896 0.0144379541411384 0.232131535855858 -0.0660872629767236 0.0130105565989626 0.206993827685365 -0.0715967087849495
          0.0163634756963265 0.214316039085847 -0.070232794829315 0.0133885842939086 0.190822416072766 -0.0754115409131582 0.0177276855172568 0.197219078472745 -0.0725134682755438 0.0135665799848239 0.175288912407604 -0.0773581986099419
          0.018715162486202 0.180924243739399 -0.0733416395390382 0.0136552894615079 0.160468201361952 -0.0778438684917714 0.0194447858754427 0.165425705324215 -0.0730172455174315 0.0137000941553161 0.14636522359551 -0.0771709033153464
          0.019985893214101 0.150681152268246 -0.071761334090493 0.0137130683002416 0.132955289387833 -0.0755645355112068 0.0203756482921113 0.136637207735444 -0.0697392551526462 0.013690110647174 0.120202709485121 -0.073194307361883
          0.0206314433585174 0.123240960606564 -0.0670764176654533 0.0136195219957317 0.108069657919744 -0.0701892230656828 0.0207582607750349 0.110444832258793 -0.0638690419786821 0.0134858691219368 0.0965204073166543 -0.0666481745979092
          0.020752294560389 0.0982084838040293 -0.0601916779906812 0.013271268051323 0.0855233854732737 -0.0626471541037368 0.0206020441642445 0.0864996523241958 -0.0561027068209452 0.0129552725784738 0.0750523269263049 -0.0582443757978553
          0.0202877010719136 0.0752949305567428 -0.0516486558294388 0.0125140622715438 0.0650872439124362 -0.0534840716350705 0.0197793022555231 0.0645811123176582 -0.0468679090350648 0.0119194188086195 0.0556156719323 -0.0483994706223855
          0.0190339060219309 0.0543575498197413 -0.0417942418930047 0.0111380115783268 0.0466344890863677 -0.043015313709188 0.0179919906032927 0.0446398168221781 -0.0364605033717989 0.0101318323180427 0.0381524405104308 -0.0373501907689216
          0.0165734708347386 0.0354645910147524 -0.0309026487546153 0.00886138373156662 0.0301931586743087 -0.0314190674119689 0.0146743934809284 0.0268945113425917 -0.025164050682049 0.00729475408658738 0.0227977020316845 -0.0252368197615394
          0.0121668953194136 0.0190184424323647 -0.0192991016047093 0.00542863917661988 0.0160240324366824 -0.0188250448250539 0.00890858651467264 0.0119318993236291 -0.0133685742018824 0.00333357683705151 0.00993968011257532 -0.0122307360319749
          0.00476263280287776 0.005661507713972 -0.00740066181450298 0.00126399051739968 0.00459291655067418 -0.00557299745968903 0 0 0 0 0 0
          0 0.27900635094611 0.0167468245269451 0.00295790682265115 0.270675657738194 -0.00869512590847289 0 0.251943057077846 0.00112182452694515 0.00741186664051417 0.240943408234741 -0.0161425094402369
          0.00701102779296781 0.256668271711676 -0.0238778711256358 0.0109696396395549 0.228253551118492 -0.0300675059184906 0.011194333241307 0.240930255265242 -0.034560134976599 0.0133290983237505 0.214018823059601 -0.0401262742244692
          0.0146509290826363 0.224554052449058 -0.0421395545094998 0.0149200053774136 0.199196389008633 -0.0472682479744489 0.0172363467196893 0.208208057624077 -0.0473947799045878 0.0159297613631632 0.184390786878615 -0.0521389252101282
          0.0190704267730081 0.192256681222617 -0.0508436260386788 0.0165169088092861 0.16993527675367 -0.0552191400749832 0.0203211995898183 0.176872412551697 -0.0528657723202233 0.0168042904480938 0.155990166922548 -0.0568766107468066
          0.0211343204014234 0.162119453027327 -0.0537460663674307 0.0168779307855776 0.142620978065189 -0.0573940719719488 0.0216187767833373 0.148005305728869 -0.0537007057996746 0.0167940514029247 0.129843758848343 -0.0569891883704368
          0.021850474820842 0.134510611228611 -0.0528950445256907 0.0165870534836993 0.1176501287204 -0.0558298774261474 0.0218795281823998 0.121605565739433 -0.0514562886106444 0.016275805942293 0.106020906926017 -0.0540459316784706
          0.0217366187210119 0.109258626105611 -0.0494827250423873 0.0158678909867907 0.0949334988589121 -0.0517376764889633 0.0214373688711207 0.0974410189875904 -0.0470505589815328 0.0153621633754282 0.0843659114949368 -0.0489823871676863
          0.020984843364591 0.0861291189732325 -0.0442191151326005 0.0147501084842272 0.074299003651079 -0.0458390799743511 0.0203705824703159 0.0753058784250916 -0.0410349461331085 0.0140164660169651 0.0647178746787397 -0.0423521481985249
          0.0195745659412584 0.0649619631932241 -0.0375352442293357 0.013139584270378 0.0556128780256558 -0.0385541888093908 0.0185644473579374 0.0550968822288598 -0.0337508528628504 0.0120920657338264 0.0469804421791349 -0.0344682809367445
          0.0172943636232174 0.0457200161030001 -0.0297091082018233 0.0108425316347703 0.0388235556048957 -0.030109958437019 0.0157036306253354 0.0368508162178884 -0.0254366831003887 0.00935987495571308 0.0311512813447094 -0.0254892218309635
          0.0137156428532557 0.0285161562127287 -0.0209624316369173 0.00762237865039953 0.0239758466793912 -0.0206133140629705 0.0112370819699568 0.0207399635251114 -0.0163192915980322 0.00563607360201033 0.0173046948266271 -0.0154919685328793
          0.00815710873226757 0.0135145777279546 -0.0115362976217612 0.00347206876644888 0.0111234402870991 -0.010151439211408 0.00434233850699367 0.00672884717970725 -0.0065795401593278 0.00135577131257189 0.00537411490541635 -0.00466220244163504
          0 0 0 0 0 0 0 0.26338135094611 0.0438101183952088 0.0018020124655625 0.25670427781478 0.0177472640761816
          0 0.236318057077846 0.0281851183952088 0.0071745598551756 0.226933474400534 0.0104257662889785 0.00519925835122806 0.244673832189802 0.00188781613586589 0.0105450473934698 0.216216913321143 -0.00418284547174011
          0.00921386553787656 0.231009110222468 -0.00960176207700852 0.0129679903488926 0.203986687272922 -0.0150038038545736 0.0128292335008796 0.21655042000282 -0.0181101140654331 0.0148092927445642 0.190988018041428 -0.0230139112747665
          0.0157068008415789 0.201839191051423 -0.0243934650146406 0.0161252317425314 0.177731763073042 -0.0288589638925271 0.0178264621128736 0.187229952421752 -0.0289458169185556 0.0169748566292735 0.164554353553229 -0.0329990035486482
          0.019287682887804 0.172935659931791 -0.0321223347142626 0.0174362349958365 0.151658897414802 -0.0357768951029961 0.020215036433579 0.159071328606452 -0.0341901776060752 0.0175875544585514 0.139158382691806 -0.0374561461571674
          0.0207220141766995 0.145690713364599 -0.0353544962394809 0.017495864238822 0.127109808318614 -0.0382419779206066 0.0209004557218811 0.132812009466057 -0.0357743673697589 0.0172135871265152 0.115537215992231 -0.0382949891478007
          0.0208199318409221 0.120434426250019 -0.0355736291835084 0.0167788113930725 0.104446259283169 -0.037740874762993 0.0205302511212471 0.10854835685756 -0.0348487437465345 0.0162168580333248 0.0938331259595585 -0.036677660146207
          0.0200643585187414 0.0971414156313788 -0.033674744032789 0.0155419777685043 0.0836898979167566 -0.0351812079340352 0.0194406888451713 0.0862019312884007 -0.0321098741471393 0.0147587858422432 0.0740077122234649 -0.0333094696290587
          0.0186647822130113 0.0757208992309381 -0.0301993158528483 0.0138634224451903 0.0647785482062294 -0.0311058075501729 0.017730251996125 0.0656929460911719 -0.0279782764910244 0.0128446382967464 0.0559960713819093 -0.0286016234803989
          0.0166192789616936 0.056116484579032 -0.025474640118562 0.0116851748558444 0.0476556387829894 -0.0258184782611958 0.0153027787096361 0.0469928392308519 -0.0227113285764651 0.0103640203112273 0.0397532287613141 -0.0227698733739397
          0.0137402374435707 0.0383235639930999 -0.0197084419708003 0.00886045974915316 0.032282617051747 -0.0194629108743337 0.0118788159956589 0.0301042145136625 -0.0164849779181752 0.00716146738019668 0.0252295248591185 -0.0159002073888715
          0.00965042356890796 0.0223110014714615 -0.0130586793511056 0.00527549348903275 0.0185607986851058 -0.0120828279630823 0.00696482057531338 0.0148722682190517 -0.00943425268490925 0.00326034644206876 0.0122076037513979 -0.00801758669658025
          0.00369517351248499 0.00759777735547137 -0.0055407016625673 0.00129814055382054 0.00605138753162177 -0.00373078845440923 0 0 0 0 0 0
          0 0.24775635094611 0.0708734122634726 0.000511804659824772 0.242782894810062 0.0442252637785981 0 0.220693057077846 0.0552484122634726 0.0067957817336853 0.212922879513834 0.0370266525305756
          0.00300465347661395 0.232600502471579 0.0277244593267074 0.00971060755246381 0.204061153862177 0.021730661883134 0.00648693817359665 0.22084936367348 0.0154773484645574 0.0118331074899841 0.19371032696552 0.010149029927796
          0.00987058305375344 0.208230178475933 0.00609781011270627 0.0135537026323053 0.182489272156046 0.00129625090784024 0.0127085448745548 0.195175858028874 -0.00115624930078092 0.0148727135118748 0.170823968842207 -0.00547953862335321
          0.0148807999351019 0.181993564884953 -0.00676175429009519 0.015780762462544 0.159017996099517 -0.0106324330296687 0.0164166524342322 0.168896667255431 -0.0110565672177079 0.0163050086030602 0.147280351399092 -0.0144922539112937
          0.0174015730753867 0.15602474899104 -0.0142918398402273 0.0164958846489196 0.13574883208119 -0.0173081701471087 0.0179328710595328 0.143464042709711 -0.0166597505453262 0.0164105022773006 0.124510550379537 -0.0192729861221482
          0.0181006082314574 0.131264881081701 -0.0183096265597974 0.0161024372552103 0.113618402029667 -0.0205376591221419 0.0179806370018772 0.119454807423931 -0.0193582441211661 0.0156169040874679 0.103103107873942 -0.0212207627691267
          0.0176330576900704 0.108047722805676 -0.019896965338707 0.014989098704564 0.0929815262867126 -0.0214151400439818 0.0171028402285533 0.0970499476837227 -0.0199970177212335 0.0142441180178093 0.0832621567049897 -0.0211928440175348
          0.016421109756999 0.0864640265784835 -0.0197135946028352 0.0133975671646246 0.0739486065157305 -0.0206089422342698 0.0156064637719488 0.0762908743377103 -0.0190891561003635 0.0124564509458423 0.0650415439375701 -0.0197045125538712
          0.0146661029655884 0.0665305962751556 -0.0181561592938542 0.0114202552138873 0.0565394043934412 -0.0185090321517383 0.0135967284590965 0.05718204318427 -0.0169393575032852 0.0102823353626418 0.048437868428109 -0.017042291920958
          0.0123851609951495 0.0482408614294403 -0.0154577330742512 0.00903190964462224 0.0407278625304029 -0.0153159266346905 0.0110084544456489 0.0396953963432111 -0.0137260093680674 0.0076571800645421 0.0333915168782983 -0.0133346228183352
          0.00943280876529996 0.031519131123697 -0.0117553567234707 0.00615054346344318 0.0263951322074199 -0.0110970526625852 0.00760969352449532 0.0236568010972786 -0.0095516918046263 0.00451809171601607 0.0196779472798274 -0.00859659303832946
          0.00546700891336478 0.0159964243902919 -0.00710310341454937 0.00280001943209933 0.0131365322634463 -0.00582353625119924 0.00289148051292464 0.00829753442609516 -0.00432074303140525 0.00113104808983344 0.00661514825937556 -0.0027687193262668
          0 0 0 0 0 0 0 0.23213135094611 0.0979367061317363 -0.000827704271755548 0.228924547435164 0.0707940462729518
          0 0.205068057077846 0.0823117061317363 0.00635529799790623 0.198955642275704 0.0636898403767622 0.000638123854669807 0.220552305173554 0.0537110385719737 0.00867914898273459 0.191909901444997 0.0477437816773006
          0.00338770716545825 0.210618837847193 0.0407632078640962 0.0102979864041872 0.18336197689499 0.0354277211801762 0.00629428463436552 0.199752992813177 0.0305652024363294 0.0116620138299946 0.17385572321344 0.0257589847285589
          0.00884972209745418 0.188314765966869 0.0223872364403987 0.0127591525346156 0.163759231068681 0.0180821856820454 0.0108708587223094 0.176565309636604 0.0157666859534838 0.0135429512993591 0.153342194771486 0.0119456615058801
          0.0123338506159931 0.16470239131167 0.0103806517013126 0.0140025579535291 0.142804444406439 0.00702774665530509 0.013286146005286 0.152872282984044 0.00599283130115951 0.0141594482148951 0.132292594703868 0.00309033603784837
          0.0138017789666759 0.141180199648427 0.00242472222901316 0.0140527819020128 0.121912281912635 -4.7872292004148e-05 0.0139592770002473 0.129700234926118 -0.000461285011689033 0.0137274851805548 0.111738385083311 -0.0025273610012608
          0.0138313459021237 0.118483923459404 -0.00277240563100475 0.0132268781828085 0.101823350668413 -0.00445784189654405 0.0134805713631842 0.107567011440877 -0.00459240476494739 0.0125887912664251 0.0922036163953802 -0.0059249691276398
          0.01295808864836 0.0969744623781981 -0.00598650330149001 0.0118438689849917 0.0829043080312258 -0.00699509577259889 0.0123036235815351 0.0867238868962466 -0.00700505646826436 0.0110151112879584 0.0739424361948818 -0.00771881186980787
          0.0115460877996871 0.0768275676830557 -0.00768644462999196 0.0101180785746316 0.0653287615327627 -0.00813366584385444 0.0107043254647324 0.0672931423489765 -0.00805941585185935 0.00916147517990884 0.0570683773696938 -0.00826629065585429
          0.00978780969928631 0.0581228517208604 -0.00814499958677022 0.00814803252682201 0.0491599078840774 -0.0081340510559687 0.00879713265735741 0.0493110657388111 -0.00795801148093701 0.00707577490112862 0.0415930437585069 -0.00774625313641077
          0.00772400947635374 0.0408395210445415 -0.00750803153815379 0.0059399255581629 0.0343439283455626 -0.00710487974102042 0.00655014677081363 0.0326691614291869 -0.00679942689518894 0.00473604280707747 0.0273676580236583 -0.00620470978403668
          0.00524357433064692 0.0247259546464416 -0.00582901308337345 0.00346596444631513 0.0205869633638863 -0.00503252168939094 0.00375031885999143 0.016872819040633 -0.00457464983872718 0.00215164259729823 0.013877078970259 -0.0035658671315608
          0.00197758963624162 0.00883557773279701 -0.00294586348391474 0.00087970084316887 0.00705803560600773 -0.00176987521527089 0 0 0 0 0 0
          0 0.21650635094611 0.125 -0.00215925328226903 0.215139099968571 0.0974952979078051 0 0.189443057077846 0.109375 0.00590012470146182 0.185060353727897 0.090437111120296
          -0.00177326401228895 0.208592504799212 0.0799133320584973 0.00757195257299721 0.179839793886218 0.0739051972357172 0.000135110378988322 0.200434352286782 0.0663315623458711 0.00857750625142035 0.17306138126081 0.0609002486471711
          0.00241738349911585 0.191257707606976 0.0553672685606204 0.0094438725077146 0.165221006827828 0.0504489354241512 0.00452928736196821 0.181378856756044 0.046304515538347 0.0101700992174926 0.156651805012184 0.0418960713506868
          0.00624902653115869 0.171026669763578 0.0386960097002157 0.0106943942566335 0.147600169305607 0.0347937639198483 0.00751651225831091 0.160383763600027 0.0322344377574675 0.0109820696772666 0.138256439797123 0.0288283685462162
          0.00834881437619421 0.149596725711415 0.0266990813502649 0.0110313240886558 0.128770166264783 0.0237725133241701 0.00879712355262245 0.138781870708241 0.0219262697073932 0.0108626943121709 0.119258567512459 0.019456604793457
          0.00892470262637785 0.128030279791294 0.0177917363637096 0.0105082974954843 0.109812707360772 0.0157515046334208 0.00879567354722625 0.117412573120696 0.0141997075135804 0.0100041351247916 0.100502670889891 0.0125576828226636
          0.00846951976254161 0.106983221367337 0.0110759057182117 0.00938533824148072 0.09138196173954 0.00979816552554208 0.00799861707369097 0.096784173166088 0.00836284486472059 0.00868352555986471 0.082491080301527 0.00741374717053924
          0.00742733348942315 0.0868476359113576 0.00601649132359171 0.00792549895087367 0.0738602043321606 0.00535959772049879 0.00679188507676811 0.0771978696579065 0.0040037740028934 0.00713271498146144 0.0655108732128635 0.00360277789618321
          0.00612048621482252 0.0678518164497008 0.00230066250054921 0.00632117620147979 0.0574565237032401 0.00212039671268916 0.00543352319588845 0.0588182952340102 0.00089067762238084 0.00550155064608024 0.0497016327067827 0.000898280212061019
          0.00474356552469397 0.0500953496330762 -0.000236191323870682 0.00467946625253213 0.0422390962879513 -6.98838659437914e-05 0.00405500768938077 0.0416651128431129 -0.00108406002349984 0.00385607531989876 0.0350453181547027 -0.000782864743765259
          0.00336293779807672 0.033485077549139 -0.00165086530271592 0.00302923179022295 0.028072290467068 -0.00123147260402016 0.00265029488491876 0.025473191998704 -0.00192617777315409 0.00219627440107262 0.0212357962489609 -0.0013969649285997
          0.00188158328785055 0.0174788382538188 -0.00188268233471257 0.00136164463099444 0.0143997799577353 -0.00124789600560167 0.00098973170911132 0.00920588493492394 -0.00144192915255431 0.000563914747066514 0.00736893724626457 -0.000733274858395019
          0 0 0 0 0 0 0 0.20088135094611 0.152063293868264 -0.00343608896297684 0.201441137147555 0.124364710484996
          0 0.173818057077846 0.136438293868264 0.00546298950624433 0.171263633889851 0.117288818377038 -0.00413624013314339 0.196771181496122 0.106392242359982 0.00646967905612483 0.167910708768665 0.100257382330069
          -0.00312040186690228 0.1903835592481 0.0922551504623901 0.00681252402980828 0.162899813313687 0.086624226642314 -0.00154393591027504 0.182855118643654 0.0805772918658642 0.0071063568019943 0.156693415004641 0.0754291605734104
          2.85314913825856e-05 0.174479610613722 0.0706611651618914 0.00737552768516511 0.149606783002761 0.066021409227631 0.00135163774498662 0.165469504894631 0.0620792910713071 0.00755652408827419 0.141876113969643 0.0579608743477212
          0.00234077877019951 0.156000677986016 0.0545437425404271 0.00760109082308413 0.133689221422951 0.0509452057756313 0.00298955837217027 0.146222155241025 0.047852383695285 0.00748985035834637 0.12520027418275 0.0447602700508885
          0.00332866545351702 0.136259622753629 0.0418587441698912 0.00722624974843045 0.116536519662995 0.0392501509140948 0.00340511670614727 0.126217735686035 0.0364538439536126 0.00682820746133358 0.1078022653287 0.0342986990822216
          0.00327157489010079 0.116182484216274 0.0315550043007594 0.00632143397539076 0.0990820915343685 0.0298179974266324 0.00298080683976136 0.106223770665878 0.0270988533616071 0.00573485099522178 0.0904438329175136 0.0257410000046835
          0.00258285313224566 0.0963979938064095 0.023036842561252 0.00509768153488441 0.081941313694878 0.0220167122512928 0.00212363953318868 0.0867503549957204 0.0193322720629545 0.00443767684679327 0.0736166536262232 0.0186069480899349
          0.00164430811850709 0.0773165897463214 0.0159582463339242 0.00378002488728787 0.065501911955021 0.0154841074092766 0.00118081738990364 0.0681237942400313 0.0128962363232826 0.00314658948256793 0.057619789529437 0.0126296646684237
          0.000763509200506795 0.0591899204802136 0.0101350794608912 0.00255522483627495 0.0499830194243453 0.0100332106899498 0.000416441655149416 0.0505213400177375 0.0076703510541141 0.00201900401900985 0.0425919305791788 0.00769198968115303
          0.00015637513607878 0.0421076032199727 0.00550413050404156 0.00154531875192908 0.0354294725955302 0.00561095926019424 -8.65203750669812e-06 0.0339120315733555 0.00364531635925284 0.00113499299000162 0.0284527785134081 0.00380351793528908
          -8.1368322959904e-05 0.0258554174531599 0.00211097726472555 0.000781879129581542 0.0215802560667189 0.0022932856540936 -7.87814776337317e-05 0.0177849220125752 0.000930416926051338 0.00047422514361913 0.0146742864303574 0.00111778674599109
          -3.93714590456205e-05 0.00939349211117646 0.000159364154181529 0.000202759904220079 0.00753248176298954 0.000335790905347803 0 0 0 0 0 0
          0 0.18525635094611 0.179126587736527 -0.00461363380537339 0.187853887626404 0.151438448365833 0 0.158193057077846 0.163501587736527 0.005070689249471 0.157596747810763 0.14426811601743
          -0.00636834117949105 0.185139023742128 0.133211840239586 0.00543575199141866 0.156181232143532 0.12684516493284 -0.00625460841861283 0.180541437704926 0.11860971441628 0.00511137927894539 0.152957150702318 0.112656452949019
          -0.00541627424670167 0.174634140238688 0.106268923336215 0.0048094286085039 0.148363173299834 0.10075743566013 -0.0044250056380897 0.167705960716189 0.0955188911157522 0.00458973346685673 0.142711473250163 0.0905078088696628
          -0.00354042431952891 0.159969698816158 0.0859609519235294 0.00439525978466033 0.136242571536868 0.0814824986804159 -0.00286568307736444 0.151607131467092 0.0773342817269758 0.00416964037439561 0.129152844459204 0.0733971594222077