<?xml version="1.0"?>
<VTKFile type="UnstructuredGrid" version="0.1" byte_order="LittleEndian">
  <UnstructuredGrid>
    <Piece NumberOfCells="384" NumberOfPoints="425">
      <CellData Scalars="S_liq">
        <DataArray type="Float32" Name="S_liq" NumberOfComponents="1" format="ascii">
          0 0 0 0 0 0 0 0 0 0 0 0
          0 0 0 0 0 0 0 0 0 0.000122183 0.0664269 0.945884
          0 0 0 0 0 0 0 0 0 0 0 0
          0 0 0 0 0 0 0 0 0 7.33855e-05 0.0522789 0.919146
          0 0 0 0 0 0 0 0 0 0 0 0
          0 0 0 0 0 0 0 0 0 5.06818e-05 0.0485433 0.926924
          0 0 0 0 0 0 0 0 0 0 0 0
          0 0 0 0 0 0 0 0 0 1.20434e-05 0.0359838 0.926862
          0 0 0 0 0 0 0 0 0 0 0 0
          0 0 0 0 0 0 0 0 0 0 0 0
          0 0 0 0 0 0 0 0 0 0 0 0
          0 0 0 0 0 0 0 0 0 0 0 0
          0 0 0 0 0 0 0 0 0 0 0 0
          0 0 0 0 0 0 0 0 0 0 0 0
          0 0 0 0 0 0 0 0 0 0 0 0
          0 0 0 0 0 0 0 0 0 0 0 0
          0 0 0 0 0 0 0 0 0 0 0 0
          0 0 0 0 0 0 0 0 0 0 0 0
          0 0 0 0 0 0 0 0 0 0 0 0
          0 0 0 0 0 0 0 0 0 0 0 0
          0 0 0 0 0 0 0 0 0 0 0 0
          0 0 0 0 0 0 0 0 0 0 0 0
          0 0 0 0 0 0 0 0 0 0 0 0
          0 0 0 0 0 0 0 0 0 0 0 0
          0 0 0 0 0 0 0 0 0 0 0 0
          0 0 0 0 0 0 0 0 0 0 0 0
          0 0 0 0 0 0 0 0 0 0 0 0
          0 0 0 0 0 0 0 0 0 0 0 0
          0 0 0 0 0 0 0 0 0 0 0 0
          0 0 0 0 0 0 0 0 0 0 0 0
          0 0 0 0 0 0 0 0 0 0 0 0
          0 0 0 0 0 0 0 0 0 0 0 0
        </DataArray>
        <DataArray type="Float32" Name="S_gas" NumberOfComponents="1" format="ascii">
          1 1 1 1 1 1 1 1 1 1 1 1
          1 1 1 1 1 1 1 1 1 0.999878 0.933573 0.054116
          1 1 1 1 1 1 1 1 1 1 1 1
          1 1 1 1 1 1 1 1 1 0.999927 0.947721 0.0808542
          1 1 1 1 1 1 1 1 1 1 1 1
          1 1 1 1 1 1 1 1 1 0.999949 0.951457 0.0730759
          1 1 1 1 1 1 1 1 1 1 1 1
          1 1 1 1 1 1 1 1 1 0.999988 0.964016 0.0731383
          1 1 1 1 1 1 1 1 1 1 1 1
          1 1 1 1 1 1 1 1 1 1 1 1
          1 1 1 1 1 1 1 1 1 1 1 1
          1 1 1 1 1 1 1 1 1 1 1 1
          1 1 1 1 1 1 1 1 1 1 1 1
          1 1 1 1 1 1 1 1 1 1 1 1
          1 1 1 1 1 1 1 1 1 1 1 1
          1 1 1 1 1 1 1 1 1 1 1 1
          1 1 1 1 1 1 1 1 1 1 1 1
          1 1 1 1 1 1 1 1 1 1 1 1
          1 1 1 1 1 1 1 1 1 1 1 1
          1 1 1 1 1 1 1 1 1 1 1 1
          1 1 1 1 1 1 1 1 1 1 1 1
          1 1 1 1 1 1 1 1 1 1 1 1
          1 1 1 1 1 1 1 1 1 1 1 1
          1 1 1 1 1 1 1 1 1 1 1 1
          1 1 1 1 1 1 1 1 1 1 1 1
          1 1 1 1 1 1 1 1 1 1 1 1
          1 1 1 1 1 1 1 1 1 1 1 1
          1 1 1 1 1 1 1 1 1 1 1 1
          1 1 1 1 1 1 1 1 1 1 1 1
          1 1 1 1 1 1 1 1 1 1 1 1
          1 1 1 1 1 1 1 1 1 1 1 1
          1 1 1 1 1 1 1 1 1 1 1 1
        </DataArray>
        <DataArray type="Float32" Name="p_liq" NumberOfComponents="1" format="ascii">
          100021 100046 100060 100066 100004 100001 100001 100020 100684 100728 100818 100959
          101160 101431 101787 102247 102831 103565 104480 105609 106984 108634 110626 146728
          100011 100029 100040 100045 100002 100000 100000 100018 100649 100693 100781 100918
          101114 101377 101723 102168 102732 103438 104315 105392 106708 108307 110321 138817
          100007 100018 100026 100030 100001 100000 100000 100016 100609 100651 100734 100865
          101051 101300 101626 102043 102568 103222 104024 105001 106178 107591 109330 136043
          100004 100011 100016 100018 100001 100000 100000 100015 100564 100603 100681 100802
          100974 101204 101503 101881 102354 102935 103637 104473 105450 106572 107864 128524
          100002 100005 100008 100009 100000 100000 100000 100013 100515 100550 100621 100732
          100887 101093 101360 101694 102106 102604 103193 103872 104623 105399 106065 106219
          99998 99999 100000 100001 100000 100000 100000 100011 100463 100494 100558 100656
          100793 100974 101206 101493 101843 102257 102735 103267 103829 104368 104794 104981
          99992.1 99992.6 99993.2 99993.6 99999.9 100000 100000 100010 100409 100437 100492 100578
          100697 100853 101049 101291 101580 101917 102296 102705 103120 103502 103795 103944
          99985.1 99985.4 99985.7 99985.9 99999.6 100000 100000 100008 100355 100379 100427 100500
          100601 100733 100897 101096 101331 101599 101894 102205 102512 102785 102992 103101
          99977.2 99977.3 99977.6 99977.7 99999.4 100000 100000 100007 100303 100323 100363 100425
          100510 100619 100754 100916 101103 101314 101542 101776 102002 102199 102346 102424
          99968.1 99968.3 99968.5 99968.7 99999 100000 100000 100006 100251 100268 100302 100354
          100424 100514 100623 100753 100901 101065 101240 101416 101582 101726 101831 101887
          99957.7 99957.9 99958.3 99958.6 99998.6 100000 100000 100004 100202 100216 100245 100288
          100346 100419 100507 100611 100727 100855 100988 101120 101244 101348 101424 101465
          99945.7 99946.2 99946.8 99947.4 99998.2 100000 100000 100003 100155 100167 100192 100228
          100276 100335 100407 100489 100581 100680 100782 100883 100975 101052 101108 101137
          99931.9 99932.6 99934 99935.3 99997.6 100000 100000 100002 100109 100121 100143 100174
          100214 100263 100322 100388 100462 100540 100619 100696 100766 100824 100866 100888
          99915.6 99917 99919.7 99923 99995.2 99998.5 99998.9 99999.5 100064 100077 100098 100125
          100160 100203 100252 100307 100367 100430 100494 100555 100610 100656 100688 100705
          99896.2 99898.4 99903.2 99912.4 99931.7 99949.2 99967.3 99988.2 100015 100036 100058 100084
          100116 100153 100196 100244 100296 100350 100404 100455 100501 100538 100565 100578
          99872.9 99875.5 99881.1 99890.8 99905.6 99921.9 99939.3 99958.8 99980.6 100001 100024 100049
          100079 100114 100155 100199 100247 100296 100345 100392 100433 100467 100491 100503
        </DataArray>
        <DataArray type="Float32" Name="p_gas" NumberOfComponents="1" format="ascii">
          100021 100046 100060 100066 100004 100001 100001 100020 100684 100728 100818 100959
          101160 101431 101787 102247 102831 103565 104480 105609 106984 108634 110626 146728
          100011 100029 100040 100045 100002 100000 100000 100018 100649 100693 100781 100918
          101114 101377 101723 102168 102732 103438 104315 105392 106708 108307 110321 138817
          100007 100018 100026 100030 100001 100000 100000 100016 100609 100651 100734 100865
          101051 101300 101626 102043 102568 103222 104024 105001 106178 107591 109330 136043
          100004 100011 100016 100018 100001 100000 100000 100015 100564 100603 100681 100802
          100974 101204 101503 101881 102354 102935 103637 104473 105450 106572 107864 128524
          100002 100005 100008 100009 100000 100000 100000 100013 100515 100550 100621 100732
          100887 101093 101360 101694 102106 102604 103193 103872 104623 105399 106065 106219
          99998 99999 100000 100001 100000 100000 100000 100011 100463 100494 100558 100656
          100793 100974 101206 101493 101843 102257 102735 103267 103829 104368 104794 104981
          99992.1 99992.6 99993.2 99993.6 99999.9 100000 100000 100010 100409 100437 100492 100578
          100697 100853 101049 101291 101580 101917 102296 102705 103120 103502 103795 103944
          99985.1 99985.4 99985.7 99985.9 99999.6 100000 100000 100008 100355 100379 100427 100500
          100601 100733 100897 101096 101331 101599 101894 102205 102512 102785 102992 103101
          99977.2 99977.3 99977.6 99977.7 99999.4 100000 100000 100007 100303 100323 100363 100425
          100510 100619 100754 100916 101103 101314 101542 101776 102002 102199 102346 102424
          99968.1 99968.3 99968.5 99968.7 99999 100000 100000 100006 100251 100268 100302 100354
          100424 100514 100623 100753 100901 101065 101240 101416 101582 101726 101831 101887
          99957.7 99957.9 99958.3 99958.6 99998.6 100000 100000 100004 100202 100216 100245 100288
          100346 100419 100507 100611 100727 100855 100988 101120 101244 101348 101424 101465
          99945.7 99946.2 99946.8 99947.4 99998.2 100000 100000 100003 100155 100167 100192 100228
          100276 100335 100407 100489 100581 100680 100782 100883 100975 101052 101108 101137
          99931.9 99932.6 99934 99935.3 99997.6 100000 100000 100002 100109 100121 100143 100174
          100214 100263 100322 100388 100462 100540 100619 100696 100766 100824 100866 100888
          99915.6 99917 99919.7 99923 99995.2 99998.5 99998.9 99999.5 100064 100077 100098 100125
          100160 100203 100252 100307 100367 100430 100494 100555 100610 100656 100688 100705
          99896.2 99898.4 99903.2 99912.4 99931.7 99949.2 99967.3 99988.2 100015 100036 100058 100084
          100116 100153 100196 100244 100296 100350 100404 100455 100501 100538 100565 100578
          99872.9 99875.5 99881.1 99890.8 99905.6 99921.9 99939.3 99958.8 99980.6 100001 100024 100049
          100079 100114 100155 100199 100247 100296 100345 100392 100433 100467 100491 100503
        </DataArray>
        <DataArray type="Float32" Name="rho_liq" NumberOfComponents="1" format="ascii">
          997.048 997.048 997.048 997.048 997.048 997.048 997.048 997.048 997.048 997.048 997.048 997.048
          997.048 997.048 997.048 997.049 997.049 997.049 997.05 997.05 997.051 997.052 997.052 997.069
          997.048 997.048 997.048 997.048 997.048 997.048 997.048 997.048 997.048 997.048 997.048 997.048
          997.048 997.048 997.048 997.049 997.049 997.049 997.05 997.05 997.051 997.051 997.052 997.065
          997.048 997.048 997.048 997.048 997.048 997.048 997.048 997.048 997.048 997.048 997.048 997.048
          997.048 997.048 997.048 997.049 997.049 997.049 997.049 997.05 997.05 997.051 997.052 997.064
          997.048 997.048 997.048 997.048 997.048 997.048 997.048 997.048 997.048 997.048 997.048 997.048
          997.048 997.048 997.048 997.049 997.049 997.049 997.049 997.05 997.05 997.051 997.051 997.06
          997.048 997.048 997.048 997.048 997.048 997.048 997.048 997.048 997.048 997.048 997.048 997.048
          997.048 997.048 997.048 997.048 997.049 997.049 997.049 997.049 997.05 997.05 997.05 997.05
          997.048 997.048 997.048 997.048 997.048 997.048 997.048 997.048 997.048 997.048 997.048 997.048
          997.048 997.048 997.048 997.048 997.049 997.049 997.049 997.049 997.049 997.05 997.05 997.05
          997.048 997.048 997.048 997.048 997.048 997.048 997.048 997.048 997.048 997.048 997.048 997.048
          997.048 997.048 997.048 997.048 997.048 997.049 997.049 997.049 997.049 997.049 997.049 997.049
          997.048 997.048 997.048 997.048 997.048 997.048 997.048 997.048 997.048 997.048 997.048 997.048
          997.048 997.048 997.048 997.048 997.048 997.048 997.049 997.049 997.049 997.049 997.049 997.049
          997.048 997.048 997.048 997.048 997.048 997.048 997.048 997.048 997.048 997.048 997.048 997.048
          997.048 997.048 997.048 997.048 997.048 997.048 997.048 997.048 997.049 997.049 997.049 997.049
          997.048 997.048 997.048 997.048 997.048 997.048 997.048 997.048 997.048 997.048 997.048 997.048
          997.048 997.048 997.048 997.048 997.048 997.048 997.048 997.048 997.048 997.048 997.049 997.049
          997.048 997.048 997.048 997.048 997.048 997.048 997.048 997.048 997.048 997.048 997.048 997.048
          997.048 997.048 997.048 997.048 997.048 997.048 997.048 997.048 997.048 997.048 997.048 997.048
          997.048 997.048 997.048 997.048 997.048 997.048 997.048 997.048 997.048 997.048 997.048 997.048
          997.048 997.048 997.048 997.048 997.048 997.048 997.048 997.048 997.048 997.048 997.048 997.048
          997.048 997.048 997.048 997.048 997.048 997.048 997.048 997.048 997.048 997.048 997.048 997.048
          997.048 997.048 997.048 997.048 997.048 997.048 997.048 997.048 997.048 997.048 997.048 997.048
          997.048 997.048 997.048 997.048 997.048 997.048 997.048 997.048 997.048 997.048 997.048 997.048
          997.048 997.048 997.048 997.048 997.048 997.048 997.048 997.048 997.048 997.048 997.048 997.048
          997.048 997.048 997.048 997.048 997.048 997.048 997.048 997.048 997.048 997.048 997.048 997.048
          997.048 997.048 997.048 997.048 997.048 997.048 997.048 997.048 997.048 997.048 997.048 997.048
          997.048 997.048 997.048 997.048 997.048 997.048 997.048 997.048 997.048 997.048 997.048 997.048
          997.048 997.048 997.048 997.048 997.048 997.048 997.048 997.048 997.048 997.048 997.048 997.048
        </DataArray>
        <DataArray type="Float32" Name="rho_gas" NumberOfComponents="1" format="ascii">
          1.12625 1.12653 1.12669 1.12676 1.12606 1.12602 1.12603 1.12624 1.13371 1.13421 1.13522 1.13681
          1.13907 1.14213 1.14614 1.15131 1.15789 1.16616 1.17642 1.18883 1.20261 1.21483 1.23735 1.64531
          1.12614 1.12634 1.12646 1.12652 1.12604 1.12601 1.12602 1.12621 1.13333 1.13381 1.1348 1.13635
          1.13855 1.14152 1.14542 1.15042 1.15677 1.16472 1.17456 1.18643 1.19959 1.21114 1.23389 1.55592
          1.12609 1.12622 1.1263 1.12635 1.12603 1.12601 1.12602 1.12619 1.13287 1.13334 1.13428 1.13576
          1.13785 1.14066 1.14433 1.14902 1.15493 1.16229 1.1713 1.18208 1.19384 1.20305 1.2227 1.52456
          1.12606 1.12613 1.12619 1.12622 1.12602 1.12601 1.12602 1.12618 1.13236 1.1328 1.13368 1.13505
          1.13698 1.13957 1.14293 1.1472 1.15252 1.15906 1.16696 1.17621 1.18598 1.19153 1.20613 1.4396
          1.12604 1.12607 1.1261 1.12611 1.12602 1.12601 1.12601 1.12616 1.13181 1.13221 1.13301 1.13425
          1.136 1.13833 1.14132 1.14509 1.14973 1.15534 1.16197 1.16958 1.1778 1.18519 1.19106 1.19257
          1.12599 1.126 1.12602 1.12603 1.12602 1.12601 1.12601 1.12614 1.13122 1.13158 1.13229 1.1334
          1.13494 1.13699 1.13959 1.14283 1.14676 1.15143 1.15681 1.1628 1.16909 1.17497 1.17933 1.1812
          1.12592 1.12593 1.12594 1.12594 1.12601 1.12601 1.12601 1.12613 1.13062 1.13093 1.13156 1.13252
          1.13386 1.13561 1.13783 1.14055 1.14381 1.14759 1.15186 1.15647 1.16114 1.16542 1.16865 1.17028
          1.12585 1.12585 1.12585 1.12586 1.12601 1.12601 1.12601 1.12611 1.13002 1.13028 1.13082 1.13165
          1.13279 1.13426 1.13611 1.13836 1.141 1.14402 1.14735 1.15085 1.1543 1.15737 1.15969 1.16091
          1.12576 1.12576 1.12576 1.12576 1.12601 1.12601 1.12601 1.12609 1.12942 1.12965 1.1301 1.1308
          1.13175 1.13298 1.1345 1.13632 1.13843 1.14081 1.14337 1.14601 1.14855 1.15078 1.15243 1.15331
          1.12565 1.12566 1.12566 1.12566 1.126 1.12601 1.12601 1.12608 1.12884 1.12904 1.12942 1.13
          1.13079 1.1318 1.13303 1.13449 1.13616 1.13801 1.13997 1.14196 1.14383 1.14544 1.14663 1.14726
          1.12554 1.12554 1.12554 1.12555 1.126 1.12601 1.12601 1.12606 1.12829 1.12845 1.12877 1.12926
          1.12991 1.13073 1.13173 1.13289 1.1342 1.13564 1.13714 1.13863 1.14002 1.14119 1.14205 1.14251
          1.1254 1.12541 1.12541 1.12542 1.12599 1.12601 1.12601 1.12605 1.12776 1.1279 1.12817 1.12858
          1.12912 1.12979 1.13059 1.13152 1.13256 1.13367 1.13482 1.13595 1.13699 1.13786 1.13849 1.13882
          1.12525 1.12525 1.12527 1.12529 1.12599 1.12601 1.12601 1.12603 1.12724 1.12738 1.12762 1.12797
          1.12842 1.12898 1.12964 1.13039 1.13121 1.13209 1.13299 1.13385 1.13464 1.1353 1.13577 1.13601
          1.12506 1.12508 1.12511 1.12515 1.12596 1.126 1.126 1.12601 1.12673 1.12688 1.12711 1.12743
          1.12782 1.12829 1.12885 1.12947 1.13015 1.13086 1.13158 1.13226 1.13288 1.1334 1.13376 1.13395
          1.12484 1.12487 1.12492 1.12503 1.12524 1.12544 1.12565 1.12588 1.12619 1.12641 1.12666 1.12696
          1.12731 1.12774 1.12822 1.12876 1.12934 1.12995 1.13056 1.13113 1.13165 1.13207 1.13237 1.13253
          1.12458 1.12461 1.12467 1.12478 1.12495 1.12513 1.12533 1.12555 1.12579 1.12603 1.12628 1.12657
          1.12691 1.1273 1.12775 1.12825 1.12879 1.12935 1.1299 1.13042 1.13089 1.13127 1.13154 1.13168
        </DataArray>
        <DataArray type="Float32" Name="mob_liq" NumberOfComponents="1" format="ascii">
          0 0 0 0 0 0 0 0 0 0 0 0
          0 0 0 0 0 0 0 0 0 0.000149144 47.5714 1090.6
          0 0 0 0 0 0 0 0 0 0 0 0
          0 0 0 0 0 0 0 0 0 5.37957e-05 30.7919 1058.89
          0 0 0 0 0 0 0 0 0 0 0 0
          0 0 0 0 0 0 0 0 0 2.5657e-05 26.3906 1068.12
          0 0 0 0 0 0 0 0 0 0 0 0
          0 0 0 0 0 0 0 0 0 1.44863e-06 14.0952 1068.04
          0 0 0 0 0 0 0 0 0 0 0 0
          0 0 0 0 0 0 0 0 0 0 0 0
          0 0 0 0 0 0 0 0 0 0 0 0
          0 0 0 0 0 0 0 0 0 0 0 0
          0 0 0 0 0 0 0 0 0 0 0 0
          0 0 0 0 0 0 0 0 0 0 0 0
          0 0 0 0 0 0 0 0 0 0 0 0
          0 0 0 0 0 0 0 0 0 0 0 0
          0 0 0 0 0 0 0 0 0 0 0 0
          0 0 0 0 0 0 0 0 0 0 0 0
          0 0 0 0 0 0 0 0 0 0 0 0
          0 0 0 0 0 0 0 0 0 0 0 0
          0 0 0 0 0 0 0 0 0 0 0 0
          0 0 0 0 0 0 0 0 0 0 0 0
          0 0 0 0 0 0 0 0 0 0 0 0
          0 0 0 0 0 0 0 0 0 0 0 0
          0 0 0 0 0 0 0 0 0 0 0 0
          0 0 0 0 0 0 0 0 0 0 0 0
          0 0 0 0 0 0 0 0 0 0 0 0
          0 0 0 0 0 0 0 0 0 0 0 0
          0 0 0 0 0 0 0 0 0 0 0 0
          0 0 0 0 0 0 0 0 0 0 0 0
          0 0 0 0 0 0 0 0 0 0 0 0
          0 0 0 0 0 0 0 0 0 0 0 0
        </DataArray>
        <DataArray type="Float32" Name="mob_gas" NumberOfComponents="1" format="ascii">
          56746.7 56746.7 56746.7 56746.7 56746.7 56746.7 56746.7 56746.7 56746.7 56746.7 56746.7 56746.7
          56746.7 56746.7 56746.7 56746.7 56746.7 56746.7 56746.7 56746.7 56746.7 56746.7 54344.1 1665.21
          56746.7 56746.7 56746.7 56746.7 56746.7 56746.7 56746.7 56746.7 56746.7 56746.7 56746.7 56746.7
          56746.7 56746.7 56746.7 56746.7 56746.7 56746.7 56746.7 56746.7 56746.7 56746.7 55191.6 3266.81
          56746.7 56746.7 56746.7 56746.7 56746.7 56746.7 56746.7 56746.7 56746.7 56746.7 56746.7 56746.7
          56746.7 56746.7 56746.7 56746.7 56746.7 56746.7 56746.7 56746.7 56746.7 56746.7 55413.9 2800.9
          56746.7 56746.7 56746.7 56746.7 56746.7 56746.7 56746.7 56746.7 56746.7 56746.7 56746.7 56746.7
          56746.7 56746.7 56746.7 56746.7 56746.7 56746.7 56746.7 56746.7 56746.7 56746.7 56034.8 2804.64
          56746.7 56746.7 56746.7 56746.7 56746.7 56746.7 56746.7 56746.7 56746.7 56746.7 56746.7 56746.7
          56746.7 56746.7 56746.7 56746.7 56746.7 56746.7 56746.7 56746.7 56746.7 56746.7 56746.7 56746.7
          56746.7 56746.7 56746.7 56746.7 56746.7 56746.7 56746.7 56746.7 56746.7 56746.7 56746.7 56746.7
          56746.7 56746.7 56746.7 56746.7 56746.7 56746.7 56746.7 56746.7 56746.7 56746.7 56746.7 56746.7
          56746.7 56746.7 56746.7 56746.7 56746.7 56746.7 56746.7 56746.7 56746.7 56746.7 56746.7 56746.7
          56746.7 56746.7 56746.7 56746.7 56746.7 56746.7 56746.7 56746.7 56746.7 56746.7 56746.7 56746.7
          56746.7 56746.7 56746.7 56746.7 56746.7 56746.7 56746.7 56746.7 56746.7 56746.7 56746.7 56746.7
          56746.7 56746.7 56746.7 56746.7 56746.7 56746.7 56746.7 56746.7 56746.7 56746.7 56746.7 56746.7
          56746.7 56746.7 56746.7 56746.7 56746.7 56746.7 56746.7 56746.7 56746.7 56746.7 56746.7 56746.7
          56746.7 56746.7 56746.7 56746.7 56746.7 56746.7 56746.7 56746.7 56746.7 56746.7 56746.7 56746.7
          56746.7 56746.7 56746.7 56746.7 56746.7 56746.7 56746.7 56746.7 56746.7 56746.7 56746.7 56746.7
          56746.7 56746.7 56746.7 56746.7 56746.7 56746.7 56746.7 56746.7 56746.7 56746.7 56746.7 56746.7
          56746.7 56746.7 56746.7 56746.7 56746.7 56746.7 56746.7 56746.7 56746.7 56746.7 56746.7 56746.7
          56746.7 56746.7 56746.7 56746.7 56746.7 56746.7 56746.7 56746.7 56746.7 56746.7 56746.7 56746.7
          56746.7 56746.7 56746.7 56746.7 56746.7 56746.7 56746.7 56746.7 56746.7 56746.7 56746.7 56746.7
          56746.7 56746.7 56746.7 56746.7 56746.7 56746.7 56746.7 56746.7 56746.7 56746.7 56746.7 56746.7
          56746.7 56746.7 56746.7 56746.7 56746.7 56746.7 56746.7 56746.7 56746.7 56746.7 56746.7 56746.7
          56746.7 56746.7 56746.7 56746.7 56746.7 56746.7 56746.7 56746.7 56746.7 56746.7 56746.7 56746.7
          56746.7 56746.7 56746.7 56746.7 56746.7 56746.7 56746.7 56746.7 56746.7 56746.7 56746.7 56746.7
          56746.7 56746.7 56746.7 56746.7 56746.7 56746.7 56746.7 56746.7 56746.7 56746.7 56746.7 56746.7
          56746.7 56746.7 56746.7 56746.7 56746.7 56746.7 56746.7 56746.7 56746.7 56746.7 56746.7 56746.7
          56746.7 56746.7 56746.7 56746.7 56746.7 56746.7 56746.7 56746.7 56746.7 56746.7 56746.7 56746.7
          56746.7 56746.7 56746.7 56746.7 56746.7 56746.7 56746.7 56746.7 56746.7 56746.7 56746.7 56746.7
          56746.7 56746.7 56746.7 56746.7 56746.7 56746.7 56746.7 56746.7 56746.7 56746.7 56746.7 56746.7
        </DataArray>
        <DataArray type="Float32" Name="porosity" NumberOfComponents="1" format="ascii">
          0.3 0.3 0.3 0.3 0.3 0.3 0.3 0.3 0.3 0.3 0.3 0.3
          0.3 0.3 0.3 0.3 0.3 0.3 0.3 0.3 0.3 0.3 0.3 0.3
          0.3 0.3 0.3 0.3 0.3 0.3 0.3 0.3 0.3 0.3 0.3 0.3
          0.3 0.3 0.3 0.3 0.3 0.3 0.3 0.3 0.3 0.3 0.3 0.3
          0.3 0.3 0.3 0.3 0.3 0.3 0.3 0.3 0.3 0.3 0.3 0.3
          0.3 0.3 0.3 0.3 0.3 0.3 0.3 0.3 0.3 0.3 0.3 0.3
          0.3 0.3 0.3 0.3 0.3 0.3 0.3 0.3 0.3 0.3 0.3 0.3
          0.3 0.3 0.3 0.3 0.3 0.3 0.3 0.3 0.3 0.3 0.3 0.3
          0.3 0.3 0.3 0.3 0.3 0.3 0.3 0.3 0.3 0.3 0.3 0.3
          0.3 0.3 0.3 0.3 0.3 0.3 0.3 0.3 0.3 0.3 0.3 0.3
          0.3 0.3 0.3 0.3 0.3 0.3 0.3 0.3 0.3 0.3 0.3 0.3
          0.3 0.3 0.3 0.3 0.3 0.3 0.3 0.3 0.3 0.3 0.3 0.3
          0.3 0.3 0.3 0.3 0.3 0.3 0.3 0.3 0.3 0.3 0.3 0.3
          0.3 0.3 0.3 0.3 0.3 0.3 0.3 0.3 0.3 0.3 0.3 0.3
          0.3 0.3 0.3 0.3 0.3 0.3 0.3 0.3 0.3 0.3 0.3 0.3
          0.3 0.3 0.3 0.3 0.3 0.3 0.3 0.3 0.3 0.3 0.3 0.3
          0.3 0.3 0.3 0.3 0.3 0.3 0.3 0.3 0.3 0.3 0.3 0.3
          0.3 0.3 0.3 0.3 0.3 0.3 0.3 0.3 0.3 0.3 0.3 0.3
          0.3 0.3 0.3 0.3 0.3 0.3 0.3 0.3 0.3 0.3 0.3 0.3
          0.3 0.3 0.3 0.3 0.3 0.3 0.3 0.3 0.3 0.3 0.3 0.3
          0.3 0.3 0.3 0.3 0.3 0.3 0.3 0.3 0.3 0.3 0.3 0.3
          0.3 0.3 0.3 0.3 0.3 0.3 0.3 0.3 0.3 0.3 0.3 0.3
          0.3 0.3 0.3 0.3 0.3 0.3 0.3 0.3 0.3 0.3 0.3 0.3
          0.3 0.3 0.3 0.3 0.3 0.3 0.3 0.3 0.3 0.3 0.3 0.3
          0.3 0.3 0.3 0.3 0.3 0.3 0.3 0.3 0.3 0.3 0.3 0.3
          0.3 0.3 0.3 0.3 0.3 0.3 0.3 0.3 0.3 0.3 0.3 0.3
          0.3 0.3 0.3 0.3 0.3 0.3 0.3 0.3 0.3 0.3 0.3 0.3
          0.3 0.3 0.3 0.3 0.3 0.3 0.3 0.3 0.3 0.3 0.3 0.3
          0.3 0.3 0.3 0.3 0.3 0.3 0.3 0.3 0.3 0.3 0.3 0.3
          0.3 0.3 0.3 0.3 0.3 0.3 0.3 0.3 0.3 0.3 0.3 0.3
          0.3 0.3 0.3 0.3 0.3 0.3 0.3 0.3 0.3 0.3 0.3 0.3
          0.3 0.3 0.3 0.3 0.3 0.3 0.3 0.3 0.3 0.3 0.3 0.3
        </DataArray>
        <DataArray type="Float32" Name="x^H2O_liq" NumberOfComponents="1" format="ascii">
          0.315549 0.315627 0.315672 0.315692 0.315496 0.315485 0.315486 0.315546 0.317639 0.317779 0.318063 0.318509
          0.319142 0.319997 0.321121 0.322572 0.324437 0.327043 0.332898 0.359714 0.497574 0.999988 0.999988 0.999983
          0.315518 0.315573 0.315609 0.315626 0.31549 0.315483 0.315483 0.315538 0.317531 0.317668 0.317945 0.31838
          0.318996 0.319828 0.320919 0.322323 0.324119 0.326588 0.331932 0.356534 0.48927 0.999988 0.999988 0.999984
          0.315504 0.315539 0.315564 0.315576 0.315487 0.315483 0.315483 0.315533 0.317405 0.317535 0.317799 0.318213
          0.318798 0.319585 0.320613 0.321929 0.323597 0.325823 0.330271 0.350637 0.471383 0.999988 0.999988 0.999985
          0.315495 0.315516 0.315532 0.31554 0.315485 0.315483 0.315483 0.315529 0.317262 0.317383 0.31763 0.318014
          0.318556 0.319281 0.320223 0.321418 0.322915 0.324834 0.32818 0.342634 0.442352 0.999988 0.999988 0.999985
          0.31549 0.315498 0.315506 0.315511 0.315484 0.315483 0.315483 0.315524 0.317106 0.317217 0.317442 0.317791
          0.31828 0.318932 0.319772 0.320827 0.322128 0.323716 0.325787 0.330221 0.351416 0.458628 0.588301 0.606505
          0.315476 0.31548 0.315484 0.315486 0.315483 0.315483 0.315483 0.315519 0.316942 0.317041 0.317242 0.317552
          0.317985 0.318557 0.319287 0.320194 0.321296 0.322605 0.32414 0.326111 0.33041 0.347083 0.383094 0.401348
          0.315458 0.315459 0.315461 0.315462 0.315482 0.315483 0.315483 0.315514 0.316773 0.31686 0.317036 0.317306
          0.317681 0.318172 0.318793 0.319556 0.320468 0.321529 0.322727 0.324046 0.325612 0.328453 0.334491 0.338927
          0.315436 0.315436 0.315438 0.315438 0.315481 0.315483 0.315483 0.315509 0.316604 0.316679 0.31683 0.317061
          0.31738 0.317795 0.318313 0.318941 0.319681 0.320527 0.32146 0.322442 0.323429 0.324429 0.325589 0.326431
          0.315411 0.315411 0.315412 0.315412 0.315481 0.315483 0.315483 0.315505 0.316437 0.316501 0.316629 0.316824
          0.317091 0.317435 0.317861 0.318371 0.318963 0.319627 0.320346 0.321086 0.321799 0.322431 0.322932 0.32322
          0.315382 0.315382 0.315383 0.315384 0.31548 0.315483 0.315483 0.3155 0.316275 0.316329 0.316437 0.3166
          0.316821 0.317104 0.317449 0.317858 0.318326 0.318844 0.319394 0.319949 0.320475 0.320927 0.321262 0.321441
          0.315349 0.31535 0.315351 0.315352 0.315478 0.315483 0.315483 0.315496 0.31612 0.316166 0.316256 0.316391
          0.316574 0.316805 0.317084 0.31741 0.317778 0.318179 0.318599 0.319017 0.319406 0.319736 0.319976 0.320104
          0.315311 0.315313 0.315315 0.315317 0.315477 0.315483 0.315483 0.315492 0.315971 0.316011 0.316087 0.316201
          0.316352 0.316541 0.316766 0.317026 0.317317 0.317629 0.317951 0.318267 0.318557 0.318801 0.318977 0.31907
          0.315268 0.31527 0.315274 0.315279 0.315475 0.315482 0.315483 0.315487 0.315828 0.315864 0.315932 0.31603
          0.316157 0.316313 0.316498 0.316708 0.316939 0.317185 0.317436 0.317679 0.3179 0.318083 0.318215 0.318284
          0.315216 0.315221 0.315229 0.31524 0.315468 0.315478 0.315479 0.315481 0.315685 0.315725 0.315791 0.315878
          0.315989 0.316122 0.316276 0.316451 0.316641 0.31684 0.317041 0.317234 0.317408 0.317551 0.317653 0.317706
          0.315155 0.315162 0.315177 0.315206 0.315267 0.315322 0.31538 0.315446 0.315531 0.315595 0.315664 0.315747
          0.315847 0.315965 0.316101 0.316252 0.316416 0.316586 0.316756 0.316917 0.317062 0.31718 0.317264 0.317308
          0.315082 0.31509 0.315107 0.315138 0.315185 0.315236 0.315291 0.315353 0.315421 0.315487 0.315557 0.315638
          0.315733 0.315844 0.31597 0.31611 0.316261 0.316416 0.316571 0.316718 0.316848 0.316955 0.31703 0.317069
        </DataArray>
        <DataArray type="Float32" Name="x^N2_liq" NumberOfComponents="1" format="ascii">
          1.14745e-05 1.14774e-05 1.1479e-05 1.14797e-05 1.14726e-05 1.14722e-05 1.14722e-05 1.14744e-05 1.15505e-05 1.15556e-05 1.15659e-05 1.15822e-05
          1.16052e-05 1.16363e-05 1.16771e-05 1.17298e-05 1.17969e-05 1.1881e-05 1.19849e-05 1.21058e-05 1.22146e-05 1.22212e-05 1.24521e-05 1.66355e-05
          1.14734e-05 1.14754e-05 1.14767e-05 1.14773e-05 1.14724e-05 1.14721e-05 1.14721e-05 1.14741e-05 1.15466e-05 1.15516e-05 1.15617e-05 1.15775e-05
          1.15999e-05 1.16301e-05 1.16698e-05 1.17208e-05 1.17855e-05 1.18664e-05 1.1966e-05 1.20819e-05 1.21856e-05 1.21834e-05 1.24167e-05 1.57188e-05
          1.14729e-05 1.14742e-05 1.14751e-05 1.14755e-05 1.14723e-05 1.14721e-05 1.14721e-05 1.1474e-05 1.1542e-05 1.15467e-05 1.15564e-05 1.15714e-05
          1.15927e-05 1.16213e-05 1.16587e-05 1.17065e-05 1.17668e-05 1.18416e-05 1.1933e-05 1.20387e-05 1.21308e-05 1.21004e-05 1.23019e-05 1.53973e-05
          1.14726e-05 1.14733e-05 1.14739e-05 1.14742e-05 1.14722e-05 1.14721e-05 1.14721e-05 1.14738e-05 1.15368e-05 1.15412e-05 1.15502e-05 1.15642e-05
          1.15839e-05 1.16102e-05 1.16445e-05 1.1688e-05 1.17422e-05 1.18088e-05 1.18889e-05 1.19805e-05 1.20571e-05 1.19823e-05 1.2132e-05 1.45261e-05
          1.14724e-05 1.14727e-05 1.1473e-05 1.14731e-05 1.14722e-05 1.14721e-05 1.14721e-05 1.14736e-05 1.15312e-05 1.15352e-05 1.15434e-05 1.1556e-05
          1.15739e-05 1.15976e-05 1.16281e-05 1.16665e-05 1.17137e-05 1.17709e-05 1.18384e-05 1.19153e-05 1.19946e-05 1.20452e-05 1.20747e-05 1.20859e-05
          1.14719e-05 1.1472e-05 1.14721e-05 1.14722e-05 1.14721e-05 1.14721e-05 1.14721e-05 1.14734e-05 1.15252e-05 1.15288e-05 1.15361e-05 1.15474e-05
          1.15631e-05 1.15839e-05 1.16104e-05 1.16434e-05 1.16835e-05 1.17311e-05 1.17859e-05 1.18468e-05 1.19103e-05 1.19667e-05 1.20028e-05 1.20177e-05
          1.14712e-05 1.14713e-05 1.14713e-05 1.14714e-05 1.14721e-05 1.14721e-05 1.14721e-05 1.14732e-05 1.1519e-05 1.15222e-05 1.15286e-05 1.15384e-05
          1.1552e-05 1.15699e-05 1.15925e-05 1.16202e-05 1.16534e-05 1.1692e-05 1.17355e-05 1.17824e-05 1.18299e-05 1.18732e-05 1.19049e-05 1.19205e-05
          1.14704e-05 1.14704e-05 1.14705e-05 1.14705e-05 1.14721e-05 1.14721e-05 1.14721e-05 1.14731e-05 1.15129e-05 1.15156e-05 1.15211e-05 1.15295e-05
          1.15411e-05 1.15562e-05 1.1575e-05 1.15979e-05 1.16248e-05 1.16555e-05 1.16894e-05 1.17251e-05 1.17602e-05 1.17916e-05 1.18151e-05 1.18274e-05
          1.14695e-05 1.14695e-05 1.14695e-05 1.14696e-05 1.1472e-05 1.14721e-05 1.14721e-05 1.14729e-05 1.15068e-05 1.15091e-05 1.15138e-05 1.15209e-05
          1.15306e-05 1.15431e-05 1.15586e-05 1.15771e-05 1.15987e-05 1.16228e-05 1.1649e-05 1.16759e-05 1.17018e-05 1.17244e-05 1.17412e-05 1.17502e-05
          1.14684e-05 1.14685e-05 1.14685e-05 1.14685e-05 1.1472e-05 1.14721e-05 1.14721e-05 1.14727e-05 1.15009e-05 1.15029e-05 1.15068e-05 1.15127e-05
          1.15208e-05 1.15311e-05 1.15436e-05 1.15585e-05 1.15755e-05 1.15943e-05 1.16143e-05 1.16345e-05 1.16536e-05 1.16701e-05 1.16822e-05 1.16886e-05
          1.14673e-05 1.14673e-05 1.14673e-05 1.14674e-05 1.1472e-05 1.14721e-05 1.14721e-05 1.14726e-05 1.14953e-05 1.14969e-05 1.15002e-05 1.15052e-05