<?xml version="1.0"?>
<VTKFile type="UnstructuredGrid" version="0.1" byte_order="LittleEndian">
  <UnstructuredGrid>
    <Piece NumberOfCells="3200" NumberOfPoints="1681">
      <PointData Scalars="p">
        <DataArray type="Float32" Name="p" NumberOfComponents="1" format="ascii">
          0.0245026 0.0266324 0.000182207 -0.00199912 0.046562 0.025576 0.051331 0.0680201 0.0745983 0.047634 0.0703905 -0.00357061
          0.0259924 -0.00496139 0.0467461 0.0695056 0.08812 0.0962311 0.107086 0.11637 0.0912652 0.11097 0.124872 0.135002
          0.141496 0.129303 0.0897806 0.109171 0.127188 0.146327 0.143995 -0.00596887 0.0265174 0.0464975 0.0269267 -0.0067328
          0.0461669 0.0698571 0.0698412 0.0272655 -0.00723969 0.0459593 0.0275158 0.0699489 0.0458105 0.0700172 0.0901314 0.109812
          0.0898253 0.109506 0.127977 0.144943 0.127541 0.144452 0.0897855 0.109596 0.0896946 0.10956 0.127631 0.144606
          0.127531 0.152159 0.156954 0.167859 0.162031 0.171242 0.182122 0.184356 0.194966 0.176428 0.189522 0.15955
          0.173868 0.186949 0.196293 0.206411 0.207045 0.20132 0.216473 0.216608 0.225169 0.211828 0.221051 0.198794
          0.209402 0.218774 0.160607 0.160055 0.175007 0.188133 0.174419 0.187524 0.16024 0.144506 0.160113 0.17464
          0.187768 0.174504 0.187623 0.199992 0.210586 0.199379 0.209982 0.219917 0.219336 0.199641 0.210255 0.199493
          0.219612 0.210106 0.219468 -0.00752186 0.0276837 -0.0075965 0.0457311 0.0700877 -0.00748433 0.0277705 0.0457093 0.0277809
          -0.00720388 0.0457401 0.0701439 0.0701882 0.0896549 0.109582 0.127523 0.144524 0.0896307 0.109593 0.0896295 0.109613
          0.127498 0.144508 0.127494 0.144514 0.0277196 -0.00677341 0.0458169 0.0275921 0.0702186 0.0459342 0.0702353 -0.00621047
          0.0274042 -0.00553216 0.0460864 0.0702382 0.0896452 0.109634 0.0896764 0.109655 0.127496 0.144519 0.127507 0.0897203
          0.109676 0.127525 0.144531 0.144545 0.160131 0.174537 0.187663 0.1601 0.160099 0.174506 0.187627 0.17451
          0.187631 0.199542 0.210162 0.219529 0.199506 0.210125 0.199513 0.210135 0.219493 0.219506 0.160095 0.1601
          0.174507 0.187624 0.174512 0.187627 0.160108 0.174519 0.187631 0.199506 0.210127 0.19951 0.219499 0.210131
          0.219504 0.199513 0.210133 0.219506 0.224975 0.232517 0.23214 0.238533 0.228994 0.235662 0.238097 0.243232
          0.242838 0.241059 0.22691 0.233808 0.239468 0.24519 0.243889 0.246631 0.246358 0.248745 0.248059 0.248648
          0.24959 0.249703 0.249181 0.249671 0.250029 0.24707 0.249009 0.249706 0.227987 0.234799 0.227441 0.234298
          0.240354 0.244654 0.239907 0.244269 0.227714 0.234562 0.227576 0.234434 0.240156 0.244498 0.24004 0.247699
          0.247384 0.249493 0.250035 0.249251 0.249871 0.247588 0.244396 0.247503 0.249427 0.250016 0.249359 0.249967
          0.249515 0.247532 0.248077 0.249136 0.24466 0.245382 0.240578 0.246998 0.243618 0.249159 0.247367 0.244328
          0.241425 0.235302 0.236196 0.228846 0.239 0.233146 0.229691 0.221225 0.2219 0.226062 0.240041 0.234504
          0.227716 0.217749 0.219675 0.249328 0.247372 0.249245 0.247371 0.244169 0.24425 0.249355 0.247446 0.249326
          0.244287 0.247436 0.244297 0.23972 0.234025 0.239882 0.234266 0.227087 0.218904 0.227402 0.21929 0.239881
          0.234226 0.23991 0.234275 0.227325 0.219176 0.227391 0.227641 0.234501 0.240108 0.244463 0.227608 0.234471
          0.227623 0.234488 0.240081 0.244441 0.240101 0.244462 0.247567 0.24942 0.250023 0.24755 0.247572 0.249408
          0.250016 0.249431 0.250039 0.227617 0.234483 0.227623 0.234491 0.240098 0.244461 0.240106 0.227625 0.234493
          0.24011 0.244471 0.244475 0.247573 0.247584 0.249434 0.250044 0.249446 0.250057 0.247589 0.249452 0.250064
          0.249376 0.247479 0.244333 0.249374 0.247482 0.249397 0.247505 0.244341 0.244363 0.239937 0.234293 0.2274
          0.219259 0.219258 0.23995 0.234311 0.239971 0.234329 0.227422 0.219284 0.227438 0.219297 0.249404 0.247513
          0.249417 0.244373 0.247527 0.244387 0.249426 0.247537 0.244398 0.239982 0.234342 0.239997 0.234357 0.227452
          0.219312 0.227466 0.240008 0.234369 0.227479 0.219326 0.219339 -0.00475516 0.027162 0.0462685 0.0268719 -0.00389581
          0.0464757 0.0702277 0.0702045 0.0265403 -0.00297018 0.0467034 0.026174 0.0701694 0.0469473 0.0701234 0.0897748 0.109696
          0.0898381 0.109714 0.127548 0.144561 0.127576 0.144578 0.0899083 0.10973 0.0899837 0.109743 0.127606 0.144597
          0.12764 -0.0019941 0.0257798 -0.000983158 0.0472031 0.0700675 4.72105e-05 0.0253644 0.0474666 0.0249348 0.00108174 0.0477339
          0.0700029 0.069931 0.0900629 0.109754 0.127674 0.144616 0.144635 0.0901444 0.109761 0.090227 0.109766 0.12771
          0.144653 0.127746 0.14467 0.160121 0.160136 0.174529 0.187639 0.174542 0.187649 0.160154 0.160174 0.174556
          0.187661 0.174571 0.187675 0.19952 0.210139 0.199529 0.210147 0.219512 0.219519 0.199539 0.210156 0.199551
          0.219527 0.210167 0.219537 0.160195 0.174588 0.18769 0.160217 0.160239 0.174604 0.187706 0.174621 0.187723
          0.199564 0.210179 0.219548 0.199578 0.210192 0.199593 0.210205 0.21956 0.219573 0.024498 0.00210534 0.048001
          0.0240608 0.069853 0.0482641 0.0697704 0.00310298 0.0236303 0.00405989 0.0485195 0.0696846 0.0903093 0.109768 0.0903901
          0.109767 0.127782 0.144687 0.127817 0.0904685 0.109763 0.12785 0.144702 0.144716 0.00496107 0.0232132 0.0487633
          0.0228169 0.00579237 0.048992 0.0695969 0.0695091 0.022447 0.006538 0.0492012 0.0221129 0.0694217 0.0493889 0.0693379
          0.090543 0.109756 0.0906129 0.109747 0.127882 0.144728 0.127911 0.144738 0.0906764 0.109736 0.090734 0.109723
          0.127938 0.144746 0.127962 0.160262 0.160283 0.174638 0.18774 0.174655 0.187757 0.160305 0.174671 0.187775
          0.199608 0.21022 0.199624 0.219586 0.210235 0.2196 0.199639 0.21025 0.219614 0.160325 0.160345 0.174687
          0.187792 0.174702 0.187808 0.160363 0.144754 0.16038 0.174716 0.187824 0.174729 0.18784 0.199655 0.210265
          0.19967 0.210281 0.219629 0.219643 0.199685 0.210296 0.1997 0.219658 0.210311 0.219673 0.227631 0.2345
          0.227637 0.234506 0.240117 0.244482 0.240123 0.244489 0.227646 0.234514 0.227655 0.234523 0.240131 0.244497
          0.24014 0.247597 0.247604 0.249461 0.250074 0.249469 0.250082 0.247613 0.244506 0.247622 0.249478 0.250092
          0.249487 0.250101 0.227665 0.234533 0.240149 0.244515 0.227676 0.234543 0.227688 0.234555 0.240159 0.244525
          0.24017 0.244536 0.247631 0.249496 0.250111 0.247641 0.247651 0.249506 0.250121 0.249516 0.250131 0.249436
          0.247548 0.249445 0.247558 0.244409 0.24442 0.249455 0.247568 0.249465 0.244431 0.247578 0.244442 0.24002
          0.234381 0.240032 0.234393 0.227492 0.219353 0.227505 0.219367 0.240043 0.234406 0.240055 0.234418 0.227518
          0.219381 0.227531 0.249475 0.247589 0.244453 0.249485 0.247599 0.249495 0.24761 0.244464 0.244475 0.240066
          0.234431 0.227545 0.219395 0.21941 0.240078 0.234443 0.24009 0.234456 0.227558 0.219425 0.227572 0.21944
          0.227701 0.234567 0.227714 0.234579 0.240182 0.244547 0.240194 0.227728 0.234592 0.240206 0.244558 0.24457
          0.247662 0.247673 0.249527 0.250141 0.249537 0.250152 0.247684 0.249548 0.250162 0.227742 0.234605 0.227756
          0.234619 0.240219 0.244582 0.240231 0.244594 0.22777 0.234632 0.227784 0.234645 0.240244 0.244606 0.240256
          0.247695 0.247706 0.249558 0.250172 0.249568 0.250181 0.247717 0.244616 0.247726 0.249578 0.25019 0.249586
          0.250196 0.249506 0.24762 0.249516 0.244486 0.247631 0.244496 0.249526 0.24764 0.244506 0.240101 0.234468
          0.240112 0.234479 0.227585 0.219454 0.227597 0.240122 0.23449 0.227608 0.219468 0.219481 0.249535 0.247649
          0.249544 0.247657 0.244514 0.244522 0.249551 0.247664 0.249557 0.244528 0.247668 0.24453 0.240131 0.234499
          0.240137 0.234505 0.227618 0.219491 0.227625 0.219499 0.240143 0.23451 0.240145 0.234511 0.22763 0.219505
          0.227631 0.212452 0.212823 0.202547 0.208216 0.202441 0.191514 0.190771 0.179389 0.197458 0.185497 0.210383
          0.199831 0.188035 0.177763 0.166144 0.163502 0.172299 0.151883 0.147802 0.136447 0.157948 0.142291 0.174956
          0.160673 0.145024 0.209482 0.209932 0.198814 0.186918 0.199322 0.187473 0.209782 0.20988 0.199137 0.187256
          0.199249 0.187379 0.17376 0.159415 0.174353 0.160032 0.143729 0.144359 0.174107 0.159759 0.17424 0.144065
          0.159894 0.144206 0.131017 0.120203 0.112457 0.102512 0.125651 0.107407 0.0934262 0.0846559 0.0714899 0.0887953
          0.128335 0.109947 0.0911686 0.0674811 0.0694178 0.0644098 0.0510914 0.046049 0.0478499 0.0241022 0.023095 0.00538768
          0.00887535 0.0220866 0.00351324 0.0496784 0.0223882 0.00537335 0.127026 0.108644 0.127651 0.109242 0.0899264 0.0681773
          0.0905015 0.0686193 0.127335 0.108913 0.127467 0.109046 0.0901646 0.0682533 0.0902769 0.0487149 0.049252 0.0212025
          0.00515802 0.0210595 0.00636713 0.0489807 0.0683448 0.0491026 0.0205667 0.00655618 0.0204504 0.00709502 0.209869 0.199228
          0.187346 0.209897 0.209908 0.199259 0.187378 0.199267 0.187381 0.174198 0.159839 0.144144 0.174232 0.15987
          0.174233 0.159863 0.14418 0.144176 0.209923 0.209936 0.199283 0.187396 0.199295 0.187406 0.209949 0.19931
          0.18742 0.174249 0.159875 0.174261 0.144195 0.159882 0.144209 0.174277 0.159894 0.14423 0.127387 0.10897
          0.0901713 0.0682604 0.127409 0.109008 0.127388 0.109006 0.0901735 0.0683084 0.0901271 0.0683342 0.0489957 0.0203205
          0.00719935 0.0489734 0.0488791 0.0203559 0.00729019 0.0204511 0.00715936 0.127392 0.109037 0.127389 0.109066 0.0901067
          0.0684077 0.0900772 0.127395 0.109106 0.090055 0.068491 0.0685979 0.0487912 0.0486737 0.0206428 0.00692852 0.0208993
          0.00655401 0.0485464 0.0212228 0.00607604 0.209963 0.209977 0.199325 0.187434 0.19934 0.18745 0.209993 0.210008
          0.199357 0.187468 0.199375 0.187486 0.174295 0.159908 0.174314 0.159924 0.144254 0.144282 0.174335 0.159943
          0.174357 0.144312 0.159964 0.144345 0.210024 0.199393 0.187505 0.210041 0.210057 0.199412 0.187526 0.19943
          0.187546 0.174381 0.159987 0.144379 0.174406 0.160011 0.174431 0.160036 0.144415 0.144452 0.127402 0.109152
          0.127414 0.109204 0.0900326 0.068718 0.0900136 0.0688523 0.127429 0.10926 0.127446 0.10932 0.0899966 0.0689966
          0.0899825 0.0484031 0.0482502 0.0215996 0.0054941 0.0220241 0.00482804 0.0480884 0.0691494 0.0479213 0.0224871 0.00408829
          0.0229812 0.00329011 0.127467 0.109383 0.0899713 0.0693078 0.127489 0.109448 0.127514 0.109515 0.0899633 0.0694699
          0.0899588 0.069633 0.0477513 0.0234983 0.00244676 0.0475815 0.0474148 0.0240307 0.00157273 0.0245706 0.000682189 0.210073
          0.210089 0.199449 0.187567 0.199467 0.187587 0.210103 0.199483 0.187606 0.174456 0.160062 0.174481 0.144489
          0.160088 0.144526 0.174504 0.160113 0.144561 0.210115 0.210124 0.199497 0.187623 0.199509 0.187637 0.210131
          0.219505 0.210132 0.199516 0.187647 0.199519 0.187652 0.174525 0.160136 0.174542 0.160157 0.144594 0.144623
          0.174556 0.160175 0.174563 0.144647 0.160188 0.144665 0.127541 0.109581 0.127569 0.109645 0.089958 0.0697951
          0.0899612 0.127597 0.109708 0.0899685 0.0699537 0.0701065 0.0472543 0.0471029 0.0251102 -0.000210289 0.0256419 -0.00109007
          0.0469639 0.0261577 -0.00194232 0.127626 0.109767 0.127654 0.109821 0.0899801 0.0702511 0.089996 0.0703849 0.12768
          0.109869 0.127703 0.109909 0.0900161 0.0705053 0.09004 0.0468404 0.0467355 0.0266501 -0.00275204 0.0271111 -0.00350409
          0.0466521 0.0706095 0.0465934 0.0275329 -0.00418313 0.0279075 -0.00477369 0.00718583 0.0218157 0.00771606 0.0495471 0.0692551
          0.00812472 0.0215726 0.0496806 0.0213677 0.00837485 0.0497671 0.0691828 0.0691043 0.0907811 0.109706 0.127982 0.144758
          0.0908241 0.109692 0.0908453 0.109666 0.128001 0.144764 0.128008 0.14476 0.0212514 0.0084959 0.0498399 0.0211381
          0.0690579 0.0498164 0.0689667 0.00838197 0.021213 0.00819347 0.049849 0.0689909 0.0908788 0.109661 0.0908489 0.109607
          0.128031 0.144773 0.128005 0.0909101 0.109655 0.128073 0.144744 0.144808 0.160394 0.17474 0.187855 0.16041
          0.160417 0.174754 0.187871 0.17476 0.187882 0.199714 0.210326 0.219688 0.19973 0.210342 0.199742 0.210356
          0.219702 0.219717 0.16044 0.160424 0.174781 0.187905 0.174768 0.1879 0.160494 0.174833 0.187962 0.199763
          0.210376 0.199762 0.219735 0.21038 0.219743 0.199818 0.210428 0.219782 0.0075635 0.0211235 0.0496145 0.0215601
          0.00713056 0.0497339 0.0688056 0.0690686 0.0212163 0.00561241 0.0489715 0.022529 0.0684724 0.0496617 0.0695985 0.0907385
          0.109488 0.0909964 0.109772 0.127929 0.144672 0.128226 0.144968 0.0903388 0.109138 0.0914632 0.110395 0.127599
          0.144362 0.128886 0.0052357 0.0210537 0.00172755 0.0474177 0.067463 0.00157788 0.0249168 0.0500596 0.0192641 -0.00867508
          0.0442482 0.0716283 0.0642643 0.0890504 0.107887 0.126283 0.145669 0.143036 0.093438 0.112955 0.0851053 0.103271
          0.131572 0.148563 0.121207 0.137542 0.160377 0.160668 0.174729 0.187875 0.175005 0.188131 0.160092 0.161378
          0.174464 0.187635 0.175704 0.188803 0.199746 0.210373 0.199975 0.210571 0.219742 0.219905 0.19953 0.210185
          0.200604 0.219582 0.211146 0.220414 0.158767 0.173164 0.186383 0.164317 0.153063 0.178656 0.191686 0.167347
          0.180602 0.198346 0.209088 0.21859 0.203369 0.213737 0.192708 0.203707 0.222788 0.21356 0.227799 0.234659
          0.240269 0.244628 0.227812 0.234671 0.227827 0.234686 0.24028 0.244637 0.240294 0.24465 0.247737 0.249596
          0.250204 0.247743 0.247756 0.2496 0.250206 0.24961 0.250215 0.227842 0.234698 0.227854 0.234712 0.240302
          0.244654 0.240318 0.227883 0.23473 0.240325 0.244672 0.244667 0.247755 0.247774 0.249605 0.250205 0.249625
          0.250225 0.247757 0.249595 0.250183 0.249563 0.247672 0.244533 0.249562 0.247669 0.249569 0.247674 0.244528
          0.24453 0.240146 0.234511 0.22763 0.219503 0.240138 0.234502 0.240138 0.234499 0.227619 0.219491 0.227613
          0.219483 0.249554 0.247655 0.249574 0.244507 0.247673 0.244523 0.249521 0.24761 0.244449 0.240111 0.234468
          0.240124 0.234478 0.22758 0.219447 0.227585 0.240042 0.234388 0.227488 0.219447 0.219345 0.227859 0.234722
          0.227985 0.234808 0.240333 0.24469 0.240376 0.244691 0.227729 0.234623 0.228418 0.235159 0.240264 0.244653
          0.240639 0.247794 0.247752 0.249646 0.250246 0.249562 0.250121 0.247789 0.244861 0.247828 0.249672 0.250302
          0.249541 0.250002 0.226858 0.233886 0.239672 0.244214 0.230536 0.236987 0.222267 0.229807 0.242149 0.246029
          0.236172 0.241345 0.247509 0.249554 0.250345 0.248637 0.245313 0.249979 0.250064 0.248062 0.249577 0.249595
          0.247692 0.24943 0.24749 0.244538 0.244302 0.249677 0.247799 0.249215 0.244667 0.247181 0.243903 0.240134
          0.234481 0.239868 0.234189 0.22758 0.219432 0.227266 0.219101 0.24028 0.234639 0.239384 0.233625 0.227744
          0.219595 0.226629 0.249881 0.248157 0.245171 0.2489 0.246493 0.249845 0.248849 0.242852 0.246577 0.240919
          0.235399 0.228607 0.2184 0.220541 0.237984 0.231898 0.243011 0.238138 0.224601 0.216102 0.231942 0.224408
          0.21013 0.199517 0.187652 0.210118 0.210108 0.199505 0.187643 0.199492 0.18763 0.174565 0.160195 0.144675
          0.174557 0.160193 0.174542 0.160184 0.144675 0.144664 0.21007 0.210065 0.199453 0.187593 0.199442 0.187576
          0.20996 0.199335 0.18747 0.174505 0.160154 0.174481 0.144633 0.16013 0.144599 0.174376 0.160035 0.144505
          0.127722 0.109938 0.0900671 0.0706943 0.127735 0.109955 0.12774 0.109956 0.0900963 0.0707561 0.090126 0.0707912
          0.0465621 0.0282266 -0.0052601 0.0465606 0.0465913 0.028482 -0.00562654 0.0286649 -0.00585702 0.127729 0.109936 0.127713
          0.109898 0.0901527 0.0707941 0.0901756 0.127649 0.109816 0.0901777 0.0707606 0.0706789 0.0466551 0.0467527 0.028766
          -0.00593548 0.0287753 -0.00584584 0.0468802 0.0286812 -0.00557263 0.210038 0.209696 0.1994 0.18752 0.199055 0.187178
          0.210192 0.20894 0.199538 0.187633 0.198253 0.186343 0.174405 0.160047 0.174073 0.159736 0.144485 0.144193
          0.174482 0.160084 0.173215 0.144457 0.158874 0.14333 0.211197 0.200574 0.188668 0.206408 0.215519 0.195527
          0.183469 0.20526 0.193616 0.175479 0.161006 0.145254 0.170243 0.155859 0.180569 0.166105 0.140328 0.150207
          0.12763 0.109744 0.127391 0.109505 0.0901825 0.0705549 0.0900763 0.0703293 0.127577 0.109558 0.126579 0.108679
          0.0901299 0.0701428 0.0894918 0.0470368 0.0471897 0.0284727 -0.00510114 0.0281282 -0.00442215 0.0473758 0.0695038 0.0473191
          0.027653 -0.00353074 0.0269407 -0.00246026 0.128222 0.109944 0.0903845 0.0698138 0.123661 0.105881 0.13286 0.114056
          0.0869812 0.0670663 0.0937899 0.0720946 0.047632 0.0262816 -0.00124175 0.0458568 0.0490038 0.0244969 -0.000347726 0.0249724
          0.000154098
        </DataArray>
        <DataArray type="Float32" Name="rho" NumberOfComponents="1" format="ascii">
          1 1 1 1 1 1 1 1 1 1 1 1
          1 1 1 1 1 1 1 1 1 1 1 1
          1 1 1 1 1 1 1 1 1 1 1 1
          1 1 1 1 1 1 1 1 1 1 1 1
          1 1 1 1 1 1 1 1 1 1 1 1
          1 1 1 1 1 1 1 1 1 1 1 1
          1 1 1 1 1 1 1 1 1 1 1 1
          1 1 1 1 1 1 1 1 1 1 1 1
          1 1 1 1 1 1 1 1 1 1 1 1
          1 1 1 1 1 1 1 1 1 1 1 1
          1 1 1 1 1 1 1 1 1 1 1 1
          1 1 1 1 1 1 1 1 1 1 1 1
          1 1 1 1 1 1 1 1 1 1 1 1
          1 1 1 1 1 1 1 1 1 1 1 1
          1 1 1 1 1 1 1 1 1 1 1 1
          1 1 1 1 1 1 1 1 1 1 1 1
          1 1 1 1 1 1 1 1 1 1 1 1
          1 1 1 1 1 1 1 1 1 1 1 1
          1 1 1 1 1 1 1 1 1 1 1 1
          1 1 1 1 1 1 1 1 1 1 1 1
          1 1 1 1 1 1 1 1 1 1 1 1
          1 1 1 1 1 1 1 1 1 1 1 1
          1 1 1 1 1 1 1 1 1 1 1 1
          1 1 1 1 1 1 1 1 1 1 1 1
          1 1 1 1 1 1 1 1 1 1 1 1
          1 1 1 1 1 1 1 1 1 1 1 1
          1 1 1 1 1 1 1 1 1 1 1 1
          1 1 1 1 1 1 1 1 1 1 1 1
          1 1 1 1 1 1 1 1 1 1 1 1
          1 1 1 1 1 1 1 1 1 1 1 1
          1 1 1 1 1 1 1 1 1 1 1 1
          1 1 1 1 1 1 1 1 1 1 1 1
          1 1 1 1 1 1 1 1 1 1 1 1
          1 1 1 1 1 1 1 1 1 1 1 1
          1 1 1 1 1 1 1 1 1 1 1 1
          1 1 1 1 1 1 1 1 1 1 1 1
          1 1 1 1 1 1 1 1 1 1 1 1
          1 1 1 1 1 1 1 1 1 1 1 1
          1 1 1 1 1 1 1 1 1 1 1 1
          1 1 1 1 1 1 1 1 1 1 1 1
          1 1 1 1 1 1 1 1 1 1 1 1
          1 1 1 1 1 1 1 1 1 1 1 1
          1 1 1 1 1 1 1 1 1 1 1 1
          1 1 1 1 1 1 1 1 1 1 1 1
          1 1 1 1 1 1 1 1 1 1 1 1
          1 1 1 1 1 1 1 1 1 1 1 1
          1 1 1 1 1 1 1 1 1 1 1 1
          1 1 1 1 1 1 1 1 1 1 1 1
          1 1 1 1 1 1 1 1 1 1 1 1
          1 1 1 1 1 1 1 1 1 1 1 1
          1 1 1 1 1 1 1 1 1 1 1 1
          1 1 1 1 1 1 1 1 1 1 1 1
          1 1 1 1 1 1 1 1 1 1 1 1
          1 1 1 1 1 1 1 1 1 1 1 1
          1 1 1 1 1 1 1 1 1 1 1 1
          1 1 1 1 1 1 1 1 1 1 1 1
          1 1 1 1 1 1 1 1 1 1 1 1
          1 1 1 1 1 1 1 1 1 1 1 1
          1 1 1 1 1 1 1 1 1 1 1 1
          1 1 1 1 1 1 1 1 1 1 1 1
          1 1 1 1 1 1 1 1 1 1 1 1
          1 1 1 1 1 1 1 1 1 1 1 1
          1 1 1 1 1 1 1 1 1 1 1 1
          1 1 1 1 1 1 1 1 1 1 1 1
          1 1 1 1 1 1 1 1 1 1 1 1
          1 1 1 1 1 1 1 1 1 1 1 1
          1 1 1 1 1 1 1 1 1 1 1 1
          1 1 1 1 1 1 1 1 1 1 1 1
          1 1 1 1 1 1 1 1 1 1 1 1
          1 1 1 1 1 1 1 1 1 1 1 1
          1 1 1 1 1 1 1 1 1 1 1 1
          1 1 1 1 1 1 1 1 1 1 1 1
          1 1 1 1 1 1 1 1 1 1 1 1
          1 1 1 1 1 1 1 1 1 1 1 1
          1 1 1 1 1 1 1 1 1 1 1 1
          1 1 1 1 1 1 1 1 1 1 1 1
          1 1 1 1 1 1 1 1 1 1 1 1
          1 1 1 1 1 1 1 1 1 1 1 1
          1 1 1 1 1 1 1 1 1 1 1 1
          1 1 1 1 1 1 1 1 1 1 1 1
          1 1 1 1 1 1 1 1 1 1 1 1
          1 1 1 1 1 1 1 1 1 1 1 1
          1 1 1 1 1 1 1 1 1 1 1 1
          1 1 1 1 1 1 1 1 1 1 1 1
          1 1 1 1 1 1 1 1 1 1 1 1
          1 1 1 1 1 1 1 1 1 1 1 1
          1 1 1 1 1 1 1 1 1 1 1 1
          1 1 1 1 1 1 1 1 1 1 1 1
          1 1 1 1 1 1 1 1 1 1 1 1
          1 1 1 1 1 1 1 1 1 1 1 1
          1 1 1 1 1 1 1 1 1 1 1 1
          1 1 1 1 1 1 1 1 1 1 1 1
          1 1 1 1 1 1 1 1 1 1 1 1
          1 1 1 1 1 1 1 1 1 1 1 1
          1 1 1 1 1 1 1 1 1 1 1 1
          1 1 1 1 1 1 1 1 1 1 1 1
          1 1 1 1 1 1 1 1 1 1 1 1
          1 1 1 1 1 1 1 1 1 1 1 1
          1 1 1 1 1 1 1 1 1 1 1 1
          1 1 1 1 1 1 1 1 1 1 1 1
          1 1 1 1 1 1 1 1 1 1 1 1
          1 1 1 1 1 1 1 1 1 1 1 1
          1 1 1 1 1 1 1 1 1 1 1 1
          1 1 1 1 1 1 1 1 1 1 1 1
          1 1 1 1 1 1 1 1 1 1 1 1
          1 1 1 1 1 1 1 1 1 1 1 1
          1 1 1 1 1 1 1 1 1 1 1 1
          1 1 1 1 1 1 1 1 1 1 1 1
          1 1 1 1 1 1 1 1 1 1 1 1
          1 1 1 1 1 1 1 1 1 1 1 1
          1 1 1 1 1 1 1 1 1 1 1 1
          1 1 1 1 1 1 1 1 1 1 1 1
          1 1 1 1 1 1 1 1 1 1 1 1
          1 1 1 1 1 1 1 1 1 1 1 1
          1 1 1 1 1 1 1 1 1 1 1 1
          1 1 1 1 1 1 1 1 1 1 1 1
          1 1 1 1 1 1 1 1 1 1 1 1
          1 1 1 1 1 1 1 1 1 1 1 1
          1 1 1 1 1 1 1 1 1 1 1 1
          1 1 1 1 1 1 1 1 1 1 1 1
          1 1 1 1 1 1 1 1 1 1 1 1
          1 1 1 1 1 1 1 1 1 1 1 1
          1 1 1 1 1 1 1 1 1 1 1 1
          1 1 1 1 1 1 1 1 1 1 1 1
          1 1 1 1 1 1 1 1 1 1 1 1
          1 1 1 1 1 1 1 1 1 1 1 1
          1 1 1 1 1 1 1 1 1 1 1 1
          1 1 1 1 1 1 1 1 1 1 1 1
          1 1 1 1 1 1 1 1 1 1 1 1
          1 1 1 1 1 1 1 1 1 1 1 1
          1 1 1 1 1 1 1 1 1 1 1 1
          1 1 1 1 1 1 1 1 1 1 1 1
          1 1 1 1 1 1 1 1 1 1 1 1
          1 1 1 1 1 1 1 1 1 1 1 1
          1 1 1 1 1 1 1 1 1 1 1 1
          1 1 1 1 1 1 1 1 1 1 1 1
          1 1 1 1 1 1 1 1 1 1 1 1
          1 1 1 1 1 1 1 1 1 1 1 1
          1 1 1 1 1 1 1 1 1 1 1 1
          1 1 1 1 1 1 1 1 1 1 1 1
          1
        </DataArray>
        <DataArray type="Float32" Name="pressureExact" NumberOfComponents="1" format="ascii">
          0.024375 0.024375 0 0 0.0475 0.024375 0.0475 0.069375 0.069375 0.0475 0.069375 0
          0.024375 0 0.0475 0.069375 0.09 0.09 0.109375 0.109375 0.09 0.109375 0.1275 0.1275
          0.144375 0.1275 0.09 0.109375 0.1275 0.144375 0.144375 0 0.024375 0.0475 0.024375 0
          0.0475 0.069375 0.069375 0.024375 0 0.0475 0.024375 0.069375 0.0475 0.069375 0.09 0.109375
          0.09 0.109375 0.1275 0.144375 0.1275 0.144375 0.09 0.109375 0.09 0.109375 0.1275 0.144375
          0.1275 0.144375 0.16 0.16 0.16 0.174375 0.174375 0.1875 0.1875 0.174375 0.1875 0.16
          0.174375 0.1875 0.199375 0.199375 0.21 0.199375 0.21 0.219375 0.219375 0.21 0.219375 0.199375
          0.21 0.219375 0.16 0.16 0.174375 0.1875 0.174375 0.1875 0.16 0.144375 0.16 0.174375
          0.1875 0.174375 0.1875 0.199375 0.21 0.199375 0.21 0.219375 0.219375 0.199375 0.21 0.199375
          0.219375 0.21 0.219375 0 0.024375 0 0.0475 0.069375 0 0.024375 0.0475 0.024375
          0 0.0475 0.069375 0.069375 0.09 0.109375 0.1275 0.144375 0.09 0.109375 0.09 0.109375
          0.1275 0.144375 0.1275 0.144375 0.024375 0 0.0475 0.024375 0.069375 0.0475 0.069375 0
          0.024375 0 0.0475 0.069375 0.09 0.109375 0.09 0.109375 0.1275 0.144375 0.1275 0.09
          0.109375 0.1275 0.144375 0.144375 0.16 0.174375 0.1875 0.16 0.16 0.174375 0.1875 0.174375
          0.1875 0.199375 0.21 0.219375 0.199375 0.21 0.199375 0.21 0.219375 0.219375 0.16 0.16
          0.174375 0.1875 0.174375 0.1875 0.16 0.174375 0.1875 0.199375 0.21 0.199375 0.219375 0.21
          0.219375 0.199375 0.21 0.219375 0.2275 0.2275 0.234375 0.234375 0.2275 0.234375 0.24 0.24
          0.244375 0.24 0.2275 0.234375 0.24 0.244375 0.244375 0.244375 0.2475 0.2475 0.2475 0.249375
          0.249375 0.25 0.25 0.249375 0.25 0.2475 0.249375 0.25 0.2275 0.234375 0.2275 0.234375
          0.24 0.244375 0.24 0.244375 0.2275 0.234375 0.2275 0.234375 0.24 0.244375 0.24 0.2475
          0.2475 0.249375 0.25 0.249375 0.25 0.2475 0.244375 0.2475 0.249375 0.25 0.249375 0.25
          0.249375 0.249375 0.2475 0.249375 0.2475 0.244375 0.244375 0.2475 0.244375 0.249375 0.2475 0.244375
          0.24 0.24 0.234375 0.234375 0.24 0.234375 0.2275 0.2275 0.219375 0.2275 0.24 0.234375
          0.2275 0.219375 0.219375 0.249375 0.2475 0.249375 0.2475 0.244375 0.244375 0.249375 0.2475 0.249375
          0.244375 0.2475 0.244375 0.24 0.234375 0.24 0.234375 0.2275 0.219375 0.2275 0.219375 0.24
          0.234375 0.24 0.234375 0.2275 0.219375 0.2275 0.2275 0.234375 0.24 0.244375 0.2275 0.234375
          0.2275 0.234375 0.24 0.244375 0.24 0.244375 0.2475 0.249375 0.25 0.2475 0.2475 0.249375
          0.25 0.249375 0.25 0.2275 0.234375 0.2275 0.234375 0.24 0.244375 0.24 0.2275 0.234375
          0.24 0.244375 0.244375 0.2475 0.2475 0.249375 0.25 0.249375 0.25 0.2475 0.249375 0.25
          0.249375 0.2475 0.244375 0.249375 0.2475 0.249375 0.2475 0.244375 0.244375 0.24 0.234375 0.2275
          0.219375 0.219375 0.24 0.234375 0.24 0.234375 0.2275 0.219375 0.2275 0.219375 0.249375 0.2475
          0.249375 0.244375 0.2475 0.244375 0.249375 0.2475 0.244375 0.24 0.234375 0.24 0.234375 0.2275
          0.219375 0.2275 0.24 0.234375 0.2275 0.219375 0.219375 0 0.024375 0.0475 0.024375 0
          0.0475 0.069375 0.069375 0.024375 0 0.0475 0.024375 0.069375 0.0475 0.069375 0.09 0.109375
          0.09 0.109375 0.1275 0.144375 0.1275 0.144375 0.09 0.109375 0.09 0.109375 0.1275 0.144375
          0.1275 0 0.024375 0 0.0475 0.069375 0 0.024375 0.0475 0.024375 0 0.0475
          0.069375 0.069375 0.09 0.109375 0.1275 0.144375 0.144375 0.09 0.109375 0.09 0.109375 0.1275
          0.144375 0.1275 0.144375 0.16 0.16 0.174375 0.1875 0.174375 0.1875 0.16 0.16 0.174375
          0.1875 0.174375 0.1875 0.199375 0.21 0.199375 0.21 0.219375 0.219375 0.199375 0.21 0.199375
          0.219375 0.21 0.219375 0.16 0.174375 0.1875 0.16 0.16 0.174375 0.1875 0.174375 0.1875
          0.199375 0.21 0.219375 0.199375 0.21 0.199375 0.21 0.219375 0.219375 0.024375 0 0.0475
          0.024375 0.069375 0.0475 0.069375 0 0.024375 0 0.0475 0.069375 0.09 0.109375 0.09
          0.109375 0.1275 0.144375 0.1275 0.09 0.109375 0.1275 0.144375 0.144375 0 0.024375 0.0475
          0.024375 0 0.0475 0.069375 0.069375 0.024375 0 0.0475 0.024375 0.069375 0.0475 0.069375
          0.09 0.109375 0.09 0.109375 0.1275 0.144375 0.1275 0.144375 0.09 0.109375 0.09 0.109375
          0.1275 0.144375 0.1275 0.16 0.16 0.174375 0.1875 0.174375 0.1875 0.16 0.174375 0.1875
          0.199375 0.21 0.199375 0.219375 0.21 0.219375 0.199375 0.21 0.219375 0.16 0.16 0.174375
          0.1875 0.174375 0.1875 0.16 0.144375 0.16 0.174375 0.1875 0.174375 0.1875 0.199375 0.21
          0.199375 0.21 0.219375 0.219375 0.199375 0.21 0.199375 0.219375 0.21 0.219375 0.2275 0.234375
          0.2275 0.234375 0.24 0.244375 0.24 0.244375 0.2275 0.234375 0.2275 0.234375 0.24 0.244375
          0.24 0.2475 0.2475 0.249375 0.25 0.249375 0.25 0.2475 0.244375 0.2475 0.249375 0.25
          0.249375 0.25 0.2275 0.234375 0.24 0.244375 0.2275 0.234375 0.2275 0.234375 0.24 0.244375
          0.24 0.244375 0.2475 0.249375 0.25 0.2475 0.2475 0.249375 0.25 0.249375 0.25 0.249375
          0.2475 0.249375 0.2475 0.244375 0.244375 0.249375 0.2475 0.249375 0.244375 0.2475 0.244375 0.24
          0.234375 0.24 0.234375 0.2275 0.219375 0.2275 0.219375 0.24 0.234375 0.24 0.234375 0.2275
          0.219375 0.2275 0.249375 0.2475 0.244375 0.249375 0.2475 0.249375 0.2475 0.244375 0.244375 0.24
          0.234375 0.2275 0.219375 0.219375 0.24 0.234375 0.24 0.234375 0.2275 0.219375 0.2275 0.219375
          0.2275 0.234375 0.2275 0.234375 0.24 0.244375 0.24 0.2275 0.234375 0.24 0.244375 0.244375
          0.2475 0.2475 0.249375 0.25 0.249375 0.25 0.2475 0.249375 0.25 0.2275 0.234375 0.2275
          0.234375 0.24 0.244375 0.24 0.244375 0.2275 0.234375 0.2275 0.234375 0.24 0.244375 0.24
          0.2475 0.2475 0.249375 0.25 0.249375 0.25 0.2475 0.244375 0.2475 0.249375 0.25 0.249375
          0.25 0.249375 0.2475 0.249375 0.244375 0.2475 0.244375 0.249375 0.2475 0.244375 0.24 0.234375
          0.24 0.234375 0.2275 0.219375 0.2275 0.24 0.234375 0.2275 0.219375 0.219375 0.249375 0.2475
          0.249375 0.2475 0.244375 0.244375 0.249375 0.2475 0.249375 0.244375 0.2475 0.244375 0.24 0.234375
          0.24 0.234375 0.2275 0.219375 0.2275 0.219375 0.24 0.234375 0.24 0.234375 0.2275 0.219375
          0.2275 0.219375 0.21 0.21 0.21 0.199375 0.199375 0.1875 0.1875 0.199375 0.1875 0.21
          0.199375 0.1875 0.174375 0.174375 0.16 0.174375 0.16 0.144375 0.144375 0.16 0.144375 0.174375
          0.16 0.144375 0.21 0.21 0.199375 0.1875 0.199375 0.1875 0.21 0.21 0.199375 0.1875
          0.199375 0.1875 0.174375 0.16 0.174375 0.16 0.144375 0.144375 0.174375 0.16 0.174375 0.144375
          0.16 0.144375 0.1275 0.1275 0.109375 0.109375 0.1275 0.109375 0.09 0.09 0.069375 0.09
          0.1275 0.109375 0.09 0.069375 0.069375 0.069375 0.0475 0.0475 0.0475 0.024375 0.024375 0
          0 0.024375 0 0.0475 0.024375 0 0.1275 0.109375 0.1275 0.109375 0.09 0.069375
          0.09 0.069375 0.1275 0.109375 0.1275 0.109375 0.09 0.069375 0.09 0.0475 0.0475 0.024375
          0 0.024375 0 0.0475 0.069375 0.0475 0.024375 0 0.024375 0 0.21 0.199375
          0.1875 0.21 0.21 0.199375 0.1875 0.199375 0.1875 0.174375 0.16 0.144375 0.174375 0.16
          0.174375 0.16 0.144375 0.144375 0.21 0.21 0.199375 0.1875 0.199375 0.1875 0.21 0.199375
          0.1875 0.174375 0.16 0.174375 0.144375 0.16 0.144375 0.174375 0.16 0.144375 0.1275 0.109375
          0.09 0.069375 0.1275 0.109375 0.1275 0.109375 0.09 0.069375 0.09 0.069375 0.0475 0.024375
          0 0.0475 0.0475 0.024375 0 0.024375 0 0.1275 0.109375 0.1275 0.109375 0.09