<?xml version="1.0"?>
<VTKFile type="UnstructuredGrid" version="0.1" byte_order="LittleEndian">
  <UnstructuredGrid>
    <Piece NumberOfCells="512" NumberOfPoints="729">
      <CellData Scalars="wetting potential" Vectors="wetting-velocity">
        <DataArray type="Float32" Name="wetting potential" NumberOfComponents="1" format="ascii">
          1.25197 1.17649 1.16186 1.19004 1.21032 1.17174 1.15818 1.17746 1.14585 1.12722 1.12425 1.14045
          1.14579 1.12823 1.12461 1.1398 1.13268 1.11894 1.11417 1.12308 1.13163 1.11876 1.11375 1.12169
          1.16085 1.14743 1.13479 1.1428 1.15493 1.14453 1.13235 1.13894 1.18451 1.1634 1.15143 1.1638
          1.16735 1.15468 1.14362 1.15186 1.14343 1.12776 1.12321 1.13685 1.13953 1.12578 1.11995 1.13214
          1.12826 1.11701 1.11276 1.11856 1.12242 1.11461 1.11167 1.11432 1.14647 1.13896 1.12727 1.13264
          1.13736 1.13194 1.12026 1.12433 1.11808 1.11455 1.11365 1.11609 1.11861 1.1145 1.11352 1.1161
          1.11357 1.11319 1.11267 1.11299 1.11342 1.11299 1.1124 1.11277 1.11208 1.11182 1.11079 1.11101
          1.11176 1.11146 1.11029 1.11056 1.11344 1.1126 1.11146 1.11212 1.11328 1.11236 1.11109 1.11187
          1.11819 1.11412 1.11311 1.11523 1.1168 1.11355 1.1125 1.11411 1.11306 1.11259 1.11189 1.11229
          1.11254 1.11204 1.11117 1.11162 1.11112 1.11077 1.10934 1.10965 1.1102 1.1098 1.10792 1.10832
          1.11275 1.11179 1.11027 1.11117 1.11208 1.11097 1.10908 1.11013 1.1295 1.12294 1.11521 1.11868
          1.12597 1.12057 1.11396 1.11628 1.11568 1.11205 1.11076 1.11261 1.11453 1.11171 1.11024 1.11205
          1.1114 1.10982 1.10931 1.11078 1.11073 1.10912 1.10843 1.11001 1.11374 1.11289 1.1121 1.11285
          1.11292 1.11215 1.11133 1.11206 1.12038 1.1168 1.11234 1.11335 1.11453 1.11285 1.11075 1.11154
          1.11282 1.11079 1.10906 1.11084 1.11132 1.1095 1.10741 1.10931 1.10939 1.10759 1.10655 1.10846
          1.10767 1.10549 1.10396 1.1065 1.11158 1.11081 1.10991 1.11069 1.11004 1.10923 1.10824 1.10911
          1.11087 1.11029 1.10923 1.10974 1.11043 1.10973 1.10843 1.10909 1.1099 1.1097 1.10869 1.10887
          1.10925 1.10901 1.10773 1.10797 1.10807 1.10789 1.10743 1.1076 1.10685 1.1066 1.10578 1.10605
          1.10888 1.1084 1.10793 1.1084 1.10799 1.10733 1.10657 1.10726 1.10942 1.10856 1.10677 1.10768
          1.10796 1.10682 1.10418 1.10562 1.10795 1.10763 1.10574 1.10609 1.10595 1.10548 1.10239 1.10303
          1.10421 1.10377 1.10194 1.10253 1.09955 1.09854 1.09415 1.09585 1.10607 1.10502 1.10356 1.10482
          1.10322 1.10126 1.09843 1.1011 1.14547 1.1398 1.13179 1.13619 1.12647 1.12379 1.11882 1.12128
          1.13085 1.12047 1.11614 1.12386 1.11888 1.11489 1.11321 1.11528 1.1161 1.1129 1.11064 1.11228
          1.11281 1.11156 1.10974 1.11099 1.12547 1.12192 1.11387 1.11632 1.11519 1.11392 1.11191 1.11234
          1.11531 1.11435 1.11315 1.11358 1.11253 1.11238 1.11192 1.11209 1.11331 1.11247 1.11172 1.11256
          1.11203 1.11154 1.11107 1.11157 1.1114 1.11056 1.10912 1.11004 1.11073 1.11017 1.10898 1.10963
          1.11226 1.11199 1.11068 1.111 1.1113 1.11111 1.11007 1.1103 1.11496 1.11271 1.11156 1.11298
          1.11274 1.11119 1.11023 1.11165 1.11158 1.11102 1.11005 1.11056 1.11007 1.10948 1.10854 1.10913
          1.10895 1.10846 1.10616 1.10672 1.10752 1.10686 1.10426 1.10513 1.11119 1.1099 1.10776 1.10909
          1.11013 1.10869 1.10659 1.10825 1.11128 1.10991 1.10916 1.11056 1.11071 1.10936 1.10873 1.11017
          1.10878 1.10814 1.10726 1.10795 1.10813 1.1074 1.10654 1.10737 1.10636 1.10548 1.10255 1.10386
          1.1058 1.1047 1.10154 1.10328 1.10936 1.10778 1.1058 1.10775 1.10917 1.10749 1.10564 1.10778
          1.11204 1.11134 1.10953 1.11024 1.1107 1.11019 1.10871 1.10928 1.1101 1.10844 1.10628 1.10818
          1.10921 1.10783 1.10594 1.10758 1.10657 1.10425 1.10261 1.10542 1.10623 1.10421 1.10292 1.10532
          1.10891 1.10813 1.10721 1.10807 1.10821 1.10755 1.10683 1.10754 1.10973 1.10935 1.10814 1.10859
          1.10922 1.10895 1.10789 1.10822 1.10861 1.10753 1.10592 1.10725 1.10842 1.10763 1.10626 1.10725
          1.10614 1.1045 1.10353 1.10544 1.10629 1.1051 1.10441 1.10575 1.1077 1.10719 1.10661 1.10718
          1.10743 1.10706 1.10658 1.10699 1.10672 1.10509 1.10181 1.1041 1.10607 1.10389 1.10054 1.10366
          1.10371 1.10293 1.09831 1.09965 1.10176 1.10036 1.09439 1.09705 1.09422 1.09151 1.08176 1.08767
          1.09061 1.08496 1.07051 1.08293 1.10135 1.09791 1.09394 1.09889 1.10122 1.09666 1.09294 1.09921
          1.10583 1.10318 1.09994 1.10372 1.10611 1.10321 1.10025 1.10432 1.1002 1.0979 1.09023 1.09495
          1.09954 1.0963 1.08706 1.09414 1.08761 1.07672 1.05203 1.07868 1.08662 1.06833 1.0203 1.07766
          1.10167 1.09629 1.09303 1.10012 1.10264 1.09707 1.09448 1.10146
        </DataArray>
        <DataArray type="Float32" Name="wetting pressure" NumberOfComponents="1" format="ascii">
          1.25197 1.17649 1.16186 1.19004 1.21032 1.17174 1.15818 1.17746 1.14585 1.12722 1.12425 1.14045
          1.14579 1.12823 1.12461 1.1398 1.13268 1.11894 1.11417 1.12308 1.13163 1.11876 1.11375 1.12169
          1.16085 1.14743 1.13479 1.1428 1.15493 1.14453 1.13235 1.13894 1.18451 1.1634 1.15143 1.1638
          1.16735 1.15468 1.14362 1.15186 1.14343 1.12776 1.12321 1.13685 1.13953 1.12578 1.11995 1.13214
          1.12826 1.11701 1.11276 1.11856 1.12242 1.11461 1.11167 1.11432 1.14647 1.13896 1.12727 1.13264
          1.13736 1.13194 1.12026 1.12433 1.11808 1.11455 1.11365 1.11609 1.11861 1.1145 1.11352 1.1161
          1.11357 1.11319 1.11267 1.11299 1.11342 1.11299 1.1124 1.11277 1.11208 1.11182 1.11079 1.11101
          1.11176 1.11146 1.11029 1.11056 1.11344 1.1126 1.11146 1.11212 1.11328 1.11236 1.11109 1.11187
          1.11819 1.11412 1.11311 1.11523 1.1168 1.11355 1.1125 1.11411 1.11306 1.11259 1.11189 1.11229
          1.11254 1.11204 1.11117 1.11162 1.11112 1.11077 1.10934 1.10965 1.1102 1.1098 1.10792 1.10832
          1.11275 1.11179 1.11027 1.11117 1.11208 1.11097 1.10908 1.11013 1.1295 1.12294 1.11521 1.11868
          1.12597 1.12057 1.11396 1.11628 1.11568 1.11205 1.11076 1.11261 1.11453 1.11171 1.11024 1.11205
          1.1114 1.10982 1.10931 1.11078 1.11073 1.10912 1.10843 1.11001 1.11374 1.11289 1.1121 1.11285
          1.11292 1.11215 1.11133 1.11206 1.12038 1.1168 1.11234 1.11335 1.11453 1.11285 1.11075 1.11154
          1.11282 1.11079 1.10906 1.11084 1.11132 1.1095 1.10741 1.10931 1.10939 1.10759 1.10655 1.10846
          1.10767 1.10549 1.10396 1.1065 1.11158 1.11081 1.10991 1.11069 1.11004 1.10923 1.10824 1.10911
          1.11087 1.11029 1.10923 1.10974 1.11043 1.10973 1.10843 1.10909 1.1099 1.1097 1.10869 1.10887
          1.10925 1.10901 1.10773 1.10797 1.10807 1.10789 1.10743 1.1076 1.10685 1.1066 1.10578 1.10605
          1.10888 1.1084 1.10793 1.1084 1.10799 1.10733 1.10657 1.10726 1.10942 1.10856 1.10677 1.10768
          1.10796 1.10682 1.10418 1.10562 1.10795 1.10763 1.10574 1.10609 1.10595 1.10548 1.10239 1.10303
          1.10421 1.10377 1.10194 1.10253 1.09955 1.09854 1.09415 1.09585 1.10607 1.10502 1.10356 1.10482
          1.10322 1.10126 1.09843 1.1011 1.14547 1.1398 1.13179 1.13619 1.12647 1.12379 1.11882 1.12128
          1.13085 1.12047 1.11614 1.12386 1.11888 1.11489 1.11321 1.11528 1.1161 1.1129 1.11064 1.11228
          1.11281 1.11156 1.10974 1.11099 1.12547 1.12192 1.11387 1.11632 1.11519 1.11392 1.11191 1.11234
          1.11531 1.11435 1.11315 1.11358 1.11253 1.11238 1.11192 1.11209 1.11331 1.11247 1.11172 1.11256
          1.11203 1.11154 1.11107 1.11157 1.1114 1.11056 1.10912 1.11004 1.11073 1.11017 1.10898 1.10963
          1.11226 1.11199 1.11068 1.111 1.1113 1.11111 1.11007 1.1103 1.11496 1.11271 1.11156 1.11298
          1.11274 1.11119 1.11023 1.11165 1.11158 1.11102 1.11005 1.11056 1.11007 1.10948 1.10854 1.10913
          1.10895 1.10846 1.10616 1.10672 1.10752 1.10686 1.10426 1.10513 1.11119 1.1099 1.10776 1.10909
          1.11013 1.10869 1.10659 1.10825 1.11128 1.10991 1.10916 1.11056 1.11071 1.10936 1.10873 1.11017
          1.10878 1.10814 1.10726 1.10795 1.10813 1.1074 1.10654 1.10737 1.10636 1.10548 1.10255 1.10386
          1.1058 1.1047 1.10154 1.10328 1.10936 1.10778 1.1058 1.10775 1.10917 1.10749 1.10564 1.10778
          1.11204 1.11134 1.10953 1.11024 1.1107 1.11019 1.10871 1.10928 1.1101 1.10844 1.10628 1.10818
          1.10921 1.10783 1.10594 1.10758 1.10657 1.10425 1.10261 1.10542 1.10623 1.10421 1.10292 1.10532
          1.10891 1.10813 1.10721 1.10807 1.10821 1.10755 1.10683 1.10754 1.10973 1.10935 1.10814 1.10859
          1.10922 1.10895 1.10789 1.10822 1.10861 1.10753 1.10592 1.10725 1.10842 1.10763 1.10626 1.10725
          1.10614 1.1045 1.10353 1.10544 1.10629 1.1051 1.10441 1.10575 1.1077 1.10719 1.10661 1.10718
          1.10743 1.10706 1.10658 1.10699 1.10672 1.10509 1.10181 1.1041 1.10607 1.10389 1.10054 1.10366
          1.10371 1.10293 1.09831 1.09965 1.10176 1.10036 1.09439 1.09705 1.09422 1.09151 1.08176 1.08767
          1.09061 1.08496 1.07051 1.08293 1.10135 1.09791 1.09394 1.09889 1.10122 1.09666 1.09294 1.09921
          1.10583 1.10318 1.09994 1.10372 1.10611 1.10321 1.10025 1.10432 1.1002 1.0979 1.09023 1.09495
          1.09954 1.0963 1.08706 1.09414 1.08761 1.07672 1.05203 1.07868 1.08662 1.06833 1.0203 1.07766
          1.10167 1.09629 1.09303 1.10012 1.10264 1.09707 1.09448 1.10146
        </DataArray>
        <DataArray type="Float32" Name="nonwetting pressure" NumberOfComponents="1" format="ascii">
          1.25197 1.17649 1.16186 1.19004 1.21032 1.17174 1.15818 1.17746 1.14585 1.12722 1.12425 1.14045
          1.14579 1.12823 1.12461 1.1398 1.13268 1.11894 1.11417 1.12308 1.13163 1.11876 1.11375 1.12169
          1.16085 1.14743 1.13479 1.1428 1.15493 1.14453 1.13235 1.13894 1.18451 1.1634 1.15143 1.1638
          1.16735 1.15468 1.14362 1.15186 1.14343 1.12776 1.12321 1.13685 1.13953 1.12578 1.11995 1.13214
          1.12826 1.11701 1.11276 1.11856 1.12242 1.11461 1.11167 1.11432 1.14647 1.13896 1.12727 1.13264
          1.13736 1.13194 1.12026 1.12433 1.11808 1.11455 1.11365 1.11609 1.11861 1.1145 1.11352 1.1161
          1.11357 1.11319 1.11267 1.11299 1.11342 1.11299 1.1124 1.11277 1.11208 1.11182 1.11079 1.11101
          1.11176 1.11146 1.11029 1.11056 1.11344 1.1126 1.11146 1.11212 1.11328 1.11236 1.11109 1.11187
          1.11819 1.11412 1.11311 1.11523 1.1168 1.11355 1.1125 1.11411 1.11306 1.11259 1.11189 1.11229
          1.11254 1.11204 1.11117 1.11162 1.11112 1.11077 1.10934 1.10965 1.1102 1.1098 1.10792 1.10832
          1.11275 1.11179 1.11027 1.11117 1.11208 1.11097 1.10908 1.11013 1.1295 1.12294 1.11521 1.11868
          1.12597 1.12057 1.11396 1.11628 1.11568 1.11205 1.11076 1.11261 1.11453 1.11171 1.11024 1.11205
          1.1114 1.10982 1.10931 1.11078 1.11073 1.10912 1.10843 1.11001 1.11374 1.11289 1.1121 1.11285
          1.11292 1.11215 1.11133 1.11206 1.12038 1.1168 1.11234 1.11335 1.11453 1.11285 1.11075 1.11154
          1.11282 1.11079 1.10906 1.11084 1.11132 1.1095 1.10741 1.10931 1.10939 1.10759 1.10655 1.10846
          1.10767 1.10549 1.10396 1.1065 1.11158 1.11081 1.10991 1.11069 1.11004 1.10923 1.10824 1.10911
          1.11087 1.11029 1.10923 1.10974 1.11043 1.10973 1.10843 1.10909 1.1099 1.1097 1.10869 1.10887
          1.10925 1.10901 1.10773 1.10797 1.10807 1.10789 1.10743 1.1076 1.10685 1.1066 1.10578 1.10605
          1.10888 1.1084 1.10793 1.1084 1.10799 1.10733 1.10657 1.10726 1.10942 1.10856 1.10677 1.10768
          1.10796 1.10682 1.10418 1.10562 1.10795 1.10763 1.10574 1.10609 1.10595 1.10548 1.10239 1.10303
          1.10421 1.10377 1.10194 1.10253 1.09955 1.09854 1.09415 1.09585 1.10607 1.10502 1.10356 1.10482
          1.10322 1.10126 1.09843 1.1011 1.14547 1.1398 1.13179 1.13619 1.12647 1.12379 1.11882 1.12128
          1.13085 1.12047 1.11614 1.12386 1.11888 1.11489 1.11321 1.11528 1.1161 1.1129 1.11064 1.11228
          1.11281 1.11156 1.10974 1.11099 1.12547 1.12192 1.11387 1.11632 1.11519 1.11392 1.11191 1.11234
          1.11531 1.11435 1.11315 1.11358 1.11253 1.11238 1.11192 1.11209 1.11331 1.11247 1.11172 1.11256
          1.11203 1.11154 1.11107 1.11157 1.1114 1.11056 1.10912 1.11004 1.11073 1.11017 1.10898 1.10963
          1.11226 1.11199 1.11068 1.111 1.1113 1.11111 1.11007 1.1103 1.11496 1.11271 1.11156 1.11298
          1.11274 1.11119 1.11023 1.11165 1.11158 1.11102 1.11005 1.11056 1.11007 1.10948 1.10854 1.10913
          1.10895 1.10846 1.10616 1.10672 1.10752 1.10686 1.10426 1.10513 1.11119 1.1099 1.10776 1.10909
          1.11013 1.10869 1.10659 1.10825 1.11128 1.10991 1.10916 1.11056 1.11071 1.10936 1.10873 1.11017
          1.10878 1.10814 1.10726 1.10795 1.10813 1.1074 1.10654 1.10737 1.10636 1.10548 1.10255 1.10386
          1.1058 1.1047 1.10154 1.10328 1.10936 1.10778 1.1058 1.10775 1.10917 1.10749 1.10564 1.10778
          1.11204 1.11134 1.10953 1.11024 1.1107 1.11019 1.10871 1.10928 1.1101 1.10844 1.10628 1.10818
          1.10921 1.10783 1.10594 1.10758 1.10657 1.10425 1.10261 1.10542 1.10623 1.10421 1.10292 1.10532
          1.10891 1.10813 1.10721 1.10807 1.10821 1.10755 1.10683 1.10754 1.10973 1.10935 1.10814 1.10859
          1.10922 1.10895 1.10789 1.10822 1.10861 1.10753 1.10592 1.10725 1.10842 1.10763 1.10626 1.10725
          1.10614 1.1045 1.10353 1.10544 1.10629 1.1051 1.10441 1.10575 1.1077 1.10719 1.10661 1.10718
          1.10743 1.10706 1.10658 1.10699 1.10672 1.10509 1.10181 1.1041 1.10607 1.10389 1.10054 1.10366
          1.10371 1.10293 1.09831 1.09965 1.10176 1.10036 1.09439 1.09705 1.09422 1.09151 1.08176 1.08767
          1.09061 1.08496 1.07051 1.08293 1.10135 1.09791 1.09394 1.09889 1.10122 1.09666 1.09294 1.09921
          1.10583 1.10318 1.09994 1.10372 1.10611 1.10321 1.10025 1.10432 1.1002 1.0979 1.09023 1.09495
          1.09954 1.0963 1.08706 1.09414 1.08761 1.07672 1.05203 1.07868 1.08662 1.06833 1.0203 1.07766
          1.10167 1.09629 1.09303 1.10012 1.10264 1.09707 1.09448 1.10146
        </DataArray>
        <DataArray type="Float32" Name="nonwetting potential" NumberOfComponents="1" format="ascii">
          1.25197 1.17649 1.16186 1.19004 1.21032 1.17174 1.15818 1.17746 1.14585 1.12722 1.12425 1.14045
          1.14579 1.12823 1.12461 1.1398 1.13268 1.11894 1.11417 1.12308 1.13163 1.11876 1.11375 1.12169
          1.16085 1.14743 1.13479 1.1428 1.15493 1.14453 1.13235 1.13894 1.18451 1.1634 1.15143 1.1638
          1.16735 1.15468 1.14362 1.15186 1.14343 1.12776 1.12321 1.13685 1.13953 1.12578 1.11995 1.13214
          1.12826 1.11701 1.11276 1.11856 1.12242 1.11461 1.11167 1.11432 1.14647 1.13896 1.12727 1.13264
          1.13736 1.13194 1.12026 1.12433 1.11808 1.11455 1.11365 1.11609 1.11861 1.1145 1.11352 1.1161
          1.11357 1.11319 1.11267 1.11299 1.11342 1.11299 1.1124 1.11277 1.11208 1.11182 1.11079 1.11101
          1.11176 1.11146 1.11029 1.11056 1.11344 1.1126 1.11146 1.11212 1.11328 1.11236 1.11109 1.11187
          1.11819 1.11412 1.11311 1.11523 1.1168 1.11355 1.1125 1.11411 1.11306 1.11259 1.11189 1.11229
          1.11254 1.11204 1.11117 1.11162 1.11112 1.11077 1.10934 1.10965 1.1102 1.1098 1.10792 1.10832
          1.11275 1.11179 1.11027 1.11117 1.11208 1.11097 1.10908 1.11013 1.1295 1.12294 1.11521 1.11868
          1.12597 1.12057 1.11396 1.11628 1.11568 1.11205 1.11076 1.11261 1.11453 1.11171 1.11024 1.11205
          1.1114 1.10982 1.10931 1.11078 1.11073 1.10912 1.10843 1.11001 1.11374 1.11289 1.1121 1.11285
          1.11292 1.11215 1.11133 1.11206 1.12038 1.1168 1.11234 1.11335 1.11453 1.11285 1.11075 1.11154
          1.11282 1.11079 1.10906 1.11084 1.11132 1.1095 1.10741 1.10931 1.10939 1.10759 1.10655 1.10846
          1.10767 1.10549 1.10396 1.1065 1.11158 1.11081 1.10991 1.11069 1.11004 1.10923 1.10824 1.10911
          1.11087 1.11029 1.10923 1.10974 1.11043 1.10973 1.10843 1.10909 1.1099 1.1097 1.10869 1.10887
          1.10925 1.10901 1.10773 1.10797 1.10807 1.10789 1.10743 1.1076 1.10685 1.1066 1.10578 1.10605
          1.10888 1.1084 1.10793 1.1084 1.10799 1.10733 1.10657 1.10726 1.10942 1.10856 1.10677 1.10768
          1.10796 1.10682 1.10418 1.10562 1.10795 1.10763 1.10574 1.10609 1.10595 1.10548 1.10239 1.10303
          1.10421 1.10377 1.10194 1.10253 1.09955 1.09854 1.09415 1.09585 1.10607 1.10502 1.10356 1.10482
          1.10322 1.10126 1.09843 1.1011 1.14547 1.1398 1.13179 1.13619 1.12647 1.12379 1.11882 1.12128
          1.13085 1.12047 1.11614 1.12386 1.11888 1.11489 1.11321 1.11528 1.1161 1.1129 1.11064 1.11228
          1.11281 1.11156 1.10974 1.11099 1.12547 1.12192 1.11387 1.11632 1.11519 1.11392 1.11191 1.11234
          1.11531 1.11435 1.11315 1.11358 1.11253 1.11238 1.11192 1.11209 1.11331 1.11247 1.11172 1.11256
          1.11203 1.11154 1.11107 1.11157 1.1114 1.11056 1.10912 1.11004 1.11073 1.11017 1.10898 1.10963
          1.11226 1.11199 1.11068 1.111 1.1113 1.11111 1.11007 1.1103 1.11496 1.11271 1.11156 1.11298
          1.11274 1.11119 1.11023 1.11165 1.11158 1.11102 1.11005 1.11056 1.11007 1.10948 1.10854 1.10913
          1.10895 1.10846 1.10616 1.10672 1.10752 1.10686 1.10426 1.10513 1.11119 1.1099 1.10776 1.10909
          1.11013 1.10869 1.10659 1.10825 1.11128 1.10991 1.10916 1.11056 1.11071 1.10936 1.10873 1.11017
          1.10878 1.10814 1.10726 1.10795 1.10813 1.1074 1.10654 1.10737 1.10636 1.10548 1.10255 1.10386
          1.1058 1.1047 1.10154 1.10328 1.10936 1.10778 1.1058 1.10775 1.10917 1.10749 1.10564 1.10778
          1.11204 1.11134 1.10953 1.11024 1.1107 1.11019 1.10871 1.10928 1.1101 1.10844 1.10628 1.10818
          1.10921 1.10783 1.10594 1.10758 1.10657 1.10425 1.10261 1.10542 1.10623 1.10421 1.10292 1.10532
          1.10891 1.10813 1.10721 1.10807 1.10821 1.10755 1.10683 1.10754 1.10973 1.10935 1.10814 1.10859
          1.10922 1.10895 1.10789 1.10822 1.10861 1.10753 1.10592 1.10725 1.10842 1.10763 1.10626 1.10725
          1.10614 1.1045 1.10353 1.10544 1.10629 1.1051 1.10441 1.10575 1.1077 1.10719 1.10661 1.10718
          1.10743 1.10706 1.10658 1.10699 1.10672 1.10509 1.10181 1.1041 1.10607 1.10389 1.10054 1.10366
          1.10371 1.10293 1.09831 1.09965 1.10176 1.10036 1.09439 1.09705 1.09422 1.09151 1.08176 1.08767
          1.09061 1.08496 1.07051 1.08293 1.10135 1.09791 1.09394 1.09889 1.10122 1.09666 1.09294 1.09921
          1.10583 1.10318 1.09994 1.10372 1.10611 1.10321 1.10025 1.10432 1.1002 1.0979 1.09023 1.09495
          1.09954 1.0963 1.08706 1.09414 1.08761 1.07672 1.05203 1.07868 1.08662 1.06833 1.0203 1.07766
          1.10167 1.09629 1.09303 1.10012 1.10264 1.09707 1.09448 1.10146
        </DataArray>
        <DataArray type="Float32" Name="capillary pressure" NumberOfComponents="1" format="ascii">
          0 0 0 0 0 0 0 0 0 0 0 0
          0 0 0 0 0 0 0 0 0 0 0 0
          0 0 0 0 0 0 0 0 0 0 0 0
          0 0 0 0 0 0 0 0 0 0 0 0
          0 0 0 0 0 0 0 0 0 0 0 0
          0 0 0 0 0 0 0 0 0 0 0 0
          0 0 0 0 0 0 0 0 0 0 0 0
          0 0 0 0 0 0 0 0 0 0 0 0
          0 0 0 0 0 0 0 0 0 0 0 0
          0 0 0 0 0 0 0 0 0 0 0 0
          0 0 0 0 0 0 0 0 0 0 0 0
          0 0 0 0 0 0 0 0 0 0 0 0
          0 0 0 0 0 0 0 0 0 0 0 0
          0 0 0 0 0 0 0 0 0 0 0 0
          0 0 0 0 0 0 0 0 0 0 0 0
          0 0 0 0 0 0 0 0 0 0 0 0
          0 0 0 0 0 0 0 0 0 0 0 0
          0 0 0 0 0 0 0 0 0 0 0 0
          0 0 0 0 0 0 0 0 0 0 0 0
          0 0 0 0 0 0 0 0 0 0 0 0
          0 0 0 0 0 0 0 0 0 0 0 0
          0 0 0 0 0 0 0 0 0 0 0 0
          0 0 0 0 0 0 0 0 0 0 0 0
          0 0 0 0 0 0 0 0 0 0 0 0
          0 0 0 0 0 0 0 0 0 0 0 0
          0 0 0 0 0 0 0 0 0 0 0 0
          0 0 0 0 0 0 0 0 0 0 0 0
          0 0 0 0 0 0 0 0 0 0 0 0
          0 0 0 0 0 0 0 0 0 0 0 0
          0 0 0 0 0 0 0 0 0 0 0 0
          0 0 0 0 0 0 0 0 0 0 0 0
          0 0 0 0 0 0 0 0 0 0 0 0
          0 0 0 0 0 0 0 0 0 0 0 0
          0 0 0 0 0 0 0 0 0 0 0 0
          0 0 0 0 0 0 0 0 0 0 0 0
          0 0 0 0 0 0 0 0 0 0 0 0
          0 0 0 0 0 0 0 0 0 0 0 0
          0 0 0 0 0 0 0 0 0 0 0 0
          0 0 0 0 0 0 0 0 0 0 0 0
          0 0 0 0 0 0 0 0 0 0 0 0
          0 0 0 0 0 0 0 0 0 0 0 0
          0 0 0 0 0 0 0 0 0 0 0 0
          0 0 0 0 0 0 0 0
        </DataArray>
        <DataArray type="Float32" Name="wetting-velocity" NumberOfComponents="3" format="ascii">
          1.58626e-05 1.94195e-05 2.10016e-05 2.17033e-05 3.75218e-06 3.16678e-06 8.47409e-06 6.38953e-06 1.58249e-06 5.25743e-06 2.44604e-05 5.14031e-06
          7.6096e-06 8.5435e-06 3.3107e-05 1.26731e-05 2.96337e-06 6.99905e-06 6.01255e-06 5.18237e-06 3.85911e-06 3.31925e-06 1.248e-05 9.70893e-06
          7.46247e-06 1.03869e-06 7.80493e-07 3.33222e-06 3.58197e-07 2.75878e-07 2.50382e-06 8.05153e-07 2.55742e-07 4.8326e-06 2.17972e-06 5.96578e-07
          6.30083e-06 1.00224e-06 2.1066e-06 3.16363e-06 3.84307e-07 8.15928e-07 2.38603e-06 8.32119e-07 7.56088e-07 4.14207e-06 2.07735e-06 1.65264e-06
          2.94508e-06 2.34621e-06 4.08628e-07 1.52774e-06 8.20848e-07 1.44277e-07 8.72783e-07 3.45865e-07 1.80117e-08 1.94915e-06 1.94552e-06 2.68503e-07
          2.56061e-06 2.18884e-06 1.15327e-06 1.40134e-06 7.98167e-07 3.95486e-07 7.4583e-07 3.20554e-07 4.90802e-08 1.64691e-06 1.82076e-06 6.77732e-07
          2.06688e-06 1.05187e-05 1.68969e-06 3.89921e-06 4.9863e-06 8.32093e-07 2.06459e-06 3.49297e-06 4.68605e-07 9.72219e-07 5.49315e-06 7.53055e-07
          1.50248e-06 7.40591e-06 3.7898e-06 3.05507e-06 4.20256e-06 2.13763e-06 1.67652e-06 2.98001e-06 1.23618e-06 7.48889e-07 4.38315e-06 1.83716e-06
          3.97618e-06 4.01747e-06 1.86824e-05 7.35341e-06 1.97803e-06 7.07839e-06 4.03334e-06 3.62522e-06 4.47441e-06 2.0111e-06 6.56994e-06 8.38055e-06
          2.27741e-06 2.14232e-06 1.10215e-05 4.62361e-06 1.30376e-06 5.90898e-06 2.74846e-06 2.439e-06 4.15166e-06 1.25983e-06 3.76868e-06 6.24535e-06
          4.9657e-06 8.51603e-07 2.84132e-06 2.87842e-06 3.73045e-07 1.2845e-06 2.19179e-06 7.7112e-07 1.15402e-06 3.33888e-06 1.75816e-06 2.30778e-06
          3.87275e-06 6.95217e-07 3.04618e-06 2.56311e-06 3.34678e-07 1.63937e-06 1.82022e-06 6.69789e-07 1.37375e-06 2.62296e-06 1.4379e-06 2.57296e-06
          2.12704e-06 1.75673e-06 1.66553e-06 1.11794e-06 5.37851e-07 4.396e-07 3.67445e-07 1.27699e-07 3.21828e-08 1.00654e-06 1.09501e-06 7.08787e-07
          1.77935e-06 1.47246e-06 1.79168e-06 9.18375e-07 3.37417e-07 2.56059e-07 1.33455e-09 2.10795e-09 7.38294e-10 4.54604e-07 6.59252e-07 4.40335e-07
          1.01473e-06 4.72704e-06 4.05578e-06 2.23617e-06 3.12699e-06 2.67649e-06 1.20008e-06 2.34428e-06 1.5906e-06 5.42863e-07 3.03108e-06 2.17169e-06
          6.59769e-07 3.05625e-06 3.56307e-06 1.60715e-06 2.13984e-06 2.5976e-06 7.42561e-07 1.33326e-06 1.3098e-06 2.94246e-07 2.11355e-06 2.06432e-06
          1.69395e-06 1.49864e-07 1.72437e-07 6.34174e-07 3.51303e-10 1.988e-10 1.58919e-07 3.04486e-10 1.52319e-11 9.91365e-07 2.31397e-07 5.84341e-08
          1.7064e-06 1.63043e-07 4.28596e-07 6.78812e-07 2.60891e-10 4.69112e-10 1.29944e-07 2.26111e-10 3.39264e-11 1.0005e-06 2.23805e-07 1.46368e-07
          6.20202e-10 1.30448e-25 7.59913e-26 1.37121e-25 0 0 0 0 0 2.29828e-14 1.13055e-25 5.65276e-27
          4.75528e-10 2.65386e-26 9.2926e-26 2.88273e-26 0 0 0 0 0 5.07413e-15 2.30001e-26 3.45002e-27
          3.04745e-30 0 0 0 0 0 0 0 0 0 0 0
          5.52056e-33 0 0 0 0 0 0 0 0 0 0 0
          4.09767e-07 8.96181e-08 4.49652e-09 4.80178e-11 2.02366e-14 1.01183e-15 6.35489e-23 3.69329e-30 1.84665e-31 1.86885e-09 4.10148e-11 2.05074e-12
          3.8092e-07 7.28072e-08 1.0942e-08 1.26182e-11 4.36408e-15 6.54613e-16 3.63338e-26 6.53908e-33 9.80862e-34 3.99343e-10 1.05987e-11 1.5898e-12
          1.59911e-06 1.66788e-07 5.74673e-07 6.07348e-07 3.74521e-11 3.06828e-10 2.92433e-08 3.24585e-11 8.11725e-12 9.34283e-07 1.63073e-07 1.27393e-07
          1.33021e-06 5.55031e-08 6.72828e-07 3.78839e-07 6.30304e-13 5.1282e-11 6.15692e-10 5.46264e-13 1.91194e-13 7.84427e-07 4.85145e-08 3.79333e-08
          7.39884e-11 4.55852e-30 2.34829e-26 5.18176e-30 0 0 0 0 0 2.53673e-18 3.95071e-30 9.87678e-31
          1.30682e-12 5.18879e-38 5.54972e-30 5.99047e-38 0 0 0 0 0 6.58635e-26 4.49695e-38 1.57393e-38
          0 0 0 0 0 0 0 0 0 0 0 0
          0 0 0 0 0 0 0 0 0 0 0 0
          1.70498e-07 1.6344e-08 4.09215e-09 3.41369e-14 2.13883e-18 5.34708e-19 3.49422e-38 0 0 8.96868e-13 2.94321e-14 7.35804e-15
          2.99238e-09 3.63301e-10 1.27172e-10 1.10912e-22 5.5675e-26 1.94863e-26 0 0 0 4.45385e-23 9.9483e-23 3.48191e-23
          5.44755e-07 3.04378e-06 4.17024e-07 1.13199e-06 2.3343e-06 2.49098e-07 1.33803e-07 8.88132e-07 4.55749e-08 1.29914e-07 1.32487e-06 1.19696e-07
          3.89005e-07 2.70381e-06 9.83005e-07 8.38937e-07 1.83662e-06 5.99709e-07 2.34896e-08 6.166e-07 9.37488e-08 2.13558e-08 1.05489e-06 2.41973e-07
          6.09504e-07 7.96538e-07 4.74379e-08 1.95799e-08 1.79784e-09 8.98919e-11 4.20511e-19 1.08242e-19 5.41209e-21 2.5858e-09 1.97922e-08 9.8961e-10
          4.6164e-07 7.40605e-07 1.2023e-07 1.72144e-09 3.55324e-10 5.32987e-11 3.64845e-24 2.9992e-24 4.4988e-25 4.78394e-11 1.6268e-09 2.4402e-10
          6.42667e-23 3.29555e-19 1.64778e-20 0 0 0 0 0 0 0 0 0
          1.22703e-30 2.73926e-24 4.10889e-25 0 0 0 0 0 0 0 0 0
          1.48962e-13 2.62324e-07 1.31163e-08 1.51969e-13 2.82649e-09 1.41325e-10 0 4.07694e-23 2.03847e-24 0 1.92231e-13 9.61153e-15
          -3.13735e-15 3.98472e-08 5.97721e-09 7.55468e-18 4.95004e-11 7.42506e-12 0 7.07924e-31 1.06189e-31 0 8.58779e-18 1.28817e-18
          1.96276e-07 1.68769e-06 1.02732e-06 2.63102e-07 1.03435e-06 5.0024e-07 1.52819e-11 7.28287e-08 1.82459e-08 -7.4343e-10 5.16935e-07 1.58434e-07
          -5.49231e-09 8.09206e-07 5.92009e-07 -8.94515e-10 4.09099e-07 1.92519e-07 -6.98014e-18 4.2642e-12 1.49256e-12 -6.87214e-13 4.87852e-09 1.73383e-09
          7.00665e-08 2.9725e-07 7.55487e-08 4.7041e-13 7.7145e-13 1.92863e-13 0 2.83908e-38 0 1.04757e-16 4.10091e-13 1.02523e-13
          3.92612e-12 1.17824e-09 4.12693e-10 4.39321e-25 3.8717e-23 1.35509e-23 0 0 0 2.79658e-35 3.65897e-25 1.28064e-25
          0 0 0 0 0 0 0 0 0 0 0 0
          0 0 0 0 0 0 0 0 0 0 0 0
          -2.63479e-19 2.89376e-11 7.23441e-12 1.55271e-32 9.36873e-17 2.34218e-17 0 0 0 0 9.33186e-32 2.33297e-32
          -3.94896e-33 5.17052e-22 1.80968e-22 0 2.13313e-35 7.46595e-36 0 0 0 0 0 0
          1.17684e-19 6.53234e-23 3.26617e-24 0 0 0 0 0 0 0 0 0
          3.39917e-24 3.65564e-26 5.48346e-27 0 0 0 0 0 0 0 0 0
          0 0 0 0 0 0 0 0 0 0 0 0
          0 0 0 0 0 0 0 0 0 0 0 0
          0 0 0 0 0 0 0 0 0 0 0 0
          0 0 0 0 0 0 0 0 0 0 0 0
          0 0 0 0 0 0 0 0 0 0 0 0
          0 0 0 0 0 0 0 0 0 0 0 0
          3.44572e-38 3.48098e-38 0 0 0 0 0 0 0 0 0 0
          0 0 0 0 0 0 0 0 0 0 0 0
          0 0 0 0 0 0 0 0 0 0 0 0
          0 0 0 0 0 0 0 0 0 0 0 0
          0 0 0 0 0 0 0 0 0 0 0 0
          0 0 0 0 0 0 0 0 0 0 0 0
          0 0 0 0 0 0 0 0 0 0 0 0
          0 0 0 0 0 0 0 0 0 0 0 0
          7.74673e-07 6.44512e-07 5.97393e-06 1.90397e-06 4.8842e-07 4.04082e-06 1.33653e-06 1.13103e-06 2.98878e-06 5.16449e-07 1.48323e-06 3.79101e-06
          2.59514e-07 2.0375e-07 2.9766e-06 6.32087e-07 1.77717e-07 2.33884e-06 2.70317e-07 3.1947e-07 1.40308e-06 1.33601e-07 4.87928e-07 1.91245e-06
          2.12158e-06 3.26868e-07 2.61464e-06 1.68076e-06 1.13451e-07 1.64995e-06 6.94034e-07 1.35623e-07 6.96322e-07 1.43279e-06 7.9524e-07 2.27049e-06
          7.0481e-07 8.49347e-08 1.51359e-06 2.11841e-07 3.51285e-10 8.3533e-07 -5.92558e-09 3.79388e-10 2.24695e-08 -2.05572e-08 9.35382e-08 1.03107e-06
          3.68913e-07 4.94388e-07 7.98067e-07 2.09972e-08 1.42348e-08 7.34038e-09 5.44523e-20 1.4017e-18 4.90619e-19 -2.25333e-10 1.50175e-08 6.26152e-09
          -4.38509e-09 1.96607e-09 1.50433e-08 -4.52001e-19 1.38129e-19 1.2006e-18 0 0 0 -1.20638e-20 3.8488e-20 4.58135e-20
          2.70883e-07 1.49107e-06 2.49446e-06 6.60082e-07 1.10477e-06 1.85434e-06 -4.75755e-08 4.91603e-07 5.1968e-07 -2.22874e-08 7.24142e-07 9.15339e-07
          -5.05242e-08 2.97973e-07 9.86122e-07 -1.08831e-07 1.38668e-07 6.58083e-07 -2.18752e-11 4.63261e-11 1.20958e-10 -1.58747e-09 7.44934e-09 2.56744e-08
          -4.76598e-08 8.98187e-09 1.11186e-06 -1.28788e-07 3.52002e-10 8.96124e-07 -4.18925e-08 3.80196e-10 2.49497e-07 -3.27594e-08 9.72094e-09 5.86686e-07
          -8.25586e-10 6.02958e-20 1.5922e-08 -1.11634e-10 4.84394e-26 7.17648e-10 -6.67277e-15 5.23146e-26 3.97189e-14 -1.33e-12 6.51195e-20 2.37499e-11
          -9.75614e-08 1.61521e-13 3.78928e-07 -2.95277e-10 9.06165e-27 8.14806e-10 -6.46794e-20 9.78658e-27 1.65031e-19 -7.77358e-10 1.74443e-13 2.77644e-09
          -9.66434e-14 0 3.72767e-13 -6.2709e-27 0 1.7277e-26 0 0 0 -2.48466e-24 0 8.87379e-24
          -1.01507e-20 9.22617e-24 3.33536e-20 0 0 0 0 0 0 0 0 0
          0 0 0 0 0 0 0 0 0 0 0 0
          -4.17593e-10 2.22958e-11 6.8638e-09 -8.97884e-12 3.75085e-14 4.91754e-11 -1.0481e-29 4.08256e-31 5.24662e-29 -7.56427e-20 2.33091e-21 1.13499e-18
          -1.00732e-22 4.12877e-32 1.65489e-21 -5.06119e-32 0 2.7716e-31 0 0 0 0 0 0
          8.08518e-07 6.47366e-10 3.36188e-07 1.8155e-09 1.46761e-24 8.43963e-13 1.57376e-18 1.58502e-24 5.9954e-25 3.01289e-08 6.99156e-10 5.84983e-10
          6.31448e-10 1.15577e-24 1.19946e-09 2.71522e-24 0 2.70505e-24 0 0 0 -1.31987e-19 1.24823e-24 9.47683e-19
          3.38494e-24 0 6.96288e-38 0 0 0 0 0 0 0 0 0
          0 0 0 0 0 0 0 0 0 0 0 0
          0 0 0 0 0 0 0 0 0 0 0 0
          0 0 0 0 0 0 0 0 0 0 0 0
          1.8181e-18 1.01555e-18 3.55499e-19 0 0 0 0 0 0 0 0 0
          0 0 0 0 0 0 0 0 0 0 0 0
          -7.85384e-25 0 2.24164e-24 0 0 0 0 0 0 0 0 0
          0 0 0 0 0 0 0 0 0 0 0 0
          0 0 0 0 0 0 0 0 0 0 0 0
          0 0 0 0 0 0 0 0 0 0 0 0
          0 0 0 0 0 0 0 0 0 0 0 0
          0 0 0 0 0 0 0 0 0 0 0 0
          0 0 0 0 0 0 0 0 0 0 0 0
          0 0 0 0 0 0 0 0 0 0 0 0