<?xml version="1.0"?>
<VTKFile type="UnstructuredGrid" version="0.1" byte_order="LittleEndian">
  <UnstructuredGrid>
    <Piece NumberOfCells="80" NumberOfPoints="162">
      <PointData Scalars="S_gas" Vectors="velocity">
        <DataArray type="Float32" Name="S_gas" NumberOfComponents="1" format="ascii">
          0 0 0 0 0 0 0 0 0 0 0 0
          0 0 0 0 0 0 0 0 0 0 0 0
          0 0 0 0 0 0 0 0 0 0 0 0
          0 0 0 0 0 0 0 0 0 0 0 0
          0 0 0 0 0 0 0 0 0 0 0 0
          0 0 0 0 0 0 0 0 0 0 0 0
          0 0 0 0 0 0 0 0 0 0 0 0
          0 0 0 0 0 0 0 0 0 0 0 0
          0 0 0 0 0 0 0 0 0 0 0 0
          0 0 0 0 0 0 0 0 0 0 0 0
          0 0 0 0 0 0 0 0 0 0 0 0
          0 0 0 0 0 0 0 0 0 0 0 0
          0 0 0 0 0 0 0 0 0 0 0 0
          0 0 0 0 0 0
        </DataArray>
        <DataArray type="Float32" Name="S_liq" NumberOfComponents="1" format="ascii">
          1 1 1 1 1 1 1 1 1 1 1 1
          1 1 1 1 1 1 1 1 1 1 1 1
          1 1 1 1 1 1 1 1 1 1 1 1
          1 1 1 1 1 1 1 1 1 1 1 1
          1 1 1 1 1 1 1 1 1 1 1 1
          1 1 1 1 1 1 1 1 1 1 1 1
          1 1 1 1 1 1 1 1 1 1 1 1
          1 1 1 1 1 1 1 1 1 1 1 1
          1 1 1 1 1 1 1 1 1 1 1 1
          1 1 1 1 1 1 1 1 1 1 1 1
          1 1 1 1 1 1 1 1 1 1 1 1
          1 1 1 1 1 1 1 1 1 1 1 1
          1 1 1 1 1 1 1 1 1 1 1 1
          1 1 1 1 1 1
        </DataArray>
        <DataArray type="Float32" Name="p_gas" NumberOfComponents="1" format="ascii">
          121579 121315 121579 121315 121051 121051 120787 120787 120522 120522 120258 120258
          119994 119994 119730 119730 119465 119465 119201 119201 118936 118936 118672 118672
          118407 118407 118141 118141 117876 117876 117610 117610 117343 117343 117075 117075
          116808 116808 116539 116539 116270 116270 116001 116001 115731 115731 115461 115461
          115191 115191 114920 114920 114649 114649 114378 114378 114107 114107 113836 113836
          113565 113565 113294 113294 113022 113022 112751 112751 112480 112480 112209 112209
          111937 111937 111666 111666 111395 111395 111123 111123 110852 110852 110581 110581
          110309 110309 110038 110038 109767 109767 109496 109496 109224 109224 108953 108953
          108682 108682 108410 108410 108139 108139 107868 107868 107596 107596 107325 107325
          107054 107054 106783 106783 106511 106511 106240 106240 105969 105969 105697 105697
          105426 105426 105155 105155 104883 104883 104612 104612 104341 104341 104070 104070
          103798 103798 103527 103527 103256 103256 102984 102984 102713 102713 102442 102442
          102170 102170 101899 101899 101628 101628 101357 101357 101085 101085 100814 100814
          100543 100543 100271 100271 100000 100000
        </DataArray>
        <DataArray type="Float32" Name="p_liq" NumberOfComponents="1" format="ascii">
          121579 121315 121579 121315 121051 121051 120787 120787 120522 120522 120258 120258
          119994 119994 119730 119730 119465 119465 119201 119201 118936 118936 118672 118672
          118407 118407 118141 118141 117876 117876 117610 117610 117343 117343 117075 117075
          116808 116808 116539 116539 116270 116270 116001 116001 115731 115731 115461 115461
          115191 115191 114920 114920 114649 114649 114378 114378 114107 114107 113836 113836
          113565 113565 113294 113294 113022 113022 112751 112751 112480 112480 112209 112209
          111937 111937 111666 111666 111395 111395 111123 111123 110852 110852 110581 110581
          110309 110309 110038 110038 109767 109767 109496 109496 109224 109224 108953 108953
          108682 108682 108410 108410 108139 108139 107868 107868 107596 107596 107325 107325
          107054 107054 106783 106783 106511 106511 106240 106240 105969 105969 105697 105697
          105426 105426 105155 105155 104883 104883 104612 104612 104341 104341 104070 104070
          103798 103798 103527 103527 103256 103256 102984 102984 102713 102713 102442 102442
          102170 102170 101899 101899 101628 101628 101357 101357 101085 101085 100814 100814
          100543 100543 100271 100271 100000 100000
        </DataArray>
        <DataArray type="Float32" Name="pc" NumberOfComponents="1" format="ascii">
          0 0 0 0 0 0 0 0 0 0 0 0
          0 0 0 0 0 0 0 0 0 0 0 0
          0 0 0 0 0 0 0 0 0 0 0 0
          0 0 0 0 0 0 0 0 0 0 0 0
          0 0 0 0 0 0 0 0 0 0 0 0
          0 0 0 0 0 0 0 0 0 0 0 0
          0 0 0 0 0 0 0 0 0 0 0 0
          0 0 0 0 0 0 0 0 0 0 0 0
          0 0 0 0 0 0 0 0 0 0 0 0
          0 0 0 0 0 0 0 0 0 0 0 0
          0 0 0 0 0 0 0 0 0 0 0 0
          0 0 0 0 0 0 0 0 0 0 0 0
          0 0 0 0 0 0 0 0 0 0 0 0
          0 0 0 0 0 0
        </DataArray>
        <DataArray type="Float32" Name="rho_liq" NumberOfComponents="1" format="ascii">
          998.631 998.631 998.631 998.631 998.631 998.631 998.631 998.631 998.631 998.631 998.631 998.631
          998.632 998.632 998.633 998.633 998.635 998.635 998.639 998.639 998.645 998.645 998.653 998.653
          998.663 998.663 998.673 998.673 998.684 998.684 998.696 998.696 998.708 998.708 998.721 998.721
          998.733 998.733 998.744 998.744 998.754 998.754 998.763 998.763 998.77 998.77 998.776 998.776
          998.781 998.781 998.785 998.785 998.788 998.788 998.79 998.79 998.792 998.792 998.793 998.793
          998.793 998.793 998.794 998.794 998.794 998.794 998.794 998.794 998.794 998.794 998.794 998.794
          998.794 998.794 998.794 998.794 998.794 998.794 998.794 998.794 998.794 998.794 998.794 998.794
          998.794 998.794 998.794 998.794 998.794 998.794 998.794 998.794 998.793 998.793 998.793 998.793
          998.793 998.793 998.793 998.793 998.793 998.793 998.793 998.793 998.793 998.793 998.792 998.792
          998.792 998.792 998.792 998.792 998.792 998.792 998.792 998.792 998.792 998.792 998.792 998.792
          998.792 998.792 998.792 998.792 998.791 998.791 998.791 998.791 998.791 998.791 998.791 998.791
          998.791 998.791 998.791 998.791 998.791 998.791 998.79 998.79 998.79 998.79 998.79 998.79
          998.79 998.79 998.79 998.79 998.79 998.79 998.79 998.79 998.79 998.79 998.789 998.789
          998.789 998.789 998.789 998.789 998.789 998.789
        </DataArray>
        <DataArray type="Float32" Name="mob_liq" NumberOfComponents="1" format="ascii">
          946.105 946.107 946.105 946.107 946.107 946.107 946.104 946.104 946.093 946.093 946.059 946.059
          945.981 945.981 945.825 945.825 945.548 945.548 945.105 945.105 944.453 944.453 943.564 943.564
          942.433 942.433 940.896 940.896 939.114 939.114 937.185 937.185 935.19 935.19 933.206 933.206
          931.308 931.308 929.553 929.553 927.98 927.98 926.612 926.612 925.455 925.455 924.5 924.5
          923.731 923.731 923.125 923.125 922.659 922.659 922.306 922.306 922.045 922.045 921.855 921.855
          921.719 921.719 921.624 921.624 921.558 921.558 921.512 921.512 921.482 921.482 921.462 921.462
          921.448 921.448 921.44 921.44 921.434 921.434 921.43 921.43 921.428 921.428 921.427 921.427
          921.426 921.426 921.425 921.425 921.425 921.425 921.424 921.424 921.424 921.424 921.424 921.424
          921.424 921.424 921.423 921.423 921.423 921.423 921.423 921.423 921.423 921.423 921.423 921.423
          921.423 921.423 921.422 921.422 921.422 921.422 921.422 921.422 921.422 921.422 921.422 921.422
          921.422 921.422 921.422 921.422 921.421 921.421 921.421 921.421 921.421 921.421 921.421 921.421
          921.421 921.421 921.421 921.421 921.421 921.421 921.42 921.42 921.42 921.42 921.42 921.42
          921.42 921.42 921.42 921.42 921.42 921.42 921.419 921.419 921.419 921.419 921.419 921.419
          921.419 921.419 921.419 921.419 921.392 921.392
        </DataArray>
        <DataArray type="Float32" Name="kr_liq" NumberOfComponents="1" format="ascii">
          1 1 1 1 1 1 1 1 1 1 1 1
          1 1 1 1 1 1 1 1 1 1 1 1
          1 1 1 1 1 1 1 1 1 1 1 1
          1 1 1 1 1 1 1 1 1 1 1 1
          1 1 1 1 1 1 1 1 1 1 1 1
          1 1 1 1 1 1 1 1 1 1 1 1
          1 1 1 1 1 1 1 1 1 1 1 1
          1 1 1 1 1 1 1 1 1 1 1 1
          1 1 1 1 1 1 1 1 1 1 1 1
          1 1 1 1 1 1 1 1 1 1 1 1
          1 1 1 1 1 1 1 1 1 1 1 1
          1 1 1 1 1 1 1 1 1 1 1 1
          1 1 1 1 1 1 1 1 1 1 1 1
          1 1 1 1 1 1
        </DataArray>
        <DataArray type="Float32" Name="porosity" NumberOfComponents="1" format="ascii">
          0.4 0.4 0.4 0.4 0.4 0.4 0.4 0.4 0.4 0.4 0.4 0.4
          0.4 0.4 0.4 0.4 0.4 0.4 0.4 0.4 0.4 0.4 0.4 0.4
          0.4 0.4 0.4 0.4 0.4 0.4 0.4 0.4 0.4 0.4 0.4 0.4
          0.4 0.4 0.4 0.4 0.4 0.4 0.4 0.4 0.4 0.4 0.4 0.4
          0.4 0.4 0.4 0.4 0.4 0.4 0.4 0.4 0.4 0.4 0.4 0.4
          0.4 0.4 0.4 0.4 0.4 0.4 0.4 0.4 0.4 0.4 0.4 0.4
          0.4 0.4 0.4 0.4 0.4 0.4 0.4 0.4 0.4 0.4 0.4 0.4
          0.4 0.4 0.4 0.4 0.4 0.4 0.4 0.4 0.4 0.4 0.4 0.4
          0.4 0.4 0.4 0.4 0.4 0.4 0.4 0.4 0.4 0.4 0.4 0.4
          0.4 0.4 0.4 0.4 0.4 0.4 0.4 0.4 0.4 0.4 0.4 0.4
          0.4 0.4 0.4 0.4 0.4 0.4 0.4 0.4 0.4 0.4 0.4 0.4
          0.4 0.4 0.4 0.4 0.4 0.4 0.4 0.4 0.4 0.4 0.4 0.4
          0.4 0.4 0.4 0.4 0.4 0.4 0.4 0.4 0.4 0.4 0.4 0.4
          0.4 0.4 0.4 0.4 0.4 0.4
        </DataArray>
        <DataArray type="Float32" Name="T" NumberOfComponents="1" format="ascii">
          291 291 291 291 291 291 291 291 291 291 290.998 290.998
          290.995 290.995 290.988 290.988 290.975 290.975 290.956 290.956 290.926 290.926 290.887 290.887
          290.836 290.836 290.775 290.775 290.706 290.706 290.63 290.63 290.552 290.552 290.473 290.473
          290.398 290.398 290.328 290.328 290.265 290.265 290.21 290.21 290.164 290.164 290.125 290.125
          290.094 290.094 290.07 290.07 290.051 290.051 290.037 290.037 290.026 290.026 290.019 290.019
          290.013 290.013 290.009 290.009 290.007 290.007 290.005 290.005 290.003 290.003 290.003 290.003
          290.002 290.002 290.002 290.002 290.002 290.002 290.001 290.001 290.001 290.001 290.001 290.001
          290.001 290.001 290.001 290.001 290.001 290.001 290.001 290.001 290.001 290.001 290.001 290.001
          290.001 290.001 290.001 290.001 290.001 290.001 290.001 290.001 290.001 290.001 290.001 290.001
          290.001 290.001 290.001 290.001 290.001 290.001 290.001 290.001 290.001 290.001 290.001 290.001
          290.001 290.001 290.001 290.001 290.001 290.001 290.001 290.001 290.001 290.001 290.001 290.001
          290.001 290.001 290.001 290.001 290.001 290.001 290.001 290.001 290.001 290.001 290.001 290.001
          290.001 290.001 290.001 290.001 290.001 290.001 290.001 290.001 290.001 290.001 290.001 290.001
          290.001 290.001 290.001 290.001 290 290
        </DataArray>
        <DataArray type="Float32" Name="water content" NumberOfComponents="1" format="ascii">
          0.4 0.4 0.4 0.4 0.4 0.4 0.4 0.4 0.4 0.4 0.4 0.4
          0.4 0.4 0.4 0.4 0.4 0.4 0.4 0.4 0.4 0.4 0.4 0.4
          0.4 0.4 0.4 0.4 0.4 0.4 0.4 0.4 0.4 0.4 0.4 0.4
          0.4 0.4 0.4 0.4 0.4 0.4 0.4 0.4 0.4 0.4 0.4 0.4
          0.4 0.4 0.4 0.4 0.4 0.4 0.4 0.4 0.4 0.4 0.4 0.4
          0.4 0.4 0.4 0.4 0.4 0.4 0.4 0.4 0.4 0.4 0.4 0.4
          0.4 0.4 0.4 0.4 0.4 0.4 0.4 0.4 0.4 0.4 0.4 0.4
          0.4 0.4 0.4 0.4 0.4 0.4 0.4 0.4 0.4 0.4 0.4 0.4
          0.4 0.4 0.4 0.4 0.4 0.4 0.4 0.4 0.4 0.4 0.4 0.4
          0.4 0.4 0.4 0.4 0.4 0.4 0.4 0.4 0.4 0.4 0.4 0.4
          0.4 0.4 0.4 0.4 0.4 0.4 0.4 0.4 0.4 0.4 0.4 0.4
          0.4 0.4 0.4 0.4 0.4 0.4 0.4 0.4 0.4 0.4 0.4 0.4
          0.4 0.4 0.4 0.4 0.4 0.4 0.4 0.4 0.4 0.4 0.4 0.4
          0.4 0.4 0.4 0.4 0.4 0.4
        </DataArray>
        <DataArray type="Float32" Name="phase presence" NumberOfComponents="1" format="ascii">
          1 1 1 1 1 1 1 1 1 1 1 1
          1 1 1 1 1 1 1 1 1 1 1 1
          1 1 1 1 1 1 1 1 1 1 1 1
          1 1 1 1 1 1 1 1 1 1 1 1
          1 1 1 1 1 1 1 1 1 1 1 1
          1 1 1 1 1 1 1 1 1 1 1 1
          1 1 1 1 1 1 1 1 1 1 1 1
          1 1 1 1 1 1 1 1 1 1 1 1
          1 1 1 1 1 1 1 1 1 1 1 1
          1 1 1 1 1 1 1 1 1 1 1 1
          1 1 1 1 1 1 1 1 1 1 1 1
          1 1 1 1 1 1 1 1 1 1 1 1
          1 1 1 1 1 1 1 1 1 1 1 1
          1 1 1 1 1 1
        </DataArray>
        <DataArray type="Float32" Name="temperatureExact" NumberOfComponents="1" format="ascii">
          291 291 291 291 291 291 291 291 291 291 291 291
          291 291 291 291 291 291 291 291 291 291 291 291
          291 291 291 291 291 291 291 291 291 291 290 290
          290 290 290 290 290 290 290 290 290 290 290 290
          290 290 290 290 290 290 290 290 290 290 290 290
          290 290 290 290 290 290 290 290 290 290 290 290
          290 290 290 290 290 290 290 290 290 290 290 290
          290 290 290 290 290 290 290 290 290 290 290 290
          290 290 290 290 290 290 290 290 290 290 290 290
          290 290 290 290 290 290 290 290 290 290 290 290
          290 290 290 290 290 290 290 290 290 290 290 290
          290 290 290 290 290 290 290 290 290 290 290 290
          290 290 290 290 290 290 290 290 290 290 290 290
          290 290 290 290 290 290
        </DataArray>
      </PointData>
      <CellData Scalars="process rank">
        <DataArray type="Float32" Name="process rank" NumberOfComponents="1" format="ascii">
          0 0 0 0 0 0 0 0 0 0 0 0
          0 0 0 0 0 0 0 0 0 0 0 0
          0 0 0 0 0 0 0 0 0 0 0 0
          0 0 0 0 0 0 0 0 0 0 0 0
          0 0 0 0 0 0 0 0 0 0 0 0
          0 0 0 0 0 0 0 0 0 0 0 0
          0 0 0 0 0 0 0 0
        </DataArray>
      </CellData>
      <Points>
        <DataArray type="Float32" Name="Coordinates" NumberOfComponents="3" format="ascii">
          0 0 0 0.25 0 0 0 1 0 0.25 1 0
          0.5 0 0 0.5 1 0 0.75 0 0 0.75 1 0
          1 0 0 1 1 0 1.25 0 0 1.25 1 0
          1.5 0 0 1.5 1 0 1.75 0 0 1.75 1 0
          2 0 0 2 1 0 2.25 0 0 2.25 1 0
          2.5 0 0 2.5 1 0 2.75 0 0 2.75 1 0
          3 0 0 3 1 0 3.25 0 0 3.25 1 0
          3.5 0 0 3.5 1 0 3.75 0 0 3.75 1 0
          4 0 0 4 1 0 4.25 0 0 4.25 1 0
          4.5 0 0 4.5 1 0 4.75 0 0 4.75 1 0
          5 0 0 5 1 0 5.25 0 0 5.25 1 0
          5.5 0 0 5.5 1 0 5.75 0 0 5.75 1 0
          6 0 0 6 1 0 6.25 0 0 6.25 1 0
          6.5 0 0 6.5 1 0 6.75 0 0 6.75 1 0
          7 0 0 7 1 0 7.25 0 0 7.25 1 0
          7.5 0 0 7.5 1 0 7.75 0 0 7.75 1 0
          8 0 0 8 1 0 8.25 0 0 8.25 1 0
          8.5 0 0 8.5 1 0 8.75 0 0 8.75 1 0
          9 0 0 9 1 0 9.25 0 0 9.25 1 0
          9.5 0 0 9.5 1 0 9.75 0 0 9.75 1 0
          10 0 0 10 1 0 10.25 0 0 10.25 1 0
          10.5 0 0 10.5 1 0 10.75 0 0 10.75 1 0
          11 0 0 11 1 0 11.25 0 0 11.25 1 0
          11.5 0 0 11.5 1 0 11.75 0 0 11.75 1 0
          12 0 0 12 1 0 12.25 0 0 12.25 1 0
          12.5 0 0 12.5 1 0 12.75 0 0 12.75 1 0
          13 0 0 13 1 0 13.25 0 0 13.25 1 0
          13.5 0 0 13.5 1 0 13.75 0 0 13.75 1 0
          14 0 0 14 1 0 14.25 0 0 14.25 1 0
          14.5 0 0 14.5 1 0 14.75 0 0 14.75 1 0
          15 0 0 15 1 0 15.25 0 0 15.25 1 0
          15.5 0 0 15.5 1 0 15.75 0 0 15.75 1 0
          16 0 0 16 1 0 16.25 0 0 16.25 1 0
          16.5 0 0 16.5 1 0 16.75 0 0 16.75 1 0
          17 0 0 17 1 0 17.25 0 0 17.25 1 0
          17.5 0 0 17.5 1 0 17.75 0 0 17.75 1 0
          18 0 0 18 1 0 18.25 0 0 18.25 1 0
          18.5 0 0 18.5 1 0 18.75 0 0 18.75 1 0
          19 0 0 19 1 0 19.25 0 0 19.25 1 0
          19.5 0 0 19.5 1 0 19.75 0 0 19.75 1 0
          20 0 0 20 1 0
        </DataArray>
      </Points>
      <Cells>
        <DataArray type="Int32" Name="connectivity" NumberOfComponents="1" format="ascii">
          0 1 3 2 1 4 5 3 4 6 7 5
          6 8 9 7 8 10 11 9 10 12 13 11
          12 14 15 13 14 16 17 15 16 18 19 17
          18 20 21 19 20 22 23 21 22 24 25 23
          24 26 27 25 26 28 29 27 28 30 31 29
          30 32 33 31 32 34 35 33 34 36 37 35
          36 38 39 37 38 40 41 39 40 42 43 41
          42 44 45 43 44 46 47 45 46 48 49 47
          48 50 51 49 50 52 53 51 52 54 55 53
          54 56 57 55 56 58 59 57 58 60 61 59
          60 62 63 61 62 64 65 63 64 66 67 65
          66 68 69 67 68 70 71 69 70 72 73 71
          72 74 75 73 74 76 77 75 76 78 79 77
          78 80 81 79 80 82 83 81 82 84 85 83
          84 86 87 85 86 88 89 87 88 90 91 89
          90 92 93 91 92 94 95 93 94 96 97 95
          96 98 99 97 98 100 101 99 100 102 103 101
          102 104 105 103 104 106 107 105 106 108 109 107
          108 110 111 109 110 112 113 111 112 114 115 113
          114 116 117 115 116 118 119 117 118 120 121 119
          120 122 123 121 122 124 125 123 124 126 127 125
          126 128 129 127 128 130 131 129 130 132 133 131
          132 134 135 133 134 136 137 135 136 138 139 137
          138 140 141 139 140 142 143 141 142 144 145 143
          144 146 147 145 146 148 149 147 148 150 151 149
          150 152 153 151 152 154 155 153 154 156 157 155
          156 158 159 157 158 160 161 159
        </DataArray>
        <DataArray type="Int32" Name="offsets" NumberOfComponents="1" format="ascii">
          4 8 12 16 20 24 28 32 36 40 44 48
          52 56 60 64 68 72 76 80 84 88 92 96
          100 104 108 112 116 120 124 128 132 136 140 144
          148 152 156 160 164 168 172 176 180 184 188 192
          196 200 204 208 212 216 220 224 228 232 236 240
          244 248 252 256 260 264 268 272 276 280 284 288
          292 296 300 304 308 312 316 320
        </DataArray>
        <DataArray type="UInt8" Name="types" NumberOfComponents="1" format="ascii">
          9 9 9 9 9 9 9 9 9 9 9 9
          9 9 9 9 9 9 9 9 9 9 9 9
          9 9 9 9 9 9 9 9 9 9 9 9
          9 9 9 9 9 9 9 9 9 9 9 9
          9 9 9 9 9 9 9 9 9 9 9 9
          9 9 9 9 9 9 9 9 9 9 9 9
          9 9 9 9 9 9 9 9
        </DataArray>
      </Cells>
    </Piece>
  </UnstructuredGrid>
</VTKFile>
