<?xml version="1.0"?>
<VTKFile type="UnstructuredGrid" version="0.1" byte_order="LittleEndian">
  <UnstructuredGrid>
    <Piece NumberOfCells="150" NumberOfPoints="186">
      <CellData Scalars="S_liq">
        <DataArray type="Float32" Name="S_liq" NumberOfComponents="1" format="ascii">
          0.0571721 0.0571721 0.0571721 0.0571721 0.0571721 0.0571721 0.0571721 0.0571721 0.0571721 0.0571721 0.0571721 0.0571721
          0.0571721 0.0571721 0.0571721 0.0571721 0.0571721 0.0571721 0.0571721 0.0571721 0.0571721 0.0571721 0.0571721 0.0571721
          0.0571721 0.0571721 0.0571721 0.0571721 0.0571721 0.0571721 0.0571721 0.0571721 0.0571721 0.0571721 0.0571721 0.0571721
          0.0571721 0.0571721 0.0571721 0.0571721 0.0571721 0.0571721 0.0571721 0.0571721 0.0571721 0.0571721 0.0571721 0.0571721
          0.0571721 0.0571721 0.0571721 0.0571721 0.0571721 0.0571721 0.0571721 0.0571721 0.0571721 0.0571721 0.0571721 0.0571721
          0.0571721 0.0571721 0.0571721 0.0571721 0.0571721 0.0571721 0.0571721 0.0571721 0.0571721 0.0571721 0.0571721 0.0571721
          0.0571721 0.0571721 0.0571721 0.0571721 0.0571721 0.0571721 0.0571721 0.0571721 0.0571721 0.0571721 0.0571721 0.0571721
          0.0571721 0.0571721 0.0571721 0.0571721 0.0571721 0.0571721 0.0571721 0.0571721 0.0571721 0.0571721 0.0571721 0.0571721
          0.0571721 0.0571721 0.0571721 0.0571721 0.0571721 0.0571721 0.0571721 0.0571721 0.0571721 0.0571721 0.0571721 0.0571721
          0.0571721 0.0571721 0.0571721 0.0571721 0.0571721 0.0571721 0.0571721 0.0571721 0.0571721 0.0571721 0.0571721 0.0571721
          0.0571721 0.0571721 0.0571721 0.0571721 0.0571721 0.0571721 0.0571721 0.0571721 0.0571721 0.0571721 0.0571721 0.0571721
          0.0571721 0.0571721 0.0571721 0.0571721 0.0571721 0.0571721 0.0571721 0.0571721 0.0571652 0.0571652 0.0571652 0.0571652
          0.0571652 0 0 0 0 0
        </DataArray>
        <DataArray type="Float32" Name="S_gas" NumberOfComponents="1" format="ascii">
          0.942828 0.942828 0.942828 0.942828 0.942828 0.942828 0.942828 0.942828 0.942828 0.942828 0.942828 0.942828
          0.942828 0.942828 0.942828 0.942828 0.942828 0.942828 0.942828 0.942828 0.942828 0.942828 0.942828 0.942828
          0.942828 0.942828 0.942828 0.942828 0.942828 0.942828 0.942828 0.942828 0.942828 0.942828 0.942828 0.942828
          0.942828 0.942828 0.942828 0.942828 0.942828 0.942828 0.942828 0.942828 0.942828 0.942828 0.942828 0.942828
          0.942828 0.942828 0.942828 0.942828 0.942828 0.942828 0.942828 0.942828 0.942828 0.942828 0.942828 0.942828
          0.942828 0.942828 0.942828 0.942828 0.942828 0.942828 0.942828 0.942828 0.942828 0.942828 0.942828 0.942828
          0.942828 0.942828 0.942828 0.942828 0.942828 0.942828 0.942828 0.942828 0.942828 0.942828 0.942828 0.942828
          0.942828 0.942828 0.942828 0.942828 0.942828 0.942828 0.942828 0.942828 0.942828 0.942828 0.942828 0.942828
          0.942828 0.942828 0.942828 0.942828 0.942828 0.942828 0.942828 0.942828 0.942828 0.942828 0.942828 0.942828
          0.942828 0.942828 0.942828 0.942828 0.942828 0.942828 0.942828 0.942828 0.942828 0.942828 0.942828 0.942828
          0.942828 0.942828 0.942828 0.942828 0.942828 0.942828 0.942828 0.942828 0.942828 0.942828 0.942828 0.942828
          0.942828 0.942828 0.942828 0.942828 0.942828 0.942828 0.942828 0.942828 0.942835 0.942835 0.942835 0.942835
          0.942835 1 1 1 1 1
        </DataArray>
        <DataArray type="Float32" Name="p_liq" NumberOfComponents="1" format="ascii">
          99000 99000 99000 99000 99000 99000 99000 99000 99000 99000 99000 99000
          99000 99000 99000 99000 99000 99000 99000 99000 99000 99000 99000 99000
          99000 99000 99000 99000 99000 99000 99000 99000 99000 99000 99000 99000
          99000 99000 99000 99000 99000 99000 99000 99000 99000 99000 99000 99000
          99000 99000 99000 99000 99000 99000 99000 99000 99000 99000 99000 99000
          99000 99000 99000 99000 99000 99000 99000 99000 99000 99000 99000 99000
          99000 99000 99000 99000 99000 99000 99000 99000 99000 99000 99000 99000
          99000 99000 99000 99000 99000 99000 99000 99000 99000 99000 99000 99000
          99000 99000 99000 99000 99000 99000 99000 99000 99000 99000 99000 99000
          99000 99000 99000 99000 99000 99000 99000 99000 99000 99000 99000 99000
          99000 99000 99000 99000 99000 99000 99000 99000 99000 99000 99000 99000
          99000 99000 99000 99000 99000 99000 99000 99000 98999.8 98999.8 98999.8 98999.8
          98999.8 97470.4 97470.4 97470.4 97470.4 97470.4
        </DataArray>
        <DataArray type="Float32" Name="p_gas" NumberOfComponents="1" format="ascii">
          100000 100000 100000 100000 100000 100000 100000 100000 100000 100000 100000 100000
          100000 100000 100000 100000 100000 100000 100000 100000 100000 100000 100000 100000
          100000 100000 100000 100000 100000 100000 100000 100000 100000 100000 100000 100000
          100000 100000 100000 100000 100000 100000 100000 100000 100000 100000 100000 100000
          100000 100000 100000 100000 100000 100000 100000 100000 100000 100000 100000 100000
          100000 100000 100000 100000 100000 100000 100000 100000 100000 100000 100000 100000
          100000 100000 100000 100000 100000 100000 100000 100000 100000 100000 100000 100000
          100000 100000 100000 100000 100000 100000 100000 100000 100000 100000 100000 100000
          100000 100000 100000 100000 100000 100000 100000 100000 100000 100000 100000 100000
          100000 100000 100000 100000 100000 100000 100000 100000 100000 100000 100000 100000
          100000 100000 100000 100000 100000 100000 100000 100000 100000 100000 100000 100000
          100000 100000 100000 100000 100000 100000 100000 100000 100000 100000 100000 100000
          100000 100000 100000 100000 100000 100000
        </DataArray>
        <DataArray type="Float32" Name="pc" NumberOfComponents="1" format="ascii">
          1000 1000 1000 1000 1000 1000 1000 1000 1000 1000 1000 1000
          1000 1000 1000 1000 1000 1000 1000 1000 1000 1000 1000 1000
          1000 1000 1000 1000 1000 1000 1000 1000 1000 1000 1000 1000
          1000 1000 1000 1000 1000 1000 1000 1000 1000 1000 1000 1000
          1000 1000 1000 1000 1000 1000 1000 1000 1000 1000 1000 1000
          1000 1000 1000 1000 1000 1000 1000 1000 1000 1000 1000 1000
          1000 1000 1000 1000 1000 1000 1000 1000 1000 1000 1000 1000
          1000 1000 1000 1000 1000 1000 1000 1000 1000 1000 1000 1000
          1000 1000 1000 1000 1000 1000 1000 1000 1000 1000 1000 1000
          1000 1000 1000 1000 1000 1000 1000 1000 1000 1000 1000 1000
          1000 1000 1000 1000 1000 1000 1000 1000 1000 1000 1000 1000
          1000 1000 1000 1000 1000 1000 1000 1000 1000.19 1000.19 1000.19 1000.19
          1000.19 2529.62 2529.62 2529.62 2529.62 2529.62
        </DataArray>
        <DataArray type="Float32" Name="rho_liq" NumberOfComponents="1" format="ascii">
          998.621 998.621 998.621 998.621 998.621 998.621 998.621 998.621 998.621 998.621 998.621 998.621
          998.621 998.621 998.621 998.621 998.621 998.621 998.621 998.621 998.621 998.621 998.621 998.621
          998.621 998.621 998.621 998.621 998.621 998.621 998.621 998.621 998.621 998.621 998.621 998.621
          998.621 998.621 998.621 998.621 998.621 998.621 998.621 998.621 998.621 998.621 998.621 998.621
          998.621 998.621 998.621 998.621 998.621 998.621 998.621 998.621 998.621 998.621 998.621 998.621
          998.621 998.621 998.621 998.621 998.621 998.621 998.621 998.621 998.621 998.621 998.621 998.621
          998.621 998.621 998.621 998.621 998.621 998.621 998.621 998.621 998.621 998.621 998.621 998.621
          998.621 998.621 998.621 998.621 998.621 998.621 998.621 998.621 998.621 998.621 998.621 998.621
          998.621 998.621 998.621 998.621 998.621 998.621 998.621 998.621 998.621 998.621 998.621 998.621
          998.621 998.621 998.621 998.621 998.621 998.621 998.621 998.621 998.621 998.621 998.621 998.621
          998.621 998.621 998.621 998.621 998.621 998.621 998.621 998.621 998.621 998.621 998.621 998.621
          998.621 998.621 998.621 998.621 998.621 998.621 998.621 998.621 998.625 998.625 998.625 998.625
          998.625 998.69 998.69 998.69 998.69 998.69
        </DataArray>
        <DataArray type="Float32" Name="mob_liq" NumberOfComponents="1" format="ascii">
          0.000207047 0.000207047 0.000207047 0.000207047 0.000207047 0.000207047 0.000207047 0.000207047 0.000207047 0.000207047 0.000207047 0.000207047
          0.000207047 0.000207047 0.000207047 0.000207047 0.000207047 0.000207047 0.000207047 0.000207047 0.000207047 0.000207047 0.000207047 0.000207047
          0.000207047 0.000207047 0.000207047 0.000207047 0.000207047 0.000207047 0.000207047 0.000207047 0.000207047 0.000207047 0.000207047 0.000207047
          0.000207047 0.000207047 0.000207047 0.000207047 0.000207047 0.000207047 0.000207047 0.000207047 0.000207047 0.000207047 0.000207047 0.000207047
          0.000207047 0.000207047 0.000207047 0.000207047 0.000207047 0.000207047 0.000207047 0.000207047 0.000207047 0.000207047 0.000207047 0.000207047
          0.000207047 0.000207047 0.000207047 0.000207047 0.000207047 0.000207047 0.000207047 0.000207047 0.000207047 0.000207047 0.000207047 0.000207047
          0.000207047 0.000207047 0.000207047 0.000207047 0.000207047 0.000207047 0.000207047 0.000207047 0.000207047 0.000207047 0.000207047 0.000207047
          0.000207047 0.000207047 0.000207047 0.000207047 0.000207047 0.000207047 0.000207047 0.000207047 0.000207047 0.000207047 0.000207047 0.000207047
          0.000207047 0.000207047 0.000207047 0.000207047 0.000207047 0.000207047 0.000207047 0.000207047 0.000207047 0.000207047 0.000207047 0.000207047
          0.000207047 0.000207047 0.000207047 0.000207047 0.000207047 0.000207047 0.000207047 0.000207047 0.000207047 0.000207047 0.000207047 0.000207047
          0.000207047 0.000207047 0.000207047 0.000207047 0.000207047 0.000207047 0.000207047 0.000207047 0.000207047 0.000207047 0.000207047 0.000207047
          0.000207047 0.000207047 0.000207047 0.000207044 0.000207044 0.000207044 0.000207044 0.000207044 0.00020634 0.00020634 0.00020634 0.00020634
          0.00020634 0 0 0 0 0
        </DataArray>
        <DataArray type="Float32" Name="kr_liq" NumberOfComponents="1" format="ascii">
          2.18844e-07 2.18844e-07 2.18844e-07 2.18844e-07 2.18844e-07 2.18844e-07 2.18844e-07 2.18844e-07 2.18844e-07 2.18844e-07 2.18844e-07 2.18844e-07
          2.18844e-07 2.18844e-07 2.18844e-07 2.18844e-07 2.18844e-07 2.18844e-07 2.18844e-07 2.18844e-07 2.18844e-07 2.18844e-07 2.18844e-07 2.18844e-07
          2.18844e-07 2.18844e-07 2.18844e-07 2.18844e-07 2.18844e-07 2.18844e-07 2.18844e-07 2.18844e-07 2.18844e-07 2.18844e-07 2.18844e-07 2.18844e-07
          2.18844e-07 2.18844e-07 2.18844e-07 2.18844e-07 2.18844e-07 2.18844e-07 2.18844e-07 2.18844e-07 2.18844e-07 2.18844e-07 2.18844e-07 2.18844e-07
          2.18844e-07 2.18844e-07 2.18844e-07 2.18844e-07 2.18844e-07 2.18844e-07 2.18844e-07 2.18844e-07 2.18844e-07 2.18844e-07 2.18844e-07 2.18844e-07
          2.18844e-07 2.18844e-07 2.18844e-07 2.18844e-07 2.18844e-07 2.18844e-07 2.18844e-07 2.18844e-07 2.18844e-07 2.18844e-07 2.18844e-07 2.18844e-07
          2.18844e-07 2.18844e-07 2.18844e-07 2.18844e-07 2.18844e-07 2.18844e-07 2.18844e-07 2.18844e-07 2.18844e-07 2.18844e-07 2.18844e-07 2.18844e-07
          2.18844e-07 2.18844e-07 2.18844e-07 2.18844e-07 2.18844e-07 2.18844e-07 2.18844e-07 2.18844e-07 2.18844e-07 2.18844e-07 2.18844e-07 2.18844e-07
          2.18844e-07 2.18844e-07 2.18844e-07 2.18844e-07 2.18844e-07 2.18844e-07 2.18844e-07 2.18844e-07 2.18844e-07 2.18844e-07 2.18844e-07 2.18844e-07
          2.18844e-07 2.18844e-07 2.18844e-07 2.18844e-07 2.18844e-07 2.18844e-07 2.18844e-07 2.18844e-07 2.18844e-07 2.18844e-07 2.18844e-07 2.18844e-07
          2.18844e-07 2.18844e-07 2.18844e-07 2.18844e-07 2.18844e-07 2.18844e-07 2.18844e-07 2.18844e-07 2.18844e-07 2.18844e-07 2.18844e-07 2.18844e-07
          2.18844e-07 2.18844e-07 2.18844e-07 2.18842e-07 2.18842e-07 2.18842e-07 2.18842e-07 2.18842e-07 2.18199e-07 2.18199e-07 2.18199e-07 2.18199e-07
          2.18199e-07 0 0 0 0 0
        </DataArray>
        <DataArray type="Float32" Name="porosity" NumberOfComponents="1" format="ascii">
          0.4 0.4 0.4 0.4 0.4 0.4 0.4 0.4 0.4 0.4 0.4 0.4
          0.4 0.4 0.4 0.4 0.4 0.4 0.4 0.4 0.4 0.4 0.4 0.4
          0.4 0.4 0.4 0.4 0.4 0.4 0.4 0.4 0.4 0.4 0.4 0.4
          0.4 0.4 0.4 0.4 0.4 0.4 0.4 0.4 0.4 0.4 0.4 0.4
          0.4 0.4 0.4 0.4 0.4 0.4 0.4 0.4 0.4 0.4 0.4 0.4
          0.4 0.4 0.4 0.4 0.4 0.4 0.4 0.4 0.4 0.4 0.4 0.4
          0.4 0.4 0.4 0.4 0.4 0.4 0.4 0.4 0.4 0.4 0.4 0.4
          0.4 0.4 0.4 0.4 0.4 0.4 0.4 0.4 0.4 0.4 0.4 0.4
          0.4 0.4 0.4 0.4 0.4 0.4 0.4 0.4 0.4 0.4 0.4 0.4
          0.4 0.4 0.4 0.4 0.4 0.4 0.4 0.4 0.4 0.4 0.4 0.4
          0.4 0.4 0.4 0.4 0.4 0.4 0.4 0.4 0.4 0.4 0.4 0.4
          0.4 0.4 0.4 0.4 0.4 0.4 0.4 0.4 0.4 0.4 0.4 0.4
          0.4 0.4 0.4 0.4 0.4 0.4
        </DataArray>
        <DataArray type="Float32" Name="x^H2O_gas" NumberOfComponents="1" format="ascii">
          0.0204743 0.0204743 0.0204743 0.0204743 0.0204743 0.0204743 0.0204743 0.0204743 0.0204743 0.0204743 0.0204743 0.0204743
          0.0204743 0.0204743 0.0204743 0.0204743 0.0204743 0.0204743 0.0204743 0.0204743 0.0204743 0.0204743 0.0204743 0.0204743
          0.0204743 0.0204743 0.0204743 0.0204743 0.0204743 0.0204743 0.0204743 0.0204743 0.0204743 0.0204743 0.0204743 0.0204743
          0.0204743 0.0204743 0.0204743 0.0204743 0.0204743 0.0204743 0.0204743 0.0204743 0.0204743 0.0204743 0.0204743 0.0204743
          0.0204743 0.0204743 0.0204743 0.0204743 0.0204743 0.0204743 0.0204743 0.0204743 0.0204743 0.0204743 0.0204743 0.0204743
          0.0204743 0.0204743 0.0204743 0.0204743 0.0204743 0.0204743 0.0204743 0.0204743 0.0204743 0.0204743 0.0204743 0.0204743
          0.0204743 0.0204743 0.0204743 0.0204743 0.0204743 0.0204743 0.0204743 0.0204743 0.0204743 0.0204743 0.0204743 0.0204743
          0.0204743 0.0204743 0.0204743 0.0204743 0.0204743 0.0204743 0.0204743 0.0204743 0.0204743 0.0204743 0.0204743 0.0204743
          0.0204743 0.0204743 0.0204743 0.0204743 0.0204743 0.0204743 0.0204743 0.0204743 0.0204743 0.0204743 0.0204743 0.0204743
          0.0204743 0.0204743 0.0204743 0.0204743 0.0204743 0.0204743 0.0204743 0.0204743 0.0204743 0.0204743 0.0204743 0.0204743
          0.0204743 0.0204743 0.0204743 0.0204743 0.0204743 0.0204743 0.0204743 0.0204743 0.0204743 0.0204743 0.0204743 0.0204743
          0.0204743 0.0204743 0.0204743 0.0204739 0.0204739 0.0204739 0.0204739 0.0204739 0.0204465 0.0204465 0.0204465 0.0204465
          0.0204465 5.83998e-06 5.83998e-06 5.83998e-06 5.83998e-06 5.83998e-06
        </DataArray>
        <DataArray type="Float32" Name="water content" NumberOfComponents="1" format="ascii">
          0.0228688 0.0228688 0.0228688 0.0228688 0.0228688 0.0228688 0.0228688 0.0228688 0.0228688 0.0228688 0.0228688 0.0228688
          0.0228688 0.0228688 0.0228688 0.0228688 0.0228688 0.0228688 0.0228688 0.0228688 0.0228688 0.0228688 0.0228688 0.0228688
          0.0228688 0.0228688 0.0228688 0.0228688 0.0228688 0.0228688 0.0228688 0.0228688 0.0228688 0.0228688 0.0228688 0.0228688
          0.0228688 0.0228688 0.0228688 0.0228688 0.0228688 0.0228688 0.0228688 0.0228688 0.0228688 0.0228688 0.0228688 0.0228688
          0.0228688 0.0228688 0.0228688 0.0228688 0.0228688 0.0228688 0.0228688 0.0228688 0.0228688 0.0228688 0.0228688 0.0228688
          0.0228688 0.0228688 0.0228688 0.0228688 0.0228688 0.0228688 0.0228688 0.0228688 0.0228688 0.0228688 0.0228688 0.0228688
          0.0228688 0.0228688 0.0228688 0.0228688 0.0228688 0.0228688 0.0228688 0.0228688 0.0228688 0.0228688 0.0228688 0.0228688
          0.0228688 0.0228688 0.0228688 0.0228688 0.0228688 0.0228688 0.0228688 0.0228688 0.0228688 0.0228688 0.0228688 0.0228688
          0.0228688 0.0228688 0.0228688 0.0228688 0.0228688 0.0228688 0.0228688 0.0228688 0.0228688 0.0228688 0.0228688 0.0228688
          0.0228688 0.0228688 0.0228688 0.0228688 0.0228688 0.0228688 0.0228688 0.0228688 0.0228688 0.0228688 0.0228688 0.0228688
          0.0228688 0.0228688 0.0228688 0.0228688 0.0228688 0.0228688 0.0228688 0.0228688 0.0228688 0.0228688 0.0228688 0.0228688
          0.0228688 0.0228688 0.0228688 0.0228688 0.0228688 0.0228688 0.0228688 0.0228688 0.0228661 0.0228661 0.0228661 0.0228661
          0.0228661 0 0 0 0 0
        </DataArray>
        <DataArray type="Float32" Name="phase presence" NumberOfComponents="1" format="ascii">
          3 3 3 3 3 3 3 3 3 3 3 3
          3 3 3 3 3 3 3 3 3 3 3 3
          3 3 3 3 3 3 3 3 3 3 3 3
          3 3 3 3 3 3 3 3 3 3 3 3
          3 3 3 3 3 3 3 3 3 3 3 3
          3 3 3 3 3 3 3 3 3 3 3 3
          3 3 3 3 3 3 3 3 3 3 3 3
          3 3 3 3 3 3 3 3 3 3 3 3
          3 3 3 3 3 3 3 3 3 3 3 3
          3 3 3 3 3 3 3 3 3 3 3 3
          3 3 3 3 3 3 3 3 3 3 3 3
          3 3 3 3 3 3 3 3 3 3 3 3
          3 2 2 2 2 2
        </DataArray>
        <DataArray type="Float32" Name="T" NumberOfComponents="1" format="ascii">
          291 291 291 291 291 291 291 291 291 291 291 291
          291 291 291 291 291 291 291 291 291 291 291 291
          291 291 291 291 291 291 291 291 291 291 291 291
          291 291 291 291 291 291 291 291 291 291 291 291
          291 291 291 291 291 291 291 291 291 291 291 291
          291 291 291 291 291 291 291 291 291 291 291 291
          291 291 291 291 291 291 291 291 291 291 291 291
          291 291 291 291 291 291 291 291 291 291 291 291
          291 291 291 291 291 291 291 291 291 291 291 291
          291 291 291 291 291 291 291 291 291 291 291 291
          291 291 291 291 291 291 291 291 291 291 291 291
          291 291 291 291 291 291 291 291 290.98 290.98 290.98 290.98
          290.98 290.61 290.61 290.61 290.61 290.61
        </DataArray>
        <DataArray type="Float32" Name="process rank" NumberOfComponents="1" format="ascii">
          0 0 0 0 0 0 0 0 0 0 0 0
          0 0 0 0 0 0 0 0 0 0 0 0
          0 0 0 0 0 0 0 0 0 0 0 0
          0 0 0 0 0 0 0 0 0 0 0 0
          0 0 0 0 0 0 0 0 0 0 0 0
          0 0 0 0 0 0 0 0 0 0 0 0
          0 0 0 0 0 0 0 0 0 0 0 0
          0 0 0 0 0 0 0 0 0 0 0 0
          0 0 0 0 0 0 0 0 0 0 0 0
          0 0 0 0 0 0 0 0 0 0 0 0
          0 0 0 0 0 0 0 0 0 0 0 0
          0 0 0 0 0 0 0 0 0 0 0 0
          0 0 0 0 0 0
        </DataArray>
      </CellData>
      <Points>
        <DataArray type="Float32" Name="Coordinates" NumberOfComponents="3" format="ascii">
          0 0 0 2 0 0 0 0.666667 0 2 0.666667 0
          4 0 0 4 0.666667 0 6 0 0 6 0.666667 0
          8 0 0 8 0.666667 0 10 0 0 10 0.666667 0
          0 1.33333 0 2 1.33333 0 4 1.33333 0 6 1.33333 0
          8 1.33333 0 10 1.33333 0 0 2 0 2 2 0
          4 2 0 6 2 0 8 2 0 10 2 0
          0 2.66667 0 2 2.66667 0 4 2.66667 0 6 2.66667 0
          8 2.66667 0 10 2.66667 0 0 3.33333 0 2 3.33333 0
          4 3.33333 0 6 3.33333 0 8 3.33333 0 10 3.33333 0
          0 4 0 2 4 0 4 4 0 6 4 0
          8 4 0 10 4 0 0 4.66667 0 2 4.66667 0
          4 4.66667 0 6 4.66667 0 8 4.66667 0 10 4.66667 0
          0 5.33333 0 2 5.33333 0 4 5.33333 0 6 5.33333 0
          8 5.33333 0 10 5.33333 0 0 6 0 2 6 0
          4 6 0 6 6 0 8 6 0 10 6 0
          0 6.66667 0 2 6.66667 0 4 6.66667 0 6 6.66667 0
          8 6.66667 0 10 6.66667 0 0 7.33333 0 2 7.33333 0
          4 7.33333 0 6 7.33333 0 8 7.33333 0 10 7.33333 0
          0 8 0 2 8 0 4 8 0 6 8 0
          8 8 0 10 8 0 0 8.66667 0 2 8.66667 0
          4 8.66667 0 6 8.66667 0 8 8.66667 0 10 8.66667 0
          0 9.33333 0 2 9.33333 0 4 9.33333 0 6 9.33333 0
          8 9.33333 0 10 9.33333 0 0 10 0 2 10 0
          4 10 0 6 10 0 8 10 0 10 10 0
          0 10.6667 0 2 10.6667 0 4 10.6667 0 6 10.6667 0
          8 10.6667 0 10 10.6667 0 0 11.3333 0 2 11.3333 0
          4 11.3333 0 6 11.3333 0 8 11.3333 0 10 11.3333 0
          0 12 0 2 12 0 4 12 0 6 12 0
          8 12 0 10 12 0 0 12.6667 0 2 12.6667 0
          4 12.6667 0 6 12.6667 0 8 12.6667 0 10 12.6667 0
          0 13.3333 0 2 13.3333 0 4 13.3333 0 6 13.3333 0
          8 13.3333 0 10 13.3333 0 0 14 0 2 14 0
          4 14 0 6 14 0 8 14 0 10 14 0
          0 14.6667 0 2 14.6667 0 4 14.6667 0 6 14.6667 0
          8 14.6667 0 10 14.6667 0 0 15.3333 0 2 15.3333 0
          4 15.3333 0 6 15.3333 0 8 15.3333 0 10 15.3333 0
          0 16 0 2 16 0 4 16 0 6 16 0
          8 16 0 10 16 0 0 16.6667 0 2 16.6667 0
          4 16.6667 0 6 16.6667 0 8 16.6667 0 10 16.6667 0
          0 17.3333 0 2 17.3333 0 4 17.3333 0 6 17.3333 0
          8 17.3333 0 10 17.3333 0 0 18 0 2 18 0
          4 18 0 6 18 0 8 18 0 10 18 0
          0 18.6667 0 2 18.6667 0 4 18.6667 0 6 18.6667 0
          8 18.6667 0 10 18.6667 0 0 19.3333 0 2 19.3333 0
          4 19.3333 0 6 19.3333 0 8 19.3333 0 10 19.3333 0
          0 20 0 2 20 0 4 20 0 6 20 0
          8 20 0 10 20 0
        </DataArray>
      </Points>
      <Cells>
        <DataArray type="Int32" Name="connectivity" NumberOfComponents="1" format="ascii">
          0 1 3 2 1 4 5 3 4 6 7 5
          6 8 9 7 8 10 11 9 2 3 13 12
          3 5 14 13 5 7 15 14 7 9 16 15
          9 11 17 16 12 13 19 18 13 14 20 19
          14 15 21 20 15 16 22 21 16 17 23 22
          18 19 25 24 19 20 26 25 20 21 27 26
          21 22 28 27 22 23 29 28 24 25 31 30
          25 26 32 31 26 27 33 32 27 28 34 33
          28 29 35 34 30 31 37 36 31 32 38 37
          32 33 39 38 33 34 40 39 34 35 41 40
          36 37 43 42 37 38 44 43 38 39 45 44
          39 40 46 45 40 41 47 46 42 43 49 48
          43 44 50 49 44 45 51 50 45 46 52 51
          46 47 53 52 48 49 55 54 49 50 56 55
          50 51 57 56 51 52 58 57 52 53 59 58
          54 55 61 60 55 56 62 61 56 57 63 62
          57 58 64 63 58 59 65 64 60 61 67 66
          61 62 68 67 62 63 69 68 63 64 70 69
          64 65 71 70 66 67 73 72 67 68 74 73
          68 69 75 74 69 70 76 75 70 71 77 76
          72 73 79 78 73 74 80 79 74 75 81 80
          75 76 82 81 76 77 83 82 78 79 85 84
          79 80 86 85 80 81 87 86 81 82 88 87
          82 83 89 88 84 85 91 90 85 86 92 91
          86 87 93 92 87 88 94 93 88 89 95 94
          90 91 97 96 91 92 98 97 92 93 99 98
          93 94 100 99 94 95 101 100 96 97 103 102
          97 98 104 103 98 99 105 104 99 100 106 105
          100 101 107 106 102 103 109 108 103 104 110 109
          104 105 111 110 105 106 112 111 106 107 113 112
          108 109 115 114 109 110 116 115 110 111 117 116
          111 112 118 117 112 113 119 118 114 115 121 120
          115 116 122 121 116 117 123 122 117 118 124 123
          118 119 125 124 120 121 127 126 121 122 128 127
          122 123 129 128 123 124 130 129 124 125 131 130
          126 127 133 132 127 128 134 133 128 129 135 134
          129 130 136 135 130 131 137 136 132 133 139 138
          133 134 140 139 134 135 141 140 135 136 142 141
          136 137 143 142 138 139 145 144 139 140 146 145
          140 141 147 146 141 142 148 147 142 143 149 148
          144 145 151 150 145 146 152 151 146 147 153 152
          147 148 154 153 148 149 155 154 150 151 157 156
          151 152 158 157 152 153 159 158 153 154 160 159
          154 155 161 160 156 157 163 162 157 158 164 163
          158 159 165 164 159 160 166 165 160 161 167 166
          162 163 169 168 163 164 170 169 164 165 171 170
          165 166 172 171 166 167 173 172 168 169 175 174
          169 170 176 175 170 171 177 176 171 172 178 177
          172 173 179 178 174 175 181 180 175 176 182 181
          176 177 183 182 177 178 184 183 178 179 185 184
        </DataArray>
        <DataArray type="Int32" Name="offsets" NumberOfComponents="1" format="ascii">
          4 8 12 16 20 24 28 32 36 40 44 48
          52 56 60 64 68 72 76 80 84 88 92 96
          100 104 108 112 116 120 124 128 132 136 140 144
          148 152 156 160 164 168 172 176 180 184 188 192
          196 200 204 208 212 216 220 224 228 232 236 240
          244 248 252 256 260 264 268 272 276 280 284 288
          292 296 300 304 308 312 316 320 324 328 332 336
          340 344 348 352 356 360 364 368 372 376 380 384
          388 392 396 400 404 408 412 416 420 424 428 432
          436 440 444 448 452 456 460 464 468 472 476 480
          484 488 492 496 500 504 508 512 516 520 524 528
          532 536 540 544 548 552 556 560 564 568 572 576
          580 584 588 592 596 600
        </DataArray>
        <DataArray type="UInt8" Name="types" NumberOfComponents="1" format="ascii">
          9 9 9 9 9 9 9 9 9 9 9 9
          9 9 9 9 9 9 9 9 9 9 9 9
          9 9 9 9 9 9 9 9 9 9 9 9
          9 9 9 9 9 9 9 9 9 9 9 9
          9 9 9 9 9 9 9 9 9 9 9 9
          9 9 9 9 9 9 9 9 9 9 9 9
          9 9 9 9 9 9 9 9 9 9 9 9
          9 9 9 9 9 9 9 9 9 9 9 9
          9 9 9 9 9 9 9 9 9 9 9 9
          9 9 9 9 9 9 9 9 9 9 9 9
          9 9 9 9 9 9 9 9 9 9 9 9
          9 9 9 9 9 9 9 9 9 9 9 9
          9 9 9 9 9 9
        </DataArray>
      </Cells>
    </Piece>
  </UnstructuredGrid>
</VTKFile>
