<?xml version="1.0"?>
<VTKFile type="UnstructuredGrid" version="0.1" byte_order="LittleEndian">
  <UnstructuredGrid>
    <Piece NumberOfCells="1250" NumberOfPoints="1326">
      <PointData Scalars="S_liq">
        <DataArray type="Float32" Name="S_liq" NumberOfComponents="1" format="ascii">
          0.260307 0.258933 0.286018 0.193751 0.105904 0.100741 0.100009 0.100008 0.1 0.1 0.1 0.1
          0.1 0.1 0.1 0.1 0.1 0.1 0.1 0.1 0.1 0.1 0.1 0.1
          0.1 0.1 0.1 0.1 0.1 0.1 0.1 0.1 0.1 0.1 0.1 0.1
          0.1 0.1 0.1 0.1 0.1 0.1 0.1 0.1 0.1 0.1 0.1 0.1
          0.1 0.1 0.1 0.1 0.1 0.1 0.1 0.1 0.1 0.1 0.1 0.1
          0.1 0.1 0.1 0.1 0.1 0.1 0.1 0.1 0.1 0.1 0.1 0.1
          0.1 0.1 0.1 0.1 0.1 0.1 0.1 0.1 0.1 0.1 0.1 0.1
          0.1 0.1 0.1 0.1 0.1 0.1 0.1 0.1 0.1 0.1 0.1 0.1
          0.1 0.1 0.1 0.1 0.1 0.1 0.290362 0.168251 0.100269 0.100006 0.1 0.1
          0.1 0.1 0.1 0.1 0.1 0.1 0.1 0.1 0.1 0.1 0.1 0.1
          0.1 0.1 0.1 0.1 0.1 0.1 0.1 0.1 0.1 0.1 0.1 0.1
          0.1 0.1 0.1 0.1 0.1 0.1 0.1 0.1 0.1 0.1 0.1 0.1
          0.1 0.1 0.1 0.1 0.1 0.1 0.1 0.1 0.1 0.29058 0.16316 0.100196
          0.100005 0.1 0.1 0.1 0.1 0.1 0.1 0.1 0.1 0.1 0.1 0.1
          0.1 0.1 0.1 0.1 0.1 0.1 0.1 0.1 0.1 0.1 0.1 0.1
          0.1 0.1 0.1 0.1 0.1 0.1 0.1 0.1 0.1 0.1 0.1 0.1
          0.1 0.1 0.1 0.1 0.1 0.1 0.1 0.1 0.1 0.1 0.1 0.1
          0.290535 0.162151 0.100179 0.100005 0.1 0.1 0.1 0.1 0.1 0.1 0.1 0.1
          0.1 0.1 0.1 0.1 0.1 0.1 0.1 0.1 0.1 0.1 0.1 0.1
          0.1 0.1 0.1 0.1 0.1 0.1 0.1 0.1 0.1 0.1 0.1 0.1
          0.1 0.1 0.1 0.1 0.1 0.1 0.1 0.1 0.1 0.1 0.1 0.1
          0.1 0.1 0.1 0.290515 0.161942 0.100174 0.100005 0.1 0.1 0.1 0.1 0.1
          0.1 0.1 0.1 0.1 0.1 0.1 0.1 0.1 0.1 0.1 0.1 0.1
          0.1 0.1 0.1 0.1 0.1 0.1 0.1 0.1 0.1 0.1 0.1 0.1
          0.1 0.1 0.1 0.1 0.1 0.1 0.1 0.1 0.1 0.1 0.1 0.1
          0.1 0.1 0.1 0.1 0.1 0.1 0.290508 0.161892 0.100172 0.100005 0.1 0.1
          0.1 0.1 0.1 0.1 0.1 0.1 0.1 0.1 0.1 0.1 0.1 0.1
          0.1 0.1 0.1 0.1 0.1 0.1 0.1 0.1 0.1 0.1 0.1 0.1
          0.1 0.1 0.1 0.1 0.1 0.1 0.1 0.1 0.1 0.1 0.1 0.1
          0.1 0.1 0.1 0.1 0.1 0.1 0.1 0.1 0.1 0.290506 0.161878 0.100171
          0.100005 0.1 0.1 0.1 0.1 0.1 0.1 0.1 0.1 0.1 0.1 0.1
          0.1 0.1 0.1 0.1 0.1 0.1 0.1 0.1 0.1 0.1 0.1 0.1
          0.1 0.1 0.1 0.1 0.1 0.1 0.1 0.1 0.1 0.1 0.1 0.1
          0.1 0.1 0.1 0.1 0.1 0.1 0.1 0.1 0.1 0.1 0.1 0.1
          0.290505 0.161872 0.100171 0.100005 0.1 0.1 0.1 0.1 0.1 0.1 0.1 0.1
          0.1 0.1 0.1 0.1 0.1 0.1 0.1 0.1 0.1 0.1 0.1 0.1
          0.1 0.1 0.1 0.1 0.1 0.1 0.1 0.1 0.1 0.1 0.1 0.1
          0.1 0.1 0.1 0.1 0.1 0.1 0.1 0.1 0.1 0.1 0.1 0.1
          0.1 0.1 0.1 0.290505 0.16187 0.100171 0.100005 0.1 0.1 0.1 0.1 0.1
          0.1 0.1 0.1 0.1 0.1 0.1 0.1 0.1 0.1 0.1 0.1 0.1
          0.1 0.1 0.1 0.1 0.1 0.1 0.1 0.1 0.1 0.1 0.1 0.1
          0.1 0.1 0.1 0.1 0.1 0.1 0.1 0.1 0.1 0.1 0.1 0.1
          0.1 0.1 0.1 0.1 0.1 0.1 0.290505 0.161869 0.100171 0.100005 0.1 0.1
          0.1 0.1 0.1 0.1 0.1 0.1 0.1 0.1 0.1 0.1 0.1 0.1
          0.1 0.1 0.1 0.1 0.1 0.1 0.1 0.1 0.1 0.1 0.1 0.1
          0.1 0.1 0.1 0.1 0.1 0.1 0.1 0.1 0.1 0.1 0.1 0.1
          0.1 0.1 0.1 0.1 0.1 0.1 0.1 0.1 0.1 0.290504 0.161869 0.100171
          0.100005 0.1 0.1 0.1 0.1 0.1 0.1 0.1 0.1 0.1 0.1 0.1
          0.1 0.1 0.1 0.1 0.1 0.1 0.1 0.1 0.1 0.1 0.1 0.1
          0.1 0.1 0.1 0.1 0.1 0.1 0.1 0.1 0.1 0.1 0.1 0.1
          0.1 0.1 0.1 0.1 0.1 0.1 0.1 0.1 0.1 0.1 0.1 0.1
          0.290504 0.161869 0.100171 0.100005 0.1 0.1 0.1 0.1 0.1 0.1 0.1 0.1
          0.1 0.1 0.1 0.1 0.1 0.1 0.1 0.1 0.1 0.1 0.1 0.1
          0.1 0.1 0.1 0.1 0.1 0.1 0.1 0.1 0.1 0.1 0.1 0.1
          0.1 0.1 0.1 0.1 0.1 0.1 0.1 0.1 0.1 0.1 0.1 0.1
          0.1 0.1 0.1 0.290504 0.161869 0.100171 0.100005 0.1 0.1 0.1 0.1 0.1
          0.1 0.1 0.1 0.1 0.1 0.1 0.1 0.1 0.1 0.1 0.1 0.1
          0.1 0.1 0.1 0.1 0.1 0.1 0.1 0.1 0.1 0.1 0.1 0.1
          0.1 0.1 0.1 0.1 0.1 0.1 0.1 0.1 0.1 0.1 0.1 0.1
          0.1 0.1 0.1 0.1 0.1 0.1 0.290504 0.161869 0.100171 0.100005 0.1 0.1
          0.1 0.1 0.1 0.1 0.1 0.1 0.1 0.1 0.1 0.1 0.1 0.1
          0.1 0.1 0.1 0.1 0.1 0.1 0.1 0.1 0.1 0.1 0.1 0.1
          0.1 0.1 0.1 0.1 0.1 0.1 0.1 0.1 0.1 0.1 0.1 0.1
          0.1 0.1 0.1 0.1 0.1 0.1 0.1 0.1 0.1 0.290504 0.16187 0.100171
          0.100005 0.1 0.1 0.1 0.1 0.1 0.1 0.1 0.1 0.1 0.1 0.1
          0.1 0.1 0.1 0.1 0.1 0.1 0.1 0.1 0.1 0.1 0.1 0.1
          0.1 0.1 0.1 0.1 0.1 0.1 0.1 0.1 0.1 0.1 0.1 0.1
          0.1 0.1 0.1 0.1 0.1 0.1 0.1 0.1 0.1 0.1 0.1 0.1
          0.290504 0.161871 0.100171 0.100005 0.1 0.1 0.1 0.1 0.1 0.1 0.1 0.1
          0.1 0.1 0.1 0.1 0.1 0.1 0.1 0.1 0.1 0.1 0.1 0.1
          0.1 0.1 0.1 0.1 0.1 0.1 0.1 0.1 0.1 0.1 0.1 0.1
          0.1 0.1 0.1 0.1 0.1 0.1 0.1 0.1 0.1 0.1 0.1 0.1
          0.1 0.1 0.1 0.290504 0.161873 0.100171 0.100005 0.1 0.1 0.1 0.1 0.1
          0.1 0.1 0.1 0.1 0.1 0.1 0.1 0.1 0.1 0.1 0.1 0.1
          0.1 0.1 0.1 0.1 0.1 0.1 0.1 0.1 0.1 0.1 0.1 0.1
          0.1 0.1 0.1 0.1 0.1 0.1 0.1 0.1 0.1 0.1 0.1 0.1
          0.1 0.1 0.1 0.1 0.1 0.1 0.290505 0.161878 0.100171 0.100005 0.1 0.1
          0.1 0.1 0.1 0.1 0.1 0.1 0.1 0.1 0.1 0.1 0.1 0.1
          0.1 0.1 0.1 0.1 0.1 0.1 0.1 0.1 0.1 0.1 0.1 0.1
          0.1 0.1 0.1 0.1 0.1 0.1 0.1 0.1 0.1 0.1 0.1 0.1
          0.1 0.1 0.1 0.1 0.1 0.1 0.1 0.1 0.1 0.290508 0.161893 0.100172
          0.100005 0.1 0.1 0.1 0.1 0.1 0.1 0.1 0.1 0.1 0.1 0.1
          0.1 0.1 0.1 0.1 0.1 0.1 0.1 0.1 0.1 0.1 0.1 0.1
          0.1 0.1 0.1 0.1 0.1 0.1 0.1 0.1 0.1 0.1 0.1 0.1
          0.1 0.1 0.1 0.1 0.1 0.1 0.1 0.1 0.1 0.1 0.1 0.1
          0.290518 0.161945 0.100174 0.100005 0.1 0.1 0.1 0.1 0.1 0.1 0.1 0.1
          0.1 0.1 0.1 0.1 0.1 0.1 0.1 0.1 0.1 0.1 0.1 0.1
          0.1 0.1 0.1 0.1 0.1 0.1 0.1 0.1 0.1 0.1 0.1 0.1
          0.1 0.1 0.1 0.1 0.1 0.1 0.1 0.1 0.1 0.1 0.1 0.1
          0.1 0.1 0.1 0.290572 0.162167 0.100179 0.100005 0.1 0.1 0.1 0.1 0.1
          0.1 0.1 0.1 0.1 0.1 0.1 0.1 0.1 0.1 0.1 0.1 0.1
          0.1 0.1 0.1 0.1 0.1 0.1 0.1 0.1 0.1 0.1 0.1 0.1
          0.1 0.1 0.1 0.1 0.1 0.1 0.1 0.1 0.1 0.1 0.1 0.1
          0.1 0.1 0.1 0.1 0.1 0.1 0.290817 0.163262 0.100196 0.100005 0.1 0.1
          0.1 0.1 0.1 0.1 0.1 0.1 0.1 0.1 0.1 0.1 0.1 0.1
          0.1 0.1 0.1 0.1 0.1 0.1 0.1 0.1 0.1 0.1 0.1 0.1
          0.1 0.1 0.1 0.1 0.1 0.1 0.1 0.1 0.1 0.1 0.1 0.1
          0.1 0.1 0.1 0.1 0.1 0.1 0.1 0.1 0.1 0.290645 0.168722 0.10027
          0.100006 0.1 0.1 0.1 0.1 0.1 0.1 0.1 0.1 0.1 0.1 0.1
          0.1 0.1 0.1 0.1 0.1 0.1 0.1 0.1 0.1 0.1 0.1 0.1
          0.1 0.1 0.1 0.1 0.1 0.1 0.1 0.1 0.1 0.1 0.1 0.1
          0.1 0.1 0.1 0.1 0.1 0.1 0.1 0.1 0.1 0.1 0.1 0.1
          0.282513 0.194168 0.100749 0.100008 0.1 0.1 0.1 0.1 0.1 0.1 0.1 0.1
          0.1 0.1 0.1 0.1 0.1 0.1 0.1 0.1 0.1 0.1 0.1 0.1
          0.1 0.1 0.1 0.1 0.1 0.1 0.1 0.1 0.1 0.1 0.1 0.1
          0.1 0.1 0.1 0.1 0.1 0.1 0.1 0.1 0.1 0.1 0.1 0.1
          0.1 0.1 0.1 0.24895 0.252304 0.105154 0.100009 0.1 0.1 0.1 0.1 0.1
          0.1 0.1 0.1 0.1 0.1 0.1 0.1 0.1 0.1 0.1 0.1 0.1
          0.1 0.1 0.1 0.1 0.1 0.1 0.1 0.1 0.1 0.1 0.1 0.1
          0.1 0.1 0.1 0.1 0.1 0.1 0.1 0.1 0.1 0.1 0.1 0.1
          0.1 0.1 0.1 0.1 0.1 0.1
        </DataArray>
        <DataArray type="Float32" Name="p_liq" NumberOfComponents="1" format="ascii">
          100406 99795.3 100216 99737.7 98868.8 98582.6 98541.7 98541.7 98540.8 98540.7 98540.1 98540
          98539.4 98539.2 98538.6 98538.4 98537.8 98537.6 98536.9 98536.8 98536.1 98535.9 98535.2 98535.1
          98534.4 98534.2 98533.6 98533.4 98532.7 98532.5 98531.9 98531.7 98531 98530.8 98530.2 98530
          98529.3 98529.1 98528.5 98528.3 98527.6 98527.4 98526.7 98526.6 98525.9 98525.7 98525 98524.9
          98524.2 98524 98523.3 98523.1 98522.5 98522.3 98521.6 98521.4 98520.8 98520.6 98519.9 98519.7
          98519 98518.8 98518.2 98518 98517.3 98517.1 98516.4 98516.2 98515.5 98515.4 98514.7 98514.5
          98513.8 98513.6 98512.9 98512.7 98512 98511.8 98511.1 98510.9 98510.2 98510 98509.3 98509.1
          98508.4 98508.2 98507.4 98507.2 98506.5 98506.3 98505.5 98505.3 98504.5 98504.3 98503.5 98503.3
          98502.4 98502.2 98501.3 98501.1 98500 98500 100173 99684 98557.9 98542 98540.8 98539.9
          98539.1 98538.3 98537.4 98536.6 98535.7 98534.9 98534 98533.2 98532.3 98531.5 98530.6 98529.8
          98528.9 98528.1 98527.2 98526.4 98525.5 98524.7 98523.8 98523 98522.1 98521.2 98520.4 98519.5
          98518.7 98517.8 98516.9 98516.1 98515.2 98514.3 98513.4 98512.5 98511.7 98510.8 98509.9 98508.9
          98508 98507.1 98506.1 98505.2 98504.2 98503.2 98502.1 98501.1 98500 100161 99668.5 98554
          98542.1 98540.8 98539.8 98539 98538.1 98537.3 98536.4 98535.6 98534.7 98533.9 98533 98532.2
          98531.3 98530.5 98529.6 98528.8 98527.9 98527 98526.2 98525.3 98524.5 98523.6 98522.8 98521.9
          98521.1 98520.2 98519.3 98518.5 98517.6 98516.8 98515.9 98515 98514.1 98513.3 98512.4 98511.5
          98510.6 98509.7 98508.8 98507.9 98506.9 98506 98505 98504.1 98503.1 98502.1 98501 98500
          100157 99664.5 98552.8 98542 98540.7 98539.7 98538.8 98538 98537.1 98536.2 98535.4 98534.5
          98533.7 98532.8 98532 98531.1 98530.3 98529.4 98528.6 98527.7 98526.9 98526 98525.2 98524.3
          98523.5 98522.6 98521.7 98520.9 98520 98519.2 98518.3 98517.4 98516.6 98515.7 98514.8 98514
          98513.1 98512.2 98511.3 98510.4 98509.5 98508.6 98507.7 98506.8 98505.9 98504.9 98504 98503
          98502 98501 98500 100155 99663.2 98552.2 98541.8 98540.5 98539.6 98538.7 98537.8 98536.9
          98536.1 98535.2 98534.4 98533.5 98532.6 98531.8 98530.9 98530.1 98529.2 98528.4 98527.5 98526.7
          98525.8 98525 98524.1 98523.3 98522.4 98521.6 98520.7 98519.9 98519 98518.1 98517.3 98516.4
          98515.5 98514.7 98513.8 98512.9 98512 98511.2 98510.3 98509.4 98508.5 98507.6 98506.7 98505.7
          98504.8 98503.9 98502.9 98501.9 98501 98500 100155 99662.6 98551.7 98541.5 98540.3 98539.4
          98538.5 98537.6 98536.8 98535.9 98535 98534.2 98533.3 98532.5 98531.6 98530.8 98529.9 98529.1
          98528.2 98527.4 98526.5 98525.6 98524.8 98523.9 98523.1 98522.2 98521.4 98520.5 98519.7 98518.8
          98518 98517.1 98516.2 98515.4 98514.5 98513.6 98512.8 98511.9 98511 98510.1 98509.2 98508.4
          98507.5 98506.5 98505.6 98504.7 98503.8 98502.8 98501.9 98501 98500 100154 99662.2 98551.4
          98541.2 98540.1 98539.2 98538.3 98537.4 98536.6 98535.7 98534.9 98534 98533.1 98532.3 98531.4
          98530.6 98529.7 98528.9 98528 98527.2 98526.3 98525.5 98524.6 98523.8 98522.9 98522.1 98521.2
          98520.4 98519.5 98518.6 98517.8 98516.9 98516.1 98515.2 98514.4 98513.5 98512.6 98511.7 98510.9
          98510 98509.1 98508.2 98507.3 98506.4 98505.5 98504.6 98503.7 98502.8 98501.9 98500.9 98500
          100154 99661.9 98551.1 98541 98539.9 98539 98538.1 98537.3 98536.4 98535.5 98534.7 98533.8
          98533 98532.1 98531.3 98530.4 98529.5 98528.7 98527.8 98527 98526.1 98525.3 98524.4 98523.6
          98522.7 98521.9 98521 98520.2 98519.3 98518.5 98517.6 98516.8 98515.9 98515 98514.2 98513.3
          98512.5 98511.6 98510.7 98509.9 98509 98508.1 98507.2 98506.3 98505.4 98504.5 98503.6 98502.7
          98501.8 98500.9 98500 100154 99661.7 98550.9 98540.8 98539.7 98538.8 98537.9 98537.1 98536.2
          98535.4 98534.5 98533.6 98532.8 98531.9 98531.1 98530.2 98529.4 98528.5 98527.7 98526.8 98526
          98525.1 98524.3 98523.4 98522.6 98521.7 98520.9 98520 98519.2 98518.3 98517.5 98516.6 98515.7
          98514.9 98514 98513.2 98512.3 98511.5 98510.6 98509.7 98508.9 98508 98507.1 98506.2 98505.4
          98504.5 98503.6 98502.7 98501.8 98500.9 98500 100154 99661.5 98550.6 98540.5 98539.5 98538.6
          98537.7 98536.9 98536 98535.2 98534.3 98533.5 98532.6 98531.7 98530.9 98530 98529.2 98528.3
          98527.5 98526.6 98525.8 98524.9 98524.1 98523.2 98522.4 98521.5 98520.7 98519.8 98519 98518.1
          98517.3 98516.4 98515.6 98514.7 98513.9 98513 98512.2 98511.3 98510.5 98509.6 98508.7 98507.9
          98507 98506.1 98505.3 98504.4 98503.5 98502.6 98501.8 98500.9 98500 100153 99661.2 98550.4
          98540.3 98539.2 98538.4 98537.5 98536.7 98535.8 98535 98534.1 98533.3 98532.4 98531.6 98530.7
          98529.9 98529 98528.2 98527.3 98526.5 98525.6 98524.8 98523.9 98523.1 98522.2 98521.4 98520.5
          98519.7 98518.8 98518 98517.1 98516.3 98515.4 98514.6 98513.7 98512.9 98512 98511.2 98510.3
          98509.5 98508.6 98507.8 98506.9 98506 98505.2 98504.3 98503.5 98502.6 98501.7 98500.9 98500
          100153 99661 98550.2 98540.1 98539.1 98538.2 98537.4 98536.5 98535.7 98534.8 98533.9 98533.1
          98532.2 98531.4 98530.5 98529.7 98528.8 98528 98527.1 98526.3 98525.4 98524.6 98523.7 98522.9
          98522 98521.2 98520.3 98519.5 98518.6 98517.8 98517 98516.1 98515.3 98514.4 98513.6 98512.7
          98511.9 98511 98510.2 98509.3 98508.5 98507.6 98506.8 98505.9 98505.1 98504.2 98503.4 98502.5
          98501.7 98500.9 98500 100153 99660.9 98550 98540 98538.9 98538 98537.2 98536.3 98535.5
          98534.6 98533.8 98532.9 98532.1 98531.2 98530.4 98529.5 98528.6 98527.8 98526.9 98526.1 98525.2
          98524.4 98523.6 98522.7 98521.9 98521 98520.2 98519.3 98518.5 98517.6 98516.8 98515.9 98515.1
          98514.3 98513.4 98512.6 98511.7 98510.9 98510 98509.2 98508.4 98507.5 98506.7 98505.9 98505
          98504.2 98503.3 98502.5 98501.7 98500.8 98500 100153 99660.7 98549.9 98539.8 98538.7 98537.8
          98537 98536.1 98535.3 98534.4 98533.6 98532.7 98531.9 98531 98530.2 98529.3 98528.5 98527.6
          98526.8 98525.9 98525.1 98524.2 98523.4 98522.5 98521.7 98520.8 98520 98519.1 98518.3 98517.5
          98516.6 98515.8 98514.9 98514.1 98513.3 98512.4 98511.6 98510.8 98509.9 98509.1 98508.2 98507.4
          98506.6 98505.8 98504.9 98504.1 98503.3 98502.5 98501.6 98500.8 98500 100153 99660.5 98549.7
          98539.6 98538.5 98537.7 98536.8 98536 98535.1 98534.3 98533.4 98532.5 98531.7 98530.8 98530
          98529.1 98528.3 98527.4 98526.6 98525.7 98524.9 98524 98523.2 98522.4 98521.5 98520.7 98519.8
          98519 98518.1 98517.3 98516.5 98515.6 98514.8 98513.9 98513.1 98512.3 98511.4 98510.6 98509.8
          98509 98508.1 98507.3 98506.5 98505.7 98504.9 98504 98503.2 98502.4 98501.6 98500.8 98500
          100152 99660.4 98549.6 98539.5 98538.4 98537.5 98536.7 98535.8 98534.9 98534.1 98533.2 98532.4
          98531.5 98530.7 98529.8 98529 98528.1 98527.2 98526.4 98525.6 98524.7 98523.9 98523 98522.2
          98521.3 98520.5 98519.6 98518.8 98518 98517.1 98516.3 98515.5 98514.6 98513.8 98513 98512.1
          98511.3 98510.5 98509.6 98508.8 98508 98507.2 98506.4 98505.6 98504.8 98504 98503.2 98502.4
          98501.6 98500.8 98500 100152 99660.3 98549.5 98539.3 98538.2 98537.4 98536.5 98535.6 98534.8
          98533.9 98533 98532.2 98531.3 98530.5 98529.6 98528.8 98527.9 98527.1 98526.2 98525.4 98524.5
          98523.7 98522.8 98522 98521.2 98520.3 98519.5 98518.6 98517.8 98517 98516.1 98515.3 98514.5
          98513.6 98512.8 98512 98511.1 98510.3 98509.5 98508.7 98507.9 98507.1 98506.3 98505.5 98504.7
          98503.9 98503.1 98502.3 98501.5 98500.8 98500 100152 99660.2 98549.4 98539.2 98538.1 98537.2
          98536.3 98535.4 98534.6 98533.7 98532.9 98532 98531.1 98530.3 98529.4 98528.6 98527.7 98526.9
          98526 98525.2 98524.4 98523.5 98522.7 98521.8 98521 98520.1 98519.3 98518.5 98517.6 98516.8
          98516 98515.1 98514.3 98513.5 98512.6 98511.8 98511 98510.2 98509.4 98508.6 98507.8 98506.9
          98506.2 98505.4 98504.6 98503.8 98503 98502.3 98501.5 98500.8 98500 100152 99660.3 98549.3
          98539.1 98537.9 98537 98536.1 98535.3 98534.4 98533.5 98532.7 98531.8 98531 98530.1 98529.2
          98528.4 98527.6 98526.7 98525.9 98525 98524.2 98523.3 98522.5 98521.6 98520.8 98520 98519.1
          98518.3 98517.4 98516.6 98515.8 98514.9 98514.1 98513.3 98512.5 98511.7 98510.8 98510 98509.2
          98508.4 98507.6 98506.8 98506 98505.3 98504.5 98503.7 98503 98502.2 98501.5 98500.7 98500
          100153 99660.5 98549.4 98539 98537.8 98536.9 98535.9 98535.1 98534.2 98533.3 98532.5 98531.6
          98530.8 98529.9 98529.1 98528.2 98527.4 98526.5 98525.7 98524.8 98524 98523.1 98522.3 98521.5
          98520.6 98519.8 98518.9 98518.1 98517.3 98516.4 98515.6 98514.8 98514 98513.1 98512.3 98511.5
          98510.7 98509.9 98509.1 98508.3 98507.5 98506.7 98505.9 98505.1 98504.4 98503.6 98502.9 98502.1
          98501.4 98500.7 98500 100154 99661.4 98549.7 98538.9 98537.6 98536.6 98535.7 98534.9 98534
          98533.1 98532.3 98531.4 98530.6 98529.7 98528.9 98528 98527.2 98526.3 98525.5 98524.6 98523.8
          98523 98522.1 98521.3 98520.4 98519.6 98518.8 98517.9 98517.1 98516.3 98515.4 98514.6 98513.8
          98513 98512.1 98511.3 98510.5 98509.7 98508.9 98508.1 98507.3 98506.5 98505.8 98505 98504.3
          98503.5 98502.8 98502.1 98501.4 98500.7 98500 100157 99665.3 98550.6 98538.6 98537.3 98536.4
          98535.5 98534.7 98533.8 98532.9 98532.1 98531.2 98530.4 98529.5 98528.7 98527.9 98527 98526.2
          98525.3 98524.5 98523.6 98522.8 98521.9 98521.1 98520.3 98519.4 98518.6 98517.8 98516.9 98516.1
          98515.3 98514.4 98513.6 98512.8 98512 98511.2 98510.3 98509.5 98508.8 98508 98507.2 98506.4
          98505.6 98504.9 98504.1 98503.4 98502.7 98502 98501.3 98500.6 98500 100169 99681.3 98554.2
          98538.2 98537 98536.1 98535.3 98534.4 98533.6 98532.8 98531.9 98531.1 98530.2 98529.4 98528.5
          98527.7 98526.8 98526 98525.1 98524.3 98523.4 98522.6 98521.8 98520.9 98520.1 98519.2 98518.4
          98517.6 98516.7 98515.9 98515.1 98514.2 98513.4 98512.6 98511.8 98511 98510.2 98509.4 98508.6
          98507.8 98507 98506.2 98505.5 98504.7 98504 98503.3 98502.6 98501.9 98501.2 98500.6 98500
          100206 99734.2 98579 98537.6 98536.6 98535.8 98535 98534.2 98533.4 98532.6 98531.7 98530.9
          98530 98529.2 98528.3 98527.5 98526.6 98525.8 98524.9 98524.1 98523.3 98522.4 98521.6 98520.7
          98519.9 98519.1 98518.2 98517.4 98516.6 98515.7 98514.9 98514.1 98513.2 98512.4 98511.6 98510.8
          98510 98509.2 98508.4 98507.6 98506.8 98506.1 98505.3 98504.6 98503.8 98503.1 98502.4 98501.8
          98501.1 98500.5 98500 100376 99786.5 98822.8 98537.2 98536.3 98535.6 98534.8 98534 98533.2
          98532.4 98531.5 98530.7 98529.8 98529 98528.1 98527.3 98526.5 98525.6 98524.8 98523.9 98523.1
          98522.2 98521.4 98520.5 98519.7 98518.9 98518 98517.2 98516.4 98515.5 98514.7 98513.9 98513.1
          98512.2 98511.4 98510.6 98509.8 98509 98508.2 98507.4 98506.7 98505.9 98505.1 98504.4 98503.6
          98502.9 98502.2 98501.6 98501 98500.4 98500
        </DataArray>
        <DataArray type="Float32" Name="rho_liq" NumberOfComponents="1" format="ascii">
          958.624 973.83 958.787 984.117 997.251 997.485 998.154 998.16 998.197 998.197 998.199 998.199
          998.199 998.199 998.199 998.199 998.199 998.199 998.199 998.199 998.199 998.199 998.199 998.199
          998.199 998.199 998.199 998.199 998.199 998.199 998.199 998.199 998.199 998.199 998.199 998.199
          998.199 998.199 998.199 998.199 998.199 998.199 998.199 998.199 998.199 998.199 998.199 998.199
          998.199 998.199 998.199 998.199 998.199 998.199 998.199 998.199 998.199 998.199 998.199 998.199
          998.199 998.199 998.199 998.199 998.199 998.199 998.199 998.199 998.199 998.199 998.199 998.199
          998.199 998.199 998.199 998.199 998.199 998.199 998.199 998.199 998.199 998.199 998.199 998.199
          998.199 998.199 998.199 998.199 998.199 998.199 998.199 998.199 998.199 998.199 998.199 998.199
          998.199 998.199 998.199 998.199 998.199 998.199 958.871 988.445 997.718 998.17 998.197 998.199
          998.199 998.199 998.199 998.199 998.199 998.199 998.199 998.199 998.199 998.199 998.199 998.199
          998.199 998.199 998.199 998.199 998.199 998.199 998.199 998.199 998.199 998.199 998.199 998.199
          998.199 998.199 998.199 998.199 998.199 998.199 998.199 998.199 998.199 998.199 998.199 998.199
          998.199 998.199 998.199 998.199 998.199 998.199 998.199 998.199 998.199 958.893 989.374 997.791
          998.176 998.198 998.199 998.199 998.199 998.199 998.199 998.199 998.199 998.199 998.199 998.199
          998.199 998.199 998.199 998.199 998.199 998.199 998.199 998.199 998.199 998.199 998.199 998.199
          998.199 998.199 998.199 998.199 998.199 998.199 998.199 998.199 998.199 998.199 998.199 998.199
          998.199 998.199 998.199 998.199 998.199 998.199 998.199 998.199 998.199 998.199 998.199 998.199
          958.897 989.556 997.805 998.177 998.198 998.199 998.199 998.199 998.199 998.199 998.199 998.199
          998.199 998.199 998.199 998.199 998.199 998.199 998.199 998.199 998.199 998.199 998.199 998.199
          998.199 998.199 998.199 998.199 998.199 998.199 998.199 998.199 998.199 998.199 998.199 998.199
          998.199 998.199 998.199 998.199 998.199 998.199 998.199 998.199 998.199 998.199 998.199 998.199
          998.199 998.199 998.199 958.898 989.592 997.808 998.177 998.198 998.199 998.199 998.199 998.199
          998.199 998.199 998.199 998.199 998.199 998.199 998.199 998.199 998.199 998.199 998.199 998.199
          998.199 998.199 998.199 998.199 998.199 998.199 998.199 998.199 998.199 998.199 998.199 998.199
          998.199 998.199 998.199 998.199 998.199 998.199 998.199 998.199 998.199 998.199 998.199 998.199
          998.199 998.199 998.199 998.199 998.199 998.199 958.898 989.6 997.808 998.177 998.198 998.199
          998.199 998.199 998.199 998.199 998.199 998.199 998.199 998.199 998.199 998.199 998.199 998.199
          998.199 998.199 998.199 998.199 998.199 998.199 998.199 998.199 998.199 998.199 998.199 998.199
          998.199 998.199 998.199 998.199 998.199 998.199 998.199 998.199 998.199 998.199 998.199 998.199
          998.199 998.199 998.199 998.199 998.199 998.199 998.199 998.199 998.199 958.898 989.602 997.808
          998.177 998.198 998.199 998.199 998.199 998.199 998.199 998.199 998.199 998.199 998.199 998.199
          998.199 998.199 998.199 998.199 998.199 998.199 998.199 998.199 998.199 998.199 998.199 998.199
          998.199 998.199 998.199 998.199 998.199 998.199 998.199 998.199 998.199 998.199 998.199 998.199
          998.199 998.199 998.199 998.199 998.199 998.199 998.199 998.199 998.199 998.199 998.199 998.199
          958.898 989.603 997.809 998.177 998.198 998.199 998.199 998.199 998.199 998.199 998.199 998.199
          998.199 998.199 998.199 998.199 998.199 998.199 998.199 998.199 998.199 998.199 998.199 998.199
          998.199 998.199 998.199 998.199 998.199 998.199 998.199 998.199 998.199 998.199 998.199 998.199
          998.199 998.199 998.199 998.199 998.199 998.199 998.199 998.199 998.199 998.199 998.199 998.199
          998.199 998.199 998.199 958.898 989.603 997.809 998.177 998.198 998.199 998.199 998.199 998.199
          998.199 998.199 998.199 998.199 998.199 998.199 998.199 998.199 998.199 998.199 998.199 998.199
          998.199 998.199 998.199 998.199 998.199 998.199 998.199 998.199 998.199 998.199 998.199 998.199
          998.199 998.199 998.199 998.199 998.199 998.199 998.199 998.199 998.199 998.199 998.199 998.199
          998.199 998.199 998.199 998.199 998.199 998.199 958.898 989.603 997.809 998.177 998.198 998.199
          998.199 998.199 998.199 998.199 998.199 998.199 998.199 998.199 998.199 998.199 998.199 998.199
          998.199 998.199 998.199 998.199 998.199 998.199 998.199 998.199 998.199 998.199 998.199 998.199
          998.199 998.199 998.199 998.199 998.199 998.199 998.199 998.199 998.199 998.199 998.199 998.199
          998.199 998.199 998.199 998.199 998.199 998.199 998.199 998.199 998.199 958.898 989.603 997.809
          998.177 998.198 998.199 998.199 998.199 998.199 998.199 998.199 998.199 998.199 998.199 998.199
          998.199 998.199 998.199 998.199 998.199 998.199 998.199 998.199 998.199 998.199 998.199 998.199
          998.199 998.199 998.199 998.199 998.199 998.199 998.199 998.199 998.199 998.199 998.199 998.199
          998.199 998.199 998.199 998.199 998.199 998.199 998.199 998.199 998.199 998.199 998.199 998.199
          958.898 989.603 997.809 998.177 998.198 998.199 998.199 998.199 998.199 998.199 998.199 998.199
          998.199 998.199 998.199 998.199 998.199 998.199 998.199 998.199 998.199 998.199 998.199 998.199
          998.199 998.199 998.199 998.199 998.199 998.199 998.199 998.199 998.199 998.199 998.199 998.199
          998.199 998.199 998.199 998.199 998.199 998.199 998.199 998.199 998.199 998.199 998.199 998.199
          998.199 998.199 998.199 958.899 989.603 997.809 998.177 998.198 998.199 998.199 998.199 998.199
          998.199 998.199 998.199 998.199 998.199 998.199 998.199 998.199 998.199 998.199 998.199 998.199
          998.199 998.199 998.199 998.199 998.199 998.199 998.199 998.199 998.199 998.199 998.199 998.199
          998.199 998.199 998.199 998.199 998.199 998.199 998.199 998.199 998.199 998.199 998.199 998.199
          998.199 998.199 998.199 998.199 998.199 998.199 958.899 989.603 997.809 998.177 998.198 998.199
          998.199 998.199 998.199 998.199 998.199 998.199 998.199 998.199 998.199 998.199 998.199 998.199
          998.199 998.199 998.199 998.199 998.199 998.199 998.199 998.199 998.199 998.199 998.199 998.199
          998.199 998.199 998.199 998.199 998.199 998.199 998.199 998.199 998.199 998.199 998.199 998.199
          998.199 998.199 998.199 998.199 998.199 998.199 998.199 998.199 998.199 958.899 989.603 997.809
          998.177 998.198 998.199 998.199 998.199 998.199 998.199 998.199 998.199 998.199 998.199 998.199
          998.199 998.199 998.199 998.199 998.199 998.199 998.199 998.199 998.199 998.199 998.199 998.199
          998.199 998.199 998.199 998.199 998.199 998.199 998.199 998.199 998.199 998.199 998.199 998.199
          998.199 998.199 998.199 998.199 998.199 998.199 998.199 998.199 998.199 998.199 998.199 998.199
          958.899 989.603 997.809 998.177 998.198 998.199 998.199 998.199 998.199 998.199 998.199 998.199
          998.199 998.199 998.199 998.199 998.199 998.199 998.199 998.199 998.199 998.199 998.199 998.199
          998.199 998.199 998.199 998.199 998.199 998.199 998.199 998.199 998.199 998.199 998.199 998.199
          998.199 998.199 998.199 998.199 998.199 998.199 998.199 998.199 998.199 998.199 998.199 998.199
          998.199 998.199 998.199 958.899 989.603 997.809 998.177 998.198 998.199 998.199 998.199 998.199
          998.199 998.199 998.199 998.199 998.199 998.199 998.199 998.199 998.199 998.199 998.199 998.199
          998.199 998.199 998.199 998.199 998.199 998.199 998.199 998.199 998.199 998.199 998.199 998.199
          998.199 998.199 998.199 998.199 998.199 998.199 998.199 998.199 998.199 998.199 998.199 998.199
          998.199 998.199 998.199 998.199 998.199 998.199 958.899 989.602 997.808 998.177 998.198 998.199
          998.199 998.199 998.199 998.199 998.199 998.199 998.199 998.199 998.199 998.199 998.199 998.199
          998.199 998.199 998.199 998.199 998.199 998.199 998.199 998.199 998.199 998.199 998.199 998.199
          998.199 998.199 998.199 998.199 998.199 998.199 998.199 998.199 998.199 998.199 998.199 998.199
          998.199 998.199 998.199 998.199 998.199 998.199 998.199 998.199 998.199 958.899 989.6 997.808
          998.177 998.198 998.199 998.199 998.199 998.199 998.199 998.199 998.199 998.199 998.199 998.199
          998.199 998.199 998.199 998.199 998.199 998.199 998.199 998.199 998.199 998.199 998.199 998.199
          998.199 998.199 998.199 998.199 998.199 998.199 998.199 998.199 998.199 998.199 998.199 998.199
          998.199 998.199 998.199 998.199 998.199 998.199 998.199 998.199 998.199 998.199 998.199 998.199
          958.898 989.591 997.808 998.177 998.198 998.199 998.199 998.199 998.199 998.199 998.199 998.199
          998.199 998.199 998.199 998.199 998.199 998.199 998.199 998.199 998.199 998.199 998.199 998.199
          998.199 998.199 998.199 998.199 998.199 998.199 998.199 998.199 998.199 998.199 998.199 998.199
          998.199 998.199 998.199 998.199 998.199 998.199 998.199 998.199 998.199 998.199 998.199 998.199
          998.199 998.199 998.199 958.898 989.555 997.805 998.177 998.198 998.199 998.199 998.199 998.199
          998.199 998.199 998.199 998.199 998.199 998.199 998.199 998.199 998.199 998.199 998.199 998.199
          998.199 998.199 998.199 998.199 998.199 998.199 998.199 998.199 998.199 998.199 998.199 998.199
          998.199 998.199 998.199 998.199 998.199 998.199 998.199 998.199 998.199 998.199 998.199 998.199
          998.199 998.199 998.199 998.199 998.199 998.199 958.893 989.374 997.791 998.176 998.198 998.199
          998.199 998.199 998.199 998.199 998.199 998.199 998.199 998.199 998.199 998.199 998.199 998.199
          998.199 998.199 998.199 998.199 998.199 998.199 998.199 998.199 998.199 998.199 998.199 998.199
          998.199 998.199 998.199 998.199 998.199 998.199 998.199 998.199 998.199 998.199 998.199 998.199
          998.199 998.199 998.199 998.199 998.199 998.199 998.199 998.199 998.199 958.872 988.454 997.718
          998.17 998.197 998.199 998.199 998.199 998.199 998.199 998.199 998.199 998.199 998.199 998.199
          998.199 998.199 998.199 998.199 998.199 998.199 998.199 998.199 998.199 998.199 998.199 998.199
          998.199 998.199 998.199 998.199 998.199 998.199 998.199 998.199 998.199 998.199 998.199 998.199
          998.199 998.199 998.199 998.199 998.199 998.199 998.199 998.199 998.199 998.199 998.199 998.199
          958.791 984.16 997.485 998.161 998.197 998.199 998.199 998.199 998.199 998.199 998.199 998.199
          998.199 998.199 998.199 998.199 998.199 998.199 998.199 998.199 998.199 998.199 998.199 998.199
          998.199 998.199 998.199 998.199 998.199 998.199 998.199 998.199 998.199 998.199 998.199 998.199