<?xml version="1.0"?>
<VTKFile type="UnstructuredGrid" version="0.1" byte_order="LittleEndian">
  <UnstructuredGrid>
    <Piece NumberOfCells="1670" NumberOfPoints="911">
      <CellData Scalars="porosity">
        <DataArray type="Float32" Name="porosity" NumberOfComponents="1" format="ascii">
          0.4 0.4 0.4 0.4 0.4 0.4 0.4 0.4 0.4 0.4 0.4 0.4
          0.4 0.4 0.4 0.4 0.4 0.4 0.4 0.4 0.4 0.4 0.4 0.4
          0.4 0.4 0.4 0.4 0.4 0.4 0.4 0.4 0.4 0.4 0.4 0.4
          0.4 0.4 0.4 0.4 0.4 0.4 0.4 0.4 0.4 0.4 0.4 0.4
          0.4 0.4 0.4 0.4 0.4 0.4 0.4 0.4 0.4 0.4 0.4 0.4
          0.4 0.4 0.4 0.4 0.4 0.4 0.4 0.4 0.4 0.4 0.4 0.4
          0.4 0.4 0.4 0.4 0.4 0.4 0.4 0.4 0.4 0.4 0.4 0.4
          0.4 0.4 0.4 0.4 0.4 0.4 0.4 0.4 0.4 0.4 0.4 0.4
          0.4 0.4 0.4 0.4 0.4 0.4 0.4 0.4 0.4 0.4 0.4 0.4
          0.4 0.4 0.4 0.4 0.4 0.4 0.4 0.4 0.4 0.4 0.4 0.4
          0.4 0.4 0.4 0.4 0.4 0.4 0.4 0.4 0.4 0.4 0.4 0.4
          0.4 0.4 0.4 0.4 0.4 0.4 0.4 0.4 0.4 0.4 0.4 0.4
          0.4 0.4 0.4 0.4 0.4 0.4 0.4 0.4 0.4 0.4 0.4 0.4
          0.4 0.4 0.4 0.4 0.4 0.4 0.4 0.4 0.4 0.4 0.4 0.4
          0.4 0.4 0.4 0.4 0.4 0.4 0.4 0.4 0.4 0.4 0.4 0.4
          0.4 0.4 0.4 0.4 0.4 0.4 0.4 0.4 0.4 0.4 0.4 0.4
          0.4 0.4 0.4 0.4 0.4 0.4 0.4 0.4 0.4 0.4 0.4 0.4
          0.4 0.4 0.4 0.4 0.4 0.4 0.4 0.4 0.4 0.4 0.4 0.4
          0.4 0.4 0.4 0.4 0.4 0.4 0.4 0.4 0.4 0.4 0.4 0.4
          0.4 0.4 0.4 0.4 0.4 0.4 0.4 0.4 0.4 0.4 0.4 0.4
          0.4 0.4 0.4 0.4 0.4 0.4 0.4 0.4 0.4 0.4 0.4 0.4
          0.4 0.4 0.4 0.4 0.4 0.4 0.4 0.4 0.4 0.4 0.4 0.4
          0.4 0.4 0.4 0.4 0.4 0.4 0.4 0.4 0.4 0.4 0.4 0.4
          0.4 0.4 0.4 0.4 0.4 0.4 0.4 0.4 0.4 0.4 0.4 0.4
          0.4 0.4 0.4 0.4 0.4 0.4 0.4 0.4 0.4 0.4 0.4 0.4
          0.4 0.4 0.4 0.4 0.4 0.4 0.4 0.4 0.4 0.4 0.4 0.4
          0.4 0.4 0.4 0.4 0.4 0.4 0.4 0.4 0.4 0.4 0.4 0.4
          0.4 0.4 0.4 0.4 0.4 0.4 0.4 0.4 0.4 0.4 0.4 0.4
          0.4 0.4 0.4 0.4 0.4 0.4 0.4 0.4 0.4 0.4 0.4 0.4
          0.4 0.4 0.4 0.4 0.4 0.4 0.4 0.4 0.4 0.4 0.4 0.4
          0.4 0.4 0.4 0.4 0.4 0.4 0.4 0.4 0.4 0.4 0.4 0.4
          0.4 0.4 0.4 0.4 0.4 0.4 0.4 0.4 0.4 0.4 0.4 0.4
          0.4 0.4 0.4 0.4 0.4 0.4 0.4 0.4 0.4 0.4 0.4 0.4
          0.4 0.4 0.4 0.4 0.4 0.4 0.4 0.4 0.4 0.4 0.4 0.4
          0.4 0.4 0.4 0.4 0.4 0.4 0.4 0.4 0.4 0.4 0.4 0.4
          0.4 0.4 0.4 0.4 0.4 0.4 0.4 0.4 0.4 0.4 0.4 0.4
          0.4 0.4 0.4 0.4 0.4 0.4 0.4 0.4 0.4 0.4 0.4 0.4
          0.4 0.4 0.4 0.4 0.4 0.4 0.4 0.4 0.4 0.4 0.4 0.4
          0.4 0.4 0.4 0.4 0.4 0.4 0.4 0.4 0.4 0.4 0.4 0.4
          0.4 0.4 0.4 0.4 0.4 0.4 0.4 0.4 0.4 0.4 0.4 0.4
          0.4 0.4 0.4 0.4 0.4 0.4 0.4 0.4 0.4 0.4 0.4 0.4
          0.4 0.4 0.4 0.4 0.4 0.4 0.4 0.4 0.4 0.4 0.4 0.4
          0.4 0.4 0.4 0.4 0.4 0.4 0.4 0.4 0.4 0.4 0.4 0.4
          0.4 0.4 0.4 0.4 0.4 0.4 0.4 0.4 0.4 0.4 0.4 0.4
          0.4 0.4 0.4 0.4 0.4 0.4 0.4 0.4 0.4 0.4 0.4 0.4
          0.4 0.4 0.4 0.4 0.4 0.4 0.4 0.4 0.4 0.4 0.4 0.4
          0.4 0.4 0.4 0.4 0.4 0.4 0.4 0.4 0.4 0.4 0.4 0.4
          0.4 0.4 0.4 0.4 0.4 0.4 0.4 0.4 0.4 0.4 0.4 0.4
          0.4 0.4 0.4 0.4 0.4 0.4 0.4 0.4 0.4 0.4 0.4 0.4
          0.4 0.4 0.4 0.4 0.4 0.4 0.4 0.4 0.4 0.4 0.4 0.4
          0.4 0.4 0.4 0.4 0.4 0.4 0.4 0.4 0.4 0.4 0.4 0.4
          0.4 0.4 0.4 0.4 0.4 0.4 0.4 0.4 0.4 0.4 0.4 0.4
          0.4 0.4 0.4 0.4 0.4 0.4 0.4 0.4 0.4 0.4 0.4 0.4
          0.4 0.4 0.4 0.4 0.4 0.4 0.4 0.4 0.4 0.4 0.4 0.4
          0.4 0.4 0.4 0.4 0.4 0.4 0.4 0.4 0.4 0.4 0.4 0.4
          0.4 0.4 0.4 0.4 0.4 0.4 0.4 0.4 0.4 0.4 0.4 0.4
          0.4 0.4 0.4 0.4 0.4 0.4 0.4 0.4 0.4 0.4 0.4 0.4
          0.4 0.4 0.4 0.4 0.4 0.4 0.4 0.4 0.4 0.4 0.4 0.4
          0.4 0.4 0.4 0.4 0.4 0.4 0.4 0.4 0.4 0.4 0.4 0.4
          0.4 0.4 0.4 0.4 0.4 0.4 0.4 0.4 0.4 0.4 0.4 0.4
          0.4 0.4 0.4 0.4 0.4 0.4 0.4 0.4 0.4 0.4 0.4 0.4
          0.4 0.4 0.4 0.4 0.4 0.4 0.4 0.4 0.4 0.4 0.4 0.4
          0.4 0.4 0.4 0.4 0.4 0.4 0.4 0.4 0.4 0.4 0.4 0.4
          0.4 0.4 0.4 0.4 0.4 0.4 0.4 0.4 0.4 0.4 0.4 0.4
          0.4 0.4 0.4 0.4 0.4 0.4 0.4 0.4 0.4 0.4 0.4 0.4
          0.4 0.4 0.4 0.4 0.4 0.4 0.4 0.4 0.4 0.4 0.4 0.4
          0.4 0.4 0.4 0.4 0.4 0.4 0.4 0.4 0.4 0.4 0.4 0.4
          0.4 0.4 0.4 0.4 0.4 0.4 0.4 0.4 0.4 0.4 0.4 0.4
          0.4 0.4 0.4 0.4 0.4 0.4 0.4 0.4 0.4 0.4 0.4 0.4
          0.4 0.4 0.4 0.4 0.4 0.4 0.4 0.4 0.4 0.4 0.4 0.4
          0.4 0.4 0.4 0.4 0.4 0.4 0.4 0.4 0.4 0.4 0.4 0.4
          0.4 0.4 0.4 0.4 0.4 0.4 0.4 0.4 0.4 0.4 0.4 0.4
          0.4 0.4 0.4 0.4 0.4 0.4 0.4 0.4 0.4 0.4 0.4 0.4
          0.4 0.4 0.4 0.4 0.4 0.4 0.4 0.4 0.4 0.4 0.4 0.4
          0.4 0.4 0.4 0.4 0.4 0.4 0.4 0.4 0.4 0.4 0.4 0.4
          0.4 0.4 0.4 0.4 0.4 0.4 0.4 0.4 0.4 0.4 0.4 0.4
          0.4 0.4 0.4 0.4 0.4 0.4 0.4 0.4 0.4 0.4 0.4 0.4
          0.4 0.4 0.4 0.4 0.4 0.4 0.4 0.4 0.4 0.4 0.4 0.4
          0.4 0.4 0.4 0.4 0.4 0.4 0.4 0.4 0.4 0.4 0.4 0.4
          0.4 0.4 0.4 0.4 0.4 0.4 0.4 0.4 0.4 0.4 0.4 0.4
          0.4 0.4 0.4 0.4 0.4 0.4 0.4 0.4 0.4 0.4 0.4 0.4
          0.4 0.4 0.4 0.4 0.4 0.4 0.4 0.4 0.4 0.4 0.4 0.4
          0.4 0.4 0.4 0.4 0.4 0.4 0.4 0.4 0.4 0.4 0.4 0.4
          0.4 0.4 0.4 0.4 0.4 0.4 0.4 0.4 0.4 0.4 0.4 0.4
          0.4 0.4 0.4 0.4 0.4 0.4 0.4 0.4 0.4 0.4 0.4 0.4
          0.4 0.4 0.4 0.4 0.4 0.4 0.4 0.4 0.4 0.4 0.4 0.4
          0.4 0.4 0.4 0.4 0.4 0.4 0.4 0.4 0.4 0.4 0.4 0.4
          0.4 0.4 0.4 0.4 0.4 0.4 0.4 0.4 0.4 0.4 0.4 0.4
          0.4 0.4 0.4 0.4 0.4 0.4 0.4 0.4 0.4 0.4 0.4 0.4
          0.4 0.4 0.4 0.4 0.4 0.4 0.4 0.4 0.4 0.4 0.4 0.4
          0.4 0.4 0.4 0.4 0.4 0.4 0.4 0.4 0.4 0.4 0.4 0.4
          0.4 0.4 0.4 0.4 0.4 0.4 0.4 0.4 0.4 0.4 0.4 0.4
          0.4 0.4 0.4 0.4 0.4 0.4 0.4 0.4 0.4 0.4 0.4 0.4
          0.4 0.4 0.4 0.4 0.4 0.4 0.4 0.4 0.4 0.4 0.4 0.4
          0.4 0.4 0.4 0.4 0.4 0.4 0.4 0.4 0.4 0.4 0.4 0.4
          0.4 0.4 0.4 0.4 0.4 0.4 0.4 0.4 0.4 0.4 0.4 0.4
          0.4 0.4 0.4 0.4 0.4 0.4 0.4 0.4 0.4 0.4 0.4 0.4
          0.4 0.4 0.4 0.4 0.4 0.4 0.4 0.4 0.4 0.4 0.4 0.4
          0.4 0.4 0.4 0.4 0.4 0.4 0.4 0.4 0.4 0.4 0.4 0.4
          0.4 0.4 0.4 0.4 0.4 0.4 0.4 0.4 0.4 0.4 0.4 0.4
          0.4 0.4 0.4 0.4 0.4 0.4 0.4 0.4 0.4 0.4 0.4 0.4
          0.4 0.4 0.4 0.4 0.4 0.4 0.4 0.4 0.4 0.4 0.4 0.4
          0.4 0.4 0.4 0.4 0.4 0.4 0.4 0.4 0.4 0.4 0.4 0.4
          0.4 0.4 0.4 0.4 0.4 0.4 0.4 0.4 0.4 0.4 0.4 0.4
          0.4 0.4 0.4 0.4 0.4 0.4 0.4 0.4 0.4 0.4 0.4 0.4
          0.4 0.4 0.4 0.4 0.4 0.4 0.4 0.4 0.4 0.4 0.4 0.4
          0.4 0.4 0.4 0.4 0.4 0.4 0.4 0.4 0.4 0.4 0.4 0.4
          0.4 0.4 0.4 0.4 0.4 0.4 0.4 0.4 0.4 0.4 0.4 0.4
          0.4 0.4 0.4 0.4 0.4 0.4 0.4 0.4 0.4 0.4 0.4 0.4
          0.4 0.4 0.4 0.4 0.4 0.4 0.4 0.4 0.4 0.4 0.4 0.4
          0.4 0.4 0.4 0.4 0.4 0.4 0.4 0.4 0.4 0.4 0.4 0.4
          0.4 0.4 0.4 0.4 0.4 0.4 0.4 0.4 0.4 0.4 0.4 0.4
          0.4 0.4 0.4 0.4 0.4 0.4 0.4 0.4 0.4 0.4 0.4 0.4
          0.4 0.4 0.4 0.4 0.4 0.4 0.4 0.4 0.4 0.4 0.4 0.4
          0.4 0.4 0.4 0.4 0.4 0.4 0.4 0.4 0.4 0.4 0.4 0.4
          0.4 0.4 0.4 0.4 0.4 0.4 0.4 0.4 0.4 0.4 0.4 0.4
          0.4 0.4 0.4 0.4 0.4 0.4 0.4 0.4 0.4 0.4 0.4 0.4
          0.4 0.4 0.4 0.4 0.4 0.4 0.4 0.4 0.4 0.4 0.4 0.4
          0.4 0.4 0.4 0.4 0.4 0.4 0.4 0.4 0.4 0.4 0.4 0.4
          0.4 0.4 0.4 0.4 0.4 0.4 0.4 0.4 0.4 0.4 0.4 0.4
          0.4 0.4 0.4 0.4 0.4 0.4 0.4 0.4 0.4 0.4 0.4 0.4
          0.4 0.4 0.4 0.4 0.4 0.4 0.4 0.4 0.4 0.4 0.4 0.4
          0.4 0.4 0.4 0.4 0.4 0.4 0.4 0.4 0.4 0.4 0.4 0.4
          0.4 0.4 0.4 0.4 0.4 0.4 0.4 0.4 0.4 0.4 0.4 0.4
          0.4 0.4 0.4 0.4 0.4 0.4 0.4 0.4 0.4 0.4 0.4 0.4
          0.4 0.4 0.4 0.4 0.4 0.4 0.4 0.4 0.4 0.4 0.4 0.4
          0.4 0.4 0.4 0.4 0.4 0.4 0.4 0.4 0.4 0.4 0.4 0.4
          0.4 0.4 0.4 0.4 0.4 0.4 0.4 0.4 0.4 0.4 0.4 0.4
          0.4 0.4 0.4 0.4 0.4 0.4 0.4 0.4 0.4 0.4 0.4 0.4
          0.4 0.4 0.4 0.4 0.4 0.4 0.4 0.4 0.4 0.4 0.4 0.4
          0.4 0.4 0.4 0.4 0.4 0.4 0.4 0.4 0.4 0.4 0.4 0.4
          0.4 0.4 0.4 0.4 0.4 0.4 0.4 0.4 0.4 0.4 0.4 0.4
          0.4 0.4 0.4 0.4 0.4 0.4 0.4 0.4 0.4 0.4 0.4 0.4
          0.4 0.4 0.4 0.4 0.4 0.4 0.4 0.4 0.4 0.4 0.4 0.4
          0.4 0.4 0.4 0.4 0.4 0.4 0.4 0.4 0.4 0.4 0.4 0.4
          0.4 0.4 0.4 0.4 0.4 0.4 0.4 0.4 0.4 0.4 0.4 0.4
          0.4 0.4 0.4 0.4 0.4 0.4 0.4 0.4 0.4 0.4 0.4 0.4
          0.4 0.4 0.4 0.4 0.4 0.4 0.4 0.4 0.4 0.4 0.4 0.4
          0.4 0.4 0.4 0.4 0.4 0.4 0.4 0.4 0.4 0.4 0.4 0.4
          0.4 0.4
        </DataArray>
        <DataArray type="Float32" Name="pc" NumberOfComponents="1" format="ascii">
          120.809 771.946 821.378 477.059 0 627.193 188.771 0 14.3518 102.318 126.043 0
          222.096 0 155.727 0 0 335.551 143.315 0 0 161.752 0 41.1071
          132.048 0 424.2 0 8.99329 239.342 0 0 829.585 230.196 0 796.181
          0 191.969 7.75325 0 201.768 69.2509 88.7914 71.6575 99.8744 74.5621 148.189 8.16093
          208.033 0 751.224 0 0 843.876 0.168178 627.884 223.171 0 835.618 0
          64.2185 0 0 799.795 237.643 759.207 0 647.03 0 0 0 709.462
          190.34 41.8699 0 118.502 117.235 52.2223 0 680.117 254.457 175.629 0 54.0742
          149.245 118.522 0 0 251.31 0 0 855.521 0 461.825 0 0
          816.842 191.737 685.454 209.933 0 795.582 0 0 1.15186 178.223 527.241 0
          754.456 576.702 39.4179 852.202 716.32 210.523 0 210.323 0 813.7 0 0
          0 758.513 215.673 800.552 737.876 344.634 0 189.737 0 684.222 0 723.01
          0 312.379 132.76 391.016 399.592 0 7.45683 0 0 0 644.719 0
          685.485 188.22 195.755 0 0 0 0 746.24 0 0 803.896 206.84
          0 816.543 223.096 786.424 0 419.131 491.979 734.791 419.466 209.658 466.839 0
          504.082 445.898 0 692.781 0 239.679 0 223.142 541.173 0 778.706 714.962
          0 289.521 692.272 178.845 34.8218 0 0 621.075 0 0 0 0
          111.636 55.588 103.881 70.7486 0 685.009 144.717 130.258 113.682 118.501 162.949 163.259
          647.196 739.989 769.784 0 744.293 0 429.63 612.001 172.65 55.9712 20.2457 0
          0 0 825.472 787.077 0 0 268.936 269.641 252.694 0 876.226 0
          353.418 237.19 0 861.554 0 0 507.109 0 63.8922 76.7025 0 761.64
          0 229.061 708.674 36.8129 41.2225 20.4149 0 0 0 0 0 0
          668.374 0 0 0 0 0 0 0 493.132 410.917 0 199.933
          207.227 0 0 0 0 0 0 0 0 249.023 0 0
          0 0 0 291.205 0 0 0 0 0 0 0 0
          550.047 0 36.1316 0 0 0 0 0 0 0 214.53 0
          189.56 0 431.381 28.9847 0 0 0 0.000422235 0 30.4867 0 0
          0 0 0 0 0 0 0 0 0 0 0 358.526
          0 0 0 0 0 0 0 223.388 0 0 0 0
          0 0 230.509 0 0 0 0 0 0 0 0 0
          0 0 0 247.066 1.54905 0 0 0 0 0 0 0
          0 0 0 0 0 0 0 0 0 0 0 0
          0 0 281.603 0 0 0 0 0 0 0 0 0
          0 0 0 201.075 710.926 0 0 571.628 0 0 0 4.21805e-07
          0 0 0 0 8.73829 0 0 0 0 0 0 5.52342
          0 105.351 0 0 0 0 124.62 0 0 0 0 0
          8.69194 0 408.41 0 0 0 0 0 0 0 0 0
          174.363 0 52.1535 0 0 0 0 0 43.2804 0 0 239.235
          0 0 0 0 0 0 0 427.454 0 0 100.761 0
          0 0 0 0 0 0 0 0 0 0 291.908 0
          0 0 0 0 0 0 3.11149 0 0 0 0 0
          0 0 0 0 0 0 0 0 0 0 0 242.216
          125.019 0 0 105.585 0 0 0 0 0 0 0 0
          0 0 0 0 0 0 0 0 0 355.034 1.90286 0
          0 0 125.272 0 0 0 227.104 180.273 0 252.398 0 0
          39.4997 0 0 0 0 0 180.664 275.298 0 0 0 0
          0 8.9764 0 0 0 0 0 0 348.952 0 0 0.978187
          189.28 0 0 523.272 0 0 0 0 0 0 0 0
          0 0 0 266.099 0 0 0 158.143 0 0 0 0
          0 0 0 0 0 0 0 0 0 0 171.155 59.9911
          0 409.289 0 0 0 0 0 0 0 0 0 0
          0 0 0 0 0 0 194.666 0 0 0 0 0
          273.648 0 0 0 0 0 0 0 0 0 0 0
          0 0 0 0 0 0 0 0 0 0 0 0
          0 0 0 0 0 0 0 0 0 0 0 0
          0 0 0 0 0 224.387 0 0 0 0 0 0
          0 0 0 0 0.000469626 0 0 0 0 0 0 0
          0 0 191.204 0 0 0 0 0 0 0 0 0
          0 0 0 0 0 0 0 0 0 0 0 0
          13.4838 0 0 213.421 0 0 0 0 0 0 264.829 210.871
          197.651 0 0 0 0 0 0 0 0 0 4.87946e-07 0
          0 0 0 0 0 0 0 0 234.133 0 0 0
          0 0 0 0 0 48.8448 0 0 0 0 0 0
          76.498 0 0 0 0 0 0 0 0 0 0 0
          0 0 0 0 0 0 0 77.8599 0 0 0 0
          117.022 0 192.955 0 0 443.659 0 0 0 0 0 0
          0 0 0 100.054 0 0 0 0 0 0 0 0
          0 0 0 114.424 0 0 0 0 0 0 0 0
          0 0 0 0 0 0 0 0 0 547.49 0 0
          0 251.793 427.294 0 0 0 0 0 0 0 0 0
          0 0 0 0 0 0 0 0 0 241.069 0 0
          0 0 0 198.615 0 0 0 0 0 0 0 0
          228.654 0 0 0 165.762 0 0 0 0 0 0 334.79
          0 0 0 0 0 0 0 0 112.421 0 0 0
          0 352.983 0 0 0 0 0 0 0 301.98 0 0
          0 0 0 0 225.219 0 250.814 0 0 0 0 0
          0 0 0 0 228.457 0 0 0 0 0 0 0
          0 230.455 0 0 0 0 0 0 0 0 0 0
          0 0 234.664 10.0103 0 325.248 0 0 10.728 0 0 0
          0 0 0 0 7.66525 0 0 0 0 0 0 0
          165.382 0 177.493 0 0 0 0 100.501 221.821 215.975 51.2818 0
          188.395 0 60.1162 0 0 0 0 0 101.073 0 0 0
          0 0 524.292 0 0 431.646 0 0 0 0 0 0
          0 0 205.534 0 0 0 86.0556 0 110.809 0 276.536 0
          0 0 0 0 0 0 0 0 0 0 0 0
          0 0 0 0 0 469.403 196.723 151.659 0 0 0 0
          0 254.956 0 184.301 151.712 0 0 0 0 0 0 0
          0 0 0 0 0 189.347 0 0 0 0 185.503 248.834
          0 0 194.087 0 0 0 0 0 0 0 0 0
          0 0 0 0 0 0 0 0 0 0 0 0
          0 199.859 382.152 0 0 0 0 0 0 0 0 0
          0 0 0 0 0 0 0 0 0 0 0 0
          0 0 0 0 0 0 370.741 0 0 0 0 0
          0 0 0 0 0 320.063 0 0 0 0 0 0
          0 0 0 194.847 0 0 0 0 0 0 133.032 0
          0 431.075 0 0 0 0 0 0 0 0 0 0
          0 0 0 0 0 0 0 151.079 0 0 142.839 0
          0 0 0 0 0 0 0 0 0 0 303.227 282.893
          0 0 0 0 141.06 0 0 0 0 0 0 0
          0 0 0 0 0 0 0 0 0 0 0 0
          0 0 0 0 0 0 116.042 74.4158 0 0 0 0
          0 0 0 0 0 0 0 0 84.389 0 0 0
          0 252.753 0 0 0 0 0 0 0 0 0 0
          0 58.6562 0 0 0 0 0 0 0 74.9785 0 0
          0 0 0 0 0 0 0 0 0 0 0 0
          0 386.965 0 279.105 200.541 133.417 0 393.136 176.199 0 0 0
          0 0 0 0 0 0 0 0 0 358.723 357.276 165.58
          239.748 0 74.9937 0 0 0 0 0 116.36 0 0 0
          0 0 0 0 0 236.146 0 0 0 119.5 0 0
          0 0 0 0 0 60.081 0 0 0 0 0 0
          0 0 0 0 0 0 0 0 0 0 0 0
          0 224.153 0 0 0 0 0 0 0 0 0 0
          0 0 0 0 0 188.988 0 0 0 0 347.22 160.298
          0 284.552 0 483.354 0 0 0 0 0 0 0 0
          154.688 0 0 0 0 0 0 0 0 429.559 186.706 0
          0 169.857 371.321 0 222.499 0 0 0 0 0 0 336.48
          0 0 0 0 0 142.318 289.454 49.6137 0 0 0 194.46
          487.57 0 0 0 0 0 0 0 0 0 0 0
          0 0 0 0 0 0 0 0 0 0 0 0
          0 0 0 0 0 0 0 0 0 10.7509 0 384.523
          496.425 0 0 555.977 0 426.431 0 18.8416 0 0 0 0
          0 0 0 0 0 166.539 0 0 27.5546 0 0 0
          0 786.126 0 0 0 697.307 0 0 0 0 0 0
          0 0 0 0 0 0 0 493.163 0 0 0 0
          0 749.97 0 806.196 0 0 0 0 0 0 0 738.035
          0 314.687 0 0 0 0 0 323.217 0 0 89.6519 0
          0 0 0 0 2.78619 0 383.867 0 0 0 0 0
          827.784 0 0 0 0 0 0 0 645.381 0 726.867 0
          131.321 0 0 371.325 0 0 304.333 0 156.099 0 162.728 0
          0 637.76 0 728.478 0 172.19 0 0 0 564.741 240.041 0
          0 524.232 0 598.344 0 329.36 0 48.1871 0 218.43 0 0
          0 0 0 0 0 0 0 0 310.345 272.257 0 0
          0 0 0 0 511.037 0 0 0 591.421 708.318 0 0
          0 757.751 0 0 0 0 0 0 0 0 0 0
          0 0 0 0 0 0 0 0 55.1032 473.809 0 534.35
          0 190.155 0 0 0 0 0 118.79 251.444 0 0 0
          0 0 0 0 40.1995 0 0 0 0 0 0 0
          0 279.392 443.073 0 0 528.59 388.175 0 0 0 0 0
          646.682 0 780.927 0 0 0 816.328 0 851.126 0 0 0
          0 0 0 0 0 0 0 0 517.957 0 0 65.5156
          0 0
        </DataArray>
        <DataArray type="Float32" Name="S_aq" NumberOfComponents="1" format="ascii">
          0.983346 0.0694469 0.0654786 0.160098 1 0.0915447 0.881106 1 0.999335 0.991878 0.97976 1
          0.779975 1 0.94747 1 1 0.384588 0.963715 1 1 0.937967 1 0.997906
          0.97496 1 0.213893 1 0.99959 0.71777 1 1 0.0649224 0.751339 1 0.0673584
          1 0.872806 0.999648 1 0.845383 0.995961 0.994038 0.995761 0.992383 0.995508 0.957849 0.999629
          0.826365 1 0.0714902 1 1 0.0640129 0.999993 0.0913789 0.776247 1 0.0645296 1
          0.996359 1 1 0.0670717 0.724087 0.0706724 1 0.0870983 1 1 1 0.076503
          0.877075 0.99786 1 0.984763 0.9855 0.99721 1 0.0809299 0.660608 0.911733 1 0.997086
          0.956492 0.984751 1 1 0.672602 1 1 0.0633232 1 0.173113 1 1
          0.0657973 0.873418 0.0800592 0.820381 1 0.0674065 1 1 0.999949 0.906135 0.127529 1
          0.0711543 0.106272 0.998005 0.0635153 0.0755857 0.818504 1 0.819141 1 0.0660229 1 1
          1 0.0707419 0.801748 0.0670124 0.0729513 0.360798 1 0.878634 1 0.0802574 1 0.074729
          1 0.452704 0.974339 0.263185 0.24902 1 0.999662 1 1 1 0.0875845 1
          0.0800542 0.882502 0.862559 1 1 1 1 0.0720216 1 1 0.0667535 0.830069
          1 0.0658186 0.776508 0.0681634 1 0.220511 0.148921 0.0733065 0.220064 0.821254 0.168636 1
          0.140851 0.188725 1 0.0789134 1 0.716516 1 0.776348 0.120663 1 0.0688338 0.0757641
          1 0.529746 0.0789912 0.904762 0.998269 1 1 0.093049 1 1 1 1
          0.988438 0.996983 0.991501 0.995837 1 0.0801306 0.962093 0.976472 0.987424 0.984763 0.935946 0.935415
          0.0870637 0.0727117 0.0696483 1 0.0722337 1 0.207129 0.0954082 0.917889 0.996957 0.999044 1
          1 1 0.0651979 0.068108 1 1 0.605513 0.602853 0.667331 1 0.0621995 1
          0.339325 0.725763 1 0.0629827 1 1 0.138959 1 0.996384 0.995313 1 0.0704309
          1 0.755422 0.076611 0.998156 0.997899 0.999035 1 1 1 1 1 1
          0.0829602 1 1 1 1 1 1 1 0.148116 0.231894 1 0.85074
          0.828873 1 1 1 1 1 1 1 1 0.681299 1 1
          1 1 1 0.523777 1 1 1 1 1 1 1 1
          0.116679 1 0.998195 1 1 1 1 1 1 1 0.805524 1
          0.879088 1 0.205018 0.99859 1 1 1 1 1 0.998508 1 1
          1 1 1 1 1 1 1 1 1 1 1 0.327516
          1 1 1 1 1 1 1 0.775489 1 1 1 1
          1 1 0.75021 1 1 1 1 1 1 1 1 1
          1 1 1 0.688724 0.999931 1 1 1 1 1 1 1
          1 1 1 1 1 1 1 1 1 1 1 1
          1 1 0.558334 1 1 1 1 1 1 1 1 1
          1 1 1 0.847419 0.0763038 1 1 0.108088 1 1 1 1
          1 1 1 1 0.999602 1 1 1 1 1 1 0.999751
          1 0.991086 1 1 1 1 0.980788 1 1 1 1 1
          0.999604 1 0.235537 1 1 1 1 1 1 1 1 1
          0.914384 1 0.997214 1 1 1 1 1 0.997775 1 1 0.71817
          1 1 1 1 1 1 1 0.2098 1 1 0.992209 1
          1 1 1 1 1 1 1 1 1 1 0.521298 1
          1 1 1 1 1 1 0.999861 1 1 1 1 1
          1 1 1 1 1 1 1 1 1 1 1 0.70702
          0.980504 1 1 0.991013 1 1 1 1 1 1 1 1
          1 1 1 1 1 1 1 1 1 0.335536 0.999915 1
          1 1 0.980323 1 1 1 0.76241 0.901556 1 0.668459 1 1
          0.998001 1 1 1 1 1 0.900667 0.581633 1 1 1 1
          1 0.999591 1 1 1 1 1 1 0.350055 1 1 0.999956
          0.879806 1 1 0.129634 1 1 1 1 1 1 1 1
          1 1 1 0.616254 1 1 1 0.943791 1 1 1 1
          1 1 1 1 1 1 1 1 1 1 0.920869 0.996673
          1 0.23425 1 1 1 1 1 1 1 1 1 1
          1 1 1 1 1 1 0.865553 1 1 1 1 1
          0.587797 1 1 1 1 1 1 1 1 1 1 1
          1 1 1 1 1 1 1 1 1 1 1 1
          1 1 1 1 1 1 1 1 1 1 1 1
          1 1 1 1 1 0.771999 1 1 1 1 1 1
          1 1 1 1 1 1 1 1 1 1 1 1
          1 1 0.874819 1 1 1 1 1 1 1 1 1
          1 1 1 1 1 1 1 1 1 1 1 1
          0.999377 1 1 0.809155 1 1 1 1 1 1 0.621075 0.817395
          0.857262 1 1 1 1 1 1 1 1 1 1 1
          1 1 1 1 1 1 1 1 0.737024 1 1 1
          1 1 1 1 1 0.99743 1 1 1 1 1 1
          0.995332 1 1 1 1 1 1 1 1 1 1 1
          1 1 1 1 1 1 1 0.995205 1 1 1 1
          0.985621 1 0.870179 1 1 0.191103 1 1 1 1 1 1
          1 1 1 0.992348 1 1 1 1 1 1 1 1
          1 1 1 0.987039 1 1 1 1 1 1 1 1
          1 1 1 1 1 1 1 1 1 0.117798 1 1
          1 0.670764 0.209999 1 1 1 1 1 1 1 1 1
          1 1 1 1 1 1 1 1 1 0.711321 1 1
          1 1 1 0.854526 1 1 1 1 1 1 1 1
          0.756879 1 1 1 0.931018 1 1 1 1 1 1 0.386655
          1 1 1 1 1 1 1 1 0.988057 1 1 1
          1 0.340354 1 1 1 1 1 1 1 0.486637 1 1
          1 1 1 1 0.769078 1 0.674492 1 1 1 1 1
          1 1 1 1 0.757584 1 1 1 1 1 1 1
          1 0.750403 1 1 1 1 1 1 1 1 1 1
          1 1 0.735076 0.999542 1 0.41356 1 1 0.999509 1 1 1
          1 1 1 1 0.999652 1 1 1 1 1 1 1
          0.931699 1 0.907734 1 1 1 1 0.992261 0.780926 0.800743 0.997272 1
          0.88206 1 0.996664 1 1 1 1 1 0.992146 1 1 1
          1 1 0.129086 1 1 0.204701 1 1 1 1 1 1
          1 1 0.834081 1 1 1 0.994359 1 0.98883 1 0.577025 1
          1 1 1 1 1 1 1 1 1 1 1 1
          1 1 1 1 1 0.166422 0.859869 0.953274 1 1 1 1
          1 0.658703 1 0.892156 0.953201 1 1 1 1 1 1 1
          1 1 1 1 1 0.879636 1 1 1 1 0.889249 0.682018
          1 1 0.867129 1 1 1 1 1 1 1 1 1
          1 1 1 1 1 1 1 1 1 1 1 1
          1 0.850955 0.278994 1 1 1 1 1 1 1 1 1
          1 1 1 1 1 1 1 1 1 1 1 1
          1 1 1 1 1 1 0.301218 1 1 1 1 1
          1 1 1 1 1 0.42894 1 1 1 1 1 1
          1 1 1 0.865057 1 1 1 1 1 1 0.974098 1
          1 0.205385 1 1 1 1 1 1 1 1 1 1
          1 1 1 1 1 1 1 0.954062 1 1 0.964254 1
          1 1 1 1 1 1 1 1 1 1 0.482465 0.553621
          1 1 1 1 0.966216 1 1 1 1 1 1 1
          1 1 1 1 1 1 1 1 1 1 1 1
          1 1 1 1 1 1 0.986169 0.995521 1 1 1 1
          1 1 1 1 1 1 1 1 0.994544 1 1 1
          1 0.667104 1 1 1 1 1 1 1 1 1 1
          1 0.996769 1 1 1 1 1 1 1 0.99547 1 1
          1 1 1 1 1 1 1 1 1 1 1 1
          1 0.270258 1 0.567514 0.848975 0.973755 1 0.259584 0.910523 1 1 1
          1 1 1 1 1 1 1 1 1 0.327072 0.330361 0.931345
          0.716258 1 0.995469 1 1 1 1 1 0.985994 1 1 1
          1 1 1 1 1 0.729624 1 1 1 0.984161 1 1
          1 1 1 1 1 0.996667 1 1 1 1 1 1
          1 1 1 1 1 1 1 1 1 1 1 1
          1 0.772817 1 1 1 1 1 1 1 1 1 1
          1 1 1 1 1 0.880552 1 1 1 1 0.354322 0.940362
          1 0.547592 1 0.155206 1 1 1 1 1 1 1 1
          0.948998 1 1 1 1 1 1 1 1 0.207216 0.886291 1
          1 0.923397 0.300036 1 0.778579 1 1 1 1 1 1 0.382079
          1 1 1 1 1 0.964837 0.529984 0.99738 1 1 1 0.866115
          0.152076 1 1 1 1 1 1 1 1 1 1 1
          1 1 1 1 1 1 1 1 1 1 1 1
          1 1 1 1 1 1 1 1 1 0.999507 1 0.274644
          0.14586 1 1 0.11417 1 0.211075 1 0.999114 1 1 1 1
          1 1 1 1 1 0.929614 1 1 0.998666 1 1 1
          1 0.0681887 1 1 1 0.078233 1 1 1 1 1 1
          1 1 1 1 1 1 1 0.148095 1 1 1 1
          1 0.0716224 1 0.0665784 1 1 1 1 1 1 1 0.0729331
          1 0.445447 1 1 1 1 1 0.419521 1 1 0.993932 1
          1 1 1 1 0.999875 1 0.275838 1 1 1 1 1
          0.0650423 1 1 1 1 1 1 1 0.0874444 1 0.0742516 1
          0.975582 1 1 0.300027 1 1 0.478787 1 0.946914 1 0.936321 1
          1 0.0890977 1 0.0740556 1 0.918813 1 1 1 0.110673 0.715161 1
          1 0.129118 1 0.0992714 1 0.401742 1 0.997471 1 0.792514 1 1
          1 1 1 1 1 1 1 1 0.459184 0.59301 1 1
          1 1 1 1 0.136575 1 1 1 0.101386 0.07666 1 1
          1 0.0708186 1 1 1 1 1 1 1 1 1 1
          1 1 1 1 1 1 1 1 0.997016 0.162731 1 0.123928
          1 0.877555 1 1 1 1 1 0.984591 0.672094 1 1 1
          1 1 1 1 0.997959 1 1 1 1 1 1 1
          1 0.566458 0.191733 1 1 0.12683 0.268119 1 1 1 1 1
          0.0871711 1 0.0686378 1 1 1 0.0658339 1 0.0635783 1 1 1
          1 1 1 1 1 1 1 1 0.132562 1 1 0.996259
          1 1
        </DataArray>
        <DataArray type="Float32" Name="p_aq" NumberOfComponents="1" format="ascii">
          96196.7 100767 101134 99961 90881.1 100287 91223.3 91179.8 90920.5 96204.8 96256.4 94995.6
          97399 93454.5 96120.2 95113 93018.3 97869.8 96455.6 92397 97070.4 93850.4 92860.3 97264.2
          93640 93861.5 98485.7 92453.2 95511.3 95162.6 90619.2 95021.9 100933 94675.5 94569.4 100552
          90859.6 96205 95534.4 93673.8 98002.4 92914.5 96263.2 94458 96557.2 94202.4 95709.7 95176.4
          94466.1 94385.7 99781.1 91393.3 90596.2 101354 97906.8 98180 93112.9 93105.1 100672 90648.8
          95783.6 90866.8 95625.6 100675 95791.9 99647.4 93474.7 99067.8 91895.3 91922.1 95535.4 99165.9
          95678.9 94397.6 93677.6 94806.7 94314.8 96536.2 91946.6 98434.9 98102.3 92823.5 93467.8 97015
          95083.5 93852.5 94294 94557.2 96230.1 90518.4 96062 101206 94917.4 98343 92581.2 90850
          101063 98300.3 98667.8 92719.4 92713.1 100325 90890.1 91817 97440.7 93505.2 97667.2 92836.2
          99557.2 98928.6 92012 101395 99472.1 98916.7 90633.4 92148.1 92139.6 100574 90666.7 91441.8
          95784.8 99785 95952.5 101022 99890.1 99256.5 90943.1 91835 91816.2 100225 90973.6 98678.6
          92616 98342.1 92596.4 97119.3 97282 93491.9 96016.2 92045.4 95144.9 91788.8 98973.7 94569.7
          99270.1 95264.4 94647.8 90795.5 91350.7 93733.4 91427.5 99678.2 93601.5 90866.7 100432 93768.5
          97409.2 101034 93637.7 100313 97217.9 97426.2 97618.5 99073.1 97083.8 96601.1 97233.3 92951.9
          97434.2 97922 95816.4 98553.9 93962.7 96770 93963.1 96783.7 97424.8 91559.5 100100 98862.2
          92515.7 98434.9 99396.9 92525.8 91588.9 92173.7 92449.8 98398.5 95979.3 96473 94445.3 93915.2
          97208.5 93646.9 97454.2 93421.5 92998.1 98168.6 97904.1 93018.3 95224 95705.9 94953.2 94377.7
          97962 99113.1 100175 91546.9 99695.4 91919.4 99098.3 99459.6 91929.1 91563.3 94827.5 94375.1
          90734.1 91261.4 101001 100293 96557.5 96663.8 96847 96738.4 96641.2 90434.1 101446 96965.9
          97153.6 94089.7 94044.4 100930 90517.6 94340.3 98644.1 92316 95267.8 95070.2 91578.7 99807.5
          96376.1 96551.9 98370.3 95734.9 94830.8 95204.7 96214.5 96263.6 93250 93518.1 95793.1 98265.4
          100254 95923.2 98148 97180 95805.6 97621.6 95617.5 91797.7 99869.2 99839.4 94441.7 96397
          96398 94904 95043.8 96215.2 92585.5 92380.3 95123.4 94904 95591.6 98873.8 95324.4 93193.6
          93447.5 95535.8 93151.1 99583.3 95837.6 93147.3 95344.1 95244 93438.7 94573.7 91035.2 96796.7
          100229 93514.2 98771.1 96301.2 96301 94107.6 92337.2 95899 96368.8 96159.4 95479.8 93888.3
          94717.3 96204.5 99912.9 98588.7 95618.7 95270.8 95617.3 97901.7 95197.3 99022.4 97790.2 97464.8
          92812.5 95860.3 91381.5 92420.7 94363.6 92238.6 95813.3 95790.5 95077.1 93054.9 97196.8 99646
          95229.5 91227.2 95843.2 95664 94328.1 93971 93813.5 98340.7 95957.1 96769.6 93088.8 93940.6
          96972.3 94594.2 98805 98617.9 96289.8 98456.7 95176.1 95670.5 94049.9 90926.6 97385.7 95052.2
          94198.2 95404.3 96149.1 99130.2 97796.9 97461.1 95146.9 93344.6 95519 93449 95450.4 95298.3
          95543.3 95976.4 94509.9 91751.6 96294.8 98626.1 91921.7 94538.6 95898.3 95531.3 93380 97034
          95078.4 95125.2 99584.1 96668.1 96762.9 96711.7 91294.9 91625.2 92890.5 94573.5 98489.7 98348.4
          92178.8 93777.8 94663.9 96982.6 100401 96776.4 97815.1 100081 95434.9 97762.9 93161.3 98321.5
          94762.3 96738.9 97404.7 93813.4 98619 96907.8 96060.2 97882.4 95853.4 93106.6 97191.1 98297.8
          94820.2 92789.4 97538.1 92097.4 97240.1 94160.3 95498 95238.8 96190.7 95400.7 93796 92248.4
          96817.1 94909.3 99757.7 97409.5 92149.9 93118.8 94076.7 96073 95297.3 91982.6 95341.7 96290.2
          99251.9 92733.2 98436.7 95596.9 97512.4 92645.3 95459.5 93987.4 92282.2 97958.2 95224.6 98370.6
          94991.2 93865.8 96109.3 94233.8 95211.1 92398.9 93678.2 100067 93978.4 96434.5 98804.2 94214.2
          95700.4 96597.1 93651.8 93126.1 97454.6 95425.9 96064.7 94795.4 95094.6 91162.8 99219.6 91183.6
          91758.7 95840.5 94939.6 90994.8 91696.3 96703.1 98245.2 97025.7 94565.6 92757.8 97958.8 93024.9
          95347.2 93880 95153.2 93830.4 96974.9 90886.5 91124 91731 92455 95408.3 92632.7 97733.5
          94602.8 93463 95319.5 93961.7 96481.3 92961.1 94394.3 94917.7 97092.4 93226.9 94050.1 94432.2
          94244.4 93193.7 93028.6 93382.9 96644.6 92044.7 94514.8 96621.7 94402.6 99850.1 97790.8 94510
          94488.5 91813.1 99099.8 92688 95118.1 94956.6 97820.3 99368.5 95433.3 99470.1 94943.1 94594
          98966.8 95588.5 94493.2 94475.5 94964.5 92674.7 98893.7 99307.6 95007 92352.8 96350.9 97775
          94307.6 97297.8 94799.4 96015.5 94796 94025.9 94118.7 95324 99889.8 94564.7 96333.1 97307.5
          93626.6 96912.2 94070.9 100123 95238 94113.6 91260.5 91705.4 94631.1 91165 97654.9 90872.3
          94822.6 93773.6 96443.2 99245.5 94784.1 94451.3 97355.1 92626.8 97730.6 95322 96373.2 96967.9
          93550.7 94930.8 95516.7 98533.8 98274 91033.7 91508.5 94870.6 99011 91173.7 91252.6 99039.8
          92955 99396.1 95639.6 96036 95672.3 95098.3 96655.4 91422.8 96559.5 98118.8 93795 94799.8
          95486.4 91894.3 91788.1 91958.5 98397.8 97877.4 92863.4 97577.7 90784.2 97509.3 96849.5 94061.4
          99074.6 95240.4 92562.5 92593.4 94741.4 98156.5 97504 94790.1 95472.5 95411.5 95813.5 93467.1
          92470.9 95261.9 95295.3 98194.3 97829.8 97235.2 94508.1 96788.2 96462.4 94452.4 92626.6 96037.8
          96770.5 95359.8 95334 96594.9 95322.4 95245.5 95307.1 95274.9 98195.7 98022.8 95377.9 96488.1
          94883.6 95324.8 94625.4 95290.1 94776.7 98760.6 93452.3 90921.3 94008.2 91172.3 93012.4 94496.1
          92084.8 96029.4 94678.8 91213.7 97900.4 96014.2 93906.7 94888.7 95727.2 95139.1 95052.6 94796.8
          95532.1 96178.5 96231.9 95654.7 94778.5 98498.8 91601.8 95548.4 96650.7 95675.7 95485.6 98261.7
          95281.5 95375 95125 92518.8 95149.1 94897.5 95918.5 94978.7 96381 96046.4 95823.1 97376.4
          99310.5 98887.2 95190.8 98228.9 95226.2 95133.2 96109.5 96197.6 96889.9 95063.2 100347 98795.8
          96114.2 95720.2 95117.4 94718.1 96621.3 97968.2 97868.5 97503.7 97194 97912.1 98316.2 98868.3
          94026 95288.6 94857.8 92102.3 95392.2 93849.7 92260.8 96173.2 100179 94311 97712.1 97402.7
          94242.8 97432.4 92500.7 93005.6 96450.2 94032 95965.8 97973.1 94117.1 94010.4 94828 95206.9
          95418.5 95909.5 94355.6 95180.5 95454.3 93774.8 94583.4 95440.4 93406.8 97199.3 93042.6 93106.1
          95571.5 95809.6 96583 93910.6 94333.9 96713.8 95450.8 94775.8 91682.1 92065.5 94437.4 96977.9
          93379.7 95213.9 96815 95483.9 93710.4 100505 94996.6 92323.1 95528.7 93537.4 94565.3 94213.1