<?xml version="1.0"?>
<VTKFile type="PolyData" version="0.1" byte_order="LittleEndian">
  <PolyData>
    <Piece NumberOfLines="1738" NumberOfPoints="1739">
      <CellData Scalars="p">
        <DataArray type="Float32" Name="p" NumberOfComponents="1" format="ascii">
          19259.4 19527.6 19591.8 19655.4 19718.4 19780.6 19842.2 19905.5 19970.5 20035.1 20099.2 20164.4
          20230.6 20296.3 20361.6 20426.4 20490.8 20554.8 20617.5 20679 20740.1 20800.7 20857.2 20909.7
          20961.7 21013.4 21064.9 21109.9 21148.4 21186.6 21224.6 21264.7 21307.1 21349 21390.6 21431.8
          21469.6 21504.2 21538.4 21572.2 21605.7 21638.8 21671.5 21703.8 21735.7 21767.2 21798.4 21829.2
          21859.6 21890.8 21922.8 21954.5 21985.8 22017.2 22048.7 22079.7 22110.4 22140.5 22169.1 22196.1
          22222.9 22249.2 22277.1 22306.3 22335.2 22363.6 22391.6 22419.2 22446.4 22473.7 22501.1 22527.9
          22554.4 22580.4 22605.9 22630.6 22654.6 22678.1 22701.1 22722.9 22743.4 22763.5 22783.2 22799.1
          22811.4 22823.4 22835.1 22849.6 22866.8 22883.6 22900 22916 22931.6 22948.3 22966.1 22983.4
          23000.3 23016.7 23032.2 23046.6 23060.7 23074.3 23086.9 23098.5 23109.8 23120.7 23132.5 23145.2
          23157.3 23168.8 23179.9 21875.8 21878 21880 21881.7 21884.5 21888.3 21892 21895.4 21874.1
          21872.6 21870.9 21870.2 21870.7 21097 21109.9 21122.6 21135.2 21147.6 21159.8 21171.7 21183.6
          21195.4 21206.9 21218.1 21228.9 21240.2 21252 21263.6 21274.3 21284.2 21293.9 21303.2 21313.5
          21324.6 21334.7 21343.8 21352.8 21361.6 21371.8 21383.5 21395 21404.4 21411.6 21418.7 21425.5
          21433.9 21443.7 21453.3 21463.8 21475.2 21486.3 21497.1 21507.6 21517.7 21527.6 21537.3 21546.8
          21556 19717.3 20114.2 20463.7 20812.2 21159.6 21510.8 21865.6 22219.4 22533.6 22808.3 23082.6
          23374.5 23683.6 23991.8 24153.8 24169.7 24185.1 24200.1 24211.5 24219.4 24227.2 24234.8 24243.9
          24254.5 24265 24274 24281.6 24289.1 24296.5 24303.8 24311 24318.2 24324.1 24328.9 24333.6
          24337.4 24340.2 24343 24345.4 24347.6 24349.6 24351.6 24353.8 24355.7 24358.6 24362.5 24366.3
          24370.6 24375.4 24380 24286.1 24566.7 24846.3 25125.1 25374.1 25593.2 25811.7 26029.7 26247.3
          26444.8 26622.2 26799 26975.1 27150.4 27325.1 27490.3 27645.8 27800.8 27955.1 28108.7 28261.6
          28413.9 28540.3 28640.6 28740.3 28839.5 28938.1 29036 29133.4 29230.1 29326.3 29415.5 29497.7
          29579.4 29660.5 29741.2 29821.5 29901.1 29980.1 30058.6 30136.5 30213.9 30286.3 30353.9 30421
          30487.5 30553.6 30619.2 30669.1 30703.5 30737.5 30771.1 30804.3 30831.9 30853.7 30875.1 30896
          30916.4 30936.4 30955.9 30974.9 30993.5 31011.7 31029.4 31046.7 31063.1 31078.8 31094.1 31109
          31123.5 31137.7 31151.5 31165 31178.5 31192 31205.2 31218 31230.4 31242.6 31254.5 31265.4
          31275.5 31285.3 31294.8 31304.1 31313.2 30824.1 30830.6 30836.8 30842.8 30848.7 30856.8 30867.2
          30877.4 30886.8 30895.4 30903.8 30912.3 30920.9 30929.3 30938.5 30948.5 30958.4 30827.6 30841
          30854.2 30867.1 30881.5 30897.4 30913.1 30929.7 30947.2 30964.6 30981.7 30998.6 31015.3 31031
          31045.7 31060.1 31074.5 31088.6 31098.9 31105.1 31111.2 31117.2 31123 31131.2 31141.9 31152.4
          31162.7 31171.9 31179.7 31187.5 31195 31202.4 31210.3 31218.6 31226.8 31234.9 31242.8 31251.5
          31261 31270.4 31279.6 31288.6 31297.5 31306.2 31129.7 31137.4 31145 31153.2 31162 31170.7
          31176.3 31178.6 31180.9 31183.1 31182.2 31178.2 31174.2 31170 30665.4 30692.5 30715.9 30735.7
          30755.3 30775.5 30796 30816.5 30840.4 30867.9 30895.1 30912.1 30918.7 30924.7 30930.1 30935.4
          30940.6 30948.3 30958.5 30972.2 30989.4 31006.5 31021.7 31035.2 31048.5 31061.7 31071.1 31076.9
          31082.5 31088.6 31095.1 31101.1 31106.7 31112.2 31117.5 31122.8 31131.2 31142.8 31154.3 31166.1
          31178.3 31190.3 31202.1 31213.8 31226.8 31241.2 31255.4 31268.8 31281.3 31294.2 31307.4 31320.5
          31333.3 31345.3 31356.7 31367.8 31378.8 31389.7 31400.3 31410.7 31420.9 31430.9 31440.5 31449.8
          31458.9 31467.9 31476.8 30916.8 30932.8 30948.8 30964.5 30980.4 30996.2 31011.2 31025.3 31039.2
          31053 31066.6 31082.3 31100.1 31117.7 31135.1 31154 31174.4 31194.5 31215.2 31236.5 31257.5
          31277.2 31295.6 31313.7 31331.1 31347.8 31364.4 31382.4 31401.8 31420.9 31439.8 31458.4 31476.7
          31493.2 31508.2 31522.9 31537.3 31548.6 31556.7 31564.5 31572.2 31581.1 31591.2 31601.1 31609.9
          31617.5 31625 31632.2 31550 31561 31571.7 31582.3 31591.7 31600 31608.1 31616.2 31624.1
          31628.7 31630.1 31631.3 31632.4 31635 31639 31642.9 31649.7 31659.2 31668.7 31678.1 31631.6
          31638.8 31646 31653.4 31661.2 31668.7 31676 31681.2 31684.2 31687.2 31690 31695.4 31703.3
          31589.3 31592.7 31598.3 31605.3 31611.7 31618 31624.3 31629.4 31633.4 31637.3 30256.1 30263.4
          30270.4 30276.9 30282.8 30288.7 30294.4 30300 30305.6 30311.1 30316.5 30324.4 30334.6 30344.7
          30355 30365.5 30370.8 30371.1 30371.2 30371.3 30376.2 30387.1 30397.8 30408.4 30418.8 30429
          30439.1 30449.1 30458.9 30255.2 30260.6 30265.7 30270.2 30274.3 30278.2 30282 30285.7 30288.9
          30291.7 30294.4 30297.1 30301.2 30306.7 30312.1 30317.4 30325.2 30335.8 30341.3 30341.9 30342.4
          30342.4 30345.2 30347.9 30350 30351.5 30352.9 30354.1 30354.4 30353.8 30353.1 30352.3 30351.4
          30350.3 30297.1 30294.4 30291.7 30288.9 30286 29703.6 29708.6 29713.3 29717.1 29720.1 29723.1
          29726.9 29731.6 29736.2 29740.6 29745.8 29752 29757.9 29763.8 29771 29779.6 29788 29796.2
          29802.7 29807.6 29812.3 29816.8 29821.6 29826.7 29831.6 29836.5 29838.8 29838.8 29838.6 29838.3
          29377.7 29384.6 29391.1 29397.4 29404.3 29411.8 29419.2 29425.5 29430.9 29436.1 29439.5 29441.1
          29442.5 29443.8 29444.1 29443.6 29442.8 29442 29440.9 29439.8 29438.4 29436.9 29438.7 29443.9
          29449 29453.6 29457.6 29461.6 29468.6 29478.7 29488.5 29498.2 29507.1 29515.1 29523 29530.7
          28505.8 28537.2 28568.2 28604.5 28645.9 28683.1 28715.9 28748.4 28780.7 28812.8 28847 28883.3
          28919.4 28955.3 28989.9 29023.1 29056.2 29089.1 29114.2 29131.6 29148.8 29165.9 29182.7 29199.4
          29216 29231.9 29247.2 29262.4 29277.5 29294.2 29312.6 29330.9 29349 29366.9 29380.3 29389.1
          29397.8 29406.4 29414.8 29423 29431.2 29438.8 29446 29453 29461.2 29470.7 29479.9 29486.3
          29490 29494.8 29500.9 29506.8 29437.6 29442.3 29445.8 29447.8 29449.6 29450.7 29451.1 29451.3
          29451.3 29451.1 29450.7 29450.2 29449.5 29450.8 29454.1 29457.3 29376.7 29378.4 29380 29381.4
          29382.7 29384.8 29387.9 29390.7 29393.2 29397 29401.9 29406.6 29411.1 29415.3 29419.4 29423.5
          29427.4 29431.1 29434.6 29440.2 29447.9 29455.3 29463.6 29472.8 29481.7 29490.3 29116.1 29137.2
          29158.1 29175 29187.9 29200.7 29213.3 29225.7 29238.1 29250.2 29262.3 29276.4 29292.5 29308.4
          29324.1 29336 29343.9 29351.7 29359.3 29366.7 29376 29387.2 29398.2 29410.1 29422.8 29435.4
          29447.8 29460.1 29472.1 29483.9 29496.5 29510 29523.3 29536.4 29547.9 29557.6 29567.2 29576.7
          29586.3 29596 29605.6 29613.9 29621.1 29628.1 29634.9 29644.8 29657.6 29670.2 29682.6 29694.7
          29706.5 29718.2 29729.6 29740.8 29751.8 29762.4 29772.8 29782.9 29792.9 29803.3 29814 29824.6
          29835 29845.2 29855 29864.5 29873.8 29883 29892.1 28496.4 28509 28521.3 28533.3 28544.6
          28555.2 28566.2 28577.5 28593.5 28614.1 28631.7 28646.4 28663.1 28681.7 28699.5 28716.4 28733.3
          28749.3 28764.5 28779.5 28794.5 28810.4 28827.1 28843.8 28855 28860.6 28866 28870.9 28875.4
          28879.8 28885.7 28893 28900.1 28909.5 28921 28929.4 28934.8 28940 28942.2 28941.6 28940.8
          28942 28945.1 28948.7 28952.9 28953.4 28950.3 28947.1 28858.4 28870.8 28883.1 28897.2 28913.1
          28928.8 28944.3 28959.6 28974.5 28989 29003.4 29016.6 29028.8 29040.8 29055.3 29072.4 29089.4
          29103.8 29115.8 29127.6 29139.3 29149.3 29157.6 29165.8 29173.9 29182 29190.2 29195.1 29196.6
          29197 29196.3 29195.3 29198 29204.3 29210.3 29216.3 29222 29227.6 29233 29238.3 29243.5
          29251.6 29262.6 29273.5 29284.3 29293.9 29302.5 29310.8 29317.4 29322.2 29326.8 29331.2 29334.9
          29337.9 29340.6 29343.2 29345.7 29348 28494.9 28504.5 28513.7 28522.6 28530.8 28538.4 28545.9
          28553.2 28560.2 28567.1 28573.9 28580.6 28587.3 27422 27441.1 27459.6 27477.7 27495.3 27514.3
          27534.6 27554.6 27574.5 27593.8 27612.7 27631.3 27649.5 27667.5 27685.2 27703.2 27721.5 27739.5
          27757.2 27774.6 27791.8 27808.6 27822.1 27832.2 27842 27851.5 27860.8 27869.8 27878.5 27886.9
          27896.5 27907.4 27918.1 27928.6 27937.3 27944.2 27950.9 27957.3 27966.2 27977.6 27988.8 27997
          28002.3 28007.5 28011.3 28013.5 28017.7 28023.9 28028.4 28031.4 28034.2 28038.7 28044.8 28050.8
          28056.7 28062.4 28069.2 28077 28084.8 28089.9 28092.6 28095.2 28097.7 27815.2 27811.5 27807.5
          27803.4 27800.9 27800.1 27799.1 27800.1 27803.1 27805.9 27808.7 27809.3 27807.9 27806.3 27809.4
          27817.2 27824.9 27832.5 27834.9 27511.9 27527.5 27542.8 27556.7 27569.1 27581.3 27593.2 27604
          27613.9 27623.6 27635.4 27649.3 27662.8 27676 27686.4 27694.1 27701.5 27708.6 27713.8 27717.2
          27720.4 27725.6 27732.7 27739.4 27748.2 27758.9 26362.2 26374.6 26386.5 26397.9 26409.1 26419.9
          26428.7 26435.5 26442.2 26447.9 26452.6 26457.3 26461.1 26464.1 26467 26469.8 26472.8 26476
          26479.1 26484.6 26492.5 26500.3 26511.1 26524.9 26535.4 26542.4 26550.5 26559.5 26568.5 26578.7
          26590.2 26601.5 26612.5 26623.2 26633.8 26641 26644.9 26648.7 26653.8 26660.1 26668.4 26678.6
          26688.7 26696.2 26700.9 26705.5 26709.6 26713.2 26716.8 26720.2 26723.4 26726.4 26727.7 26727.1
          26726.3 26725.4 26726.9 26730.8 26734.6 26740.7 26366.4 26387.1 26407.1 26426.7 26445.7 26461.5
          26474 26486.3 26497.4 26507.4 26517.1 26527.4 26538 26548.5 26560.3 26573.4 26584.2 26592.5
          26600.7 26610.4 26621.4 26632.3 26642.1 26650.6 26659.8 26669.7 26678.9 26687.4 26695.8 26704.3
          26712.9 26721.4 26729.1 26735.9 26742.6 26749.1 26756.1 26763.5 26770.8 26780.2 26791.5 26800.6
          26807.5 26814.3 26821.5 26829.3 26836.9 26844.5 26852.2 26859.7 26865 26868.1 26871 26873.7
          26876.3 26878.7 26880.9 26879.8 26875.2 26873.3 26874.1 26874.7 26878.1 26884 26891.6 26900.8
          26909.8 26918.8 26927.5 26659.2 26668 26676.6 26681.4 26682.4 26683.2 26686.5 26692.4 26698.1
          26703.8 26709.4 26714.5 26719.1 26723.7 26358.7 26363.9 26368.4 26372.3 26376.9 26382.3 26388.8
          26396.5 26403.9 26412.1 26421.1 26427.4 26431 26434.5 26438 26441.4 26449.2 26461.3 26473.2
          26485 26496.1 26506.5 26516.9 26527 26537 26547 26560.6 26577.9 26595 26611.8 26628.5
          26644.8 26657.7 26667.4 26676.7 26685.8 26694.7 26704.8 26716.3 26727.5 26738.4 26748.4 26757.5
          26766.4 26776.1 26786.5 26796.7 26658.7 26670.1 26681.2 26692 26702.5 26712.7 26722.7 26732.3
          26741.6 26750.5 26759.2 26354.5 26351.1 26347.1 26344 26342.1 26340 26338.2 26336.7 26335.2
          26333.5 26334.2 26337.4 26340.4 26343.3 26348.5 26356 26363.5 26371 26376 26378.6 26383.5
          26390.6 26397.5 26405 26413 26376.9 26370.9 26368.7 26370.2 26373.8 26379.4 26384.9 26392.1
          26400.9 26409.7 26415.1 26417.1 26419.1 26360.9 26370.6 26379.9 26388.9 26399.6 26412.2 26424.6
          26436.8 26447.2 26456 26464.5 26472.8 26480 26485.9 26491.8 26497.4 26502.8 26509.2 26516.7
          26524 26531.1 26538 26544.6 26551 26559.2 26569.2 26578.9 26588.3 26598.1 26608.2 26618.1
          26627.9 26635.7 26641.6 26647.3 26651.2 26653.5 26655.7 26445.7 26451.2 26456.6 26461.8 26466.1
          26469.4 26472.6 26475.6 26478.9 26482.5 26485.9 26489.5 26493.6 26497.5 26501.1 26506.5 26513.7
          26520.6 26527.3 26533.7 26541.7 26551.2 26560.4 26569.5 26578.1 26586 26593.7 26599.3 26602.8
          26606.1 26609.2 26612.1 26617.8 26626.5 26635 26643.3 25269.3 25278.9 25288.1 25297.1 25303.8
          25308.5 25313.1 25317.4 25322.4 25327.8 25333.1 25338.5 25343.9 25349.1 25355.8 25363.9 25371.9
          25379.7 25385.8 25390.4 25394.7 25400.4 25407.5 25414.4 25420.1 25424.5 25428.8 25433.9 25439.9
          25445.8 25451.5 25457.6 25464 25470.3 25476.4 25419.1 25421.6 25426.5 25434 25441.4 25448.7
          25455.9 24149.4 24156.8 24166.7 24178.5 24190 24202.2 24214.1 24225.7 24238.4 24252.1 24265.5
          24275.5 24282 24291.7 24304.4 24315.3 24324.7 24333.8 24342.7 24350.3 24356.8 24153 24167.6
          24182 24199.3 24213.1 24220.2 24220.7 24242.8 24261.1 24275.7 24290.1 24302.8 24313.9 24324.2
          24331 24334.9 24335.4 24332.4 24332.2 24334.7 24337.9 24342 24346 24349.8 24352.8 24354.9
          24356.8 24326.2 24339.6 24352.8 24365.6 24377.9 24390.2 24401.5 24411.8 24421.9 24432.8 24444.4
          24455.8 24467.2 24478.3 24488.9 24498.9 24508.8 24518.4 24525.4 24529.7 24533.8 24537.7 24541.5
          24548.2 24557.8 24567.1 24576.2 24585.1 24593.8 24526.8 24533.8 24540.6 24547.2 24553.5 24559.6
          24565.6 24571.3 24579.3 24589.7 24599.8 24609.8 24619.5 24627.4 24633.7 24639.8 24645.7 24649.7
          24651.9 24654.8 24658.4 24661.8 24665.2 24625 24626.4 24627.6 24628.6 24629.5 24428 24430.2
          24432.3 24432.6 24431.1 24429.5 24427.7 24425.9 24424 23227.5 23242.8 23257.6 23271.8 23285.6
          23297.3 23306.8 23315.3 23323 23330.8 23338.8 23346.6 23353.7 23357.5 23358.4 23359 23359.4
          23359.5 23359.4 23359 23358.9 23362.6 23366.1 23370.2 23374.8 23379.3 23314.6 23320.8 23325.4
          23328.4 23331.8 23335.6 23338.7 23341.3 23343.9 23345 23344.7 23344.2 23343.7 23343 23299.1
          23312.3 23325.5 23338.4 23348.8 23356.7 23363.8 23370.1 23374.6 23377.2 23379.6 23381.7 23385.3
          23390.5 23394.6 23397.6 23399.2 23399.4 23401.8 23406.5 23411.1 23415.5 23419 23421.5 23423.8
          23227.6 23243.2 23258.3 23273 23291.2 23309.6 23324.8 23338.3 23350.1 23360.7 23370.1 23381.6
          23395.1 23406.6 23416.3 23427.1 23438.9 23450.5 23461.9 23474.5 23488.4 23499 23506.3 23513.4
          23520.2 23528.1 23537 23545.3 23553.1 23560.7 23567.9 23574.6 23581.2 23585.1 23586.3 23587.4
          23589.4 23592.1 23595.4 23599.4 23604.2 23609.8 23615.3 23619.7 23623.1 23626.3 23402.1 23402.6
          23402.9 23403 23402.3 23400.8 23401.6 23404.6 23407.4 23413.2 23422 23226.2 23239 23251.2
          23263.1 23274.6 23286.5 23298.8 23310.9 23324.8 23340.3 23355.4 23370.3 23384.9 23399.1 23413.1
          23426.7 23439.9 23452.8 23464.1 23474 23483.7 23492.5 23500.4 23507.9 23515.1 23522.1 23528.6
          23534.7 23540.7 23550.2 23563.2 23575.8 23588.1 23600 23610.4 23619.4 23628 23636.4 23644.6
          23649.8 23652.1 23654.3 23652.5 23646.8 23641 23637.1 23635.3 23633.3 23636.6 23644.9 23653.1
          23661.5 23670 23675.8 23679 21339.6 21352.4 21364.6 21375.9 21386.5 21396.7 21406.6 21416.4
          21424.1 21429.8 21435.2 21440.3 21446.4 21453.3 21460 21465.8 21470.8 21475.6 21478.7 21480.2
          21481.6 21482.8 21483.8 21425.3 21433.3 21438.8 21441.9 21444.8 21449.9 21457.2
        </DataArray>
        <DataArray type="Float32" Name="rho" NumberOfComponents="1" format="ascii">
          1000 1000 1000 1000 1000 1000 1000 1000 1000 1000 1000 1000
          1000 1000 1000 1000 1000 1000 1000 1000 1000 1000 1000 1000
          1000 1000 1000 1000 1000 1000 1000 1000 1000 1000 1000 1000
          1000 1000 1000 1000 1000 1000 1000 1000 1000 1000 1000 1000
          1000 1000 1000 1000 1000 1000 1000 1000 1000 1000 1000 1000
          1000 1000 1000 1000 1000 1000 1000 1000 1000 1000 1000 1000
          1000 1000 1000 1000 1000 1000 1000 1000 1000 1000 1000 1000
          1000 1000 1000 1000 1000 1000 1000 1000 1000 1000 1000 1000
          1000 1000 1000 1000 1000 1000 1000 1000 1000 1000 1000 1000
          1000 1000 1000 1000 1000 1000 1000 1000 1000 1000 1000 1000
          1000 1000 1000 1000 1000 1000 1000 1000 1000 1000 1000 1000
          1000 1000 1000 1000 1000 1000 1000 1000 1000 1000 1000 1000
          1000 1000 1000 1000 1000 1000 1000 1000 1000 1000 1000 1000
          1000 1000 1000 1000 1000 1000 1000 1000 1000 1000 1000 1000
          1000 1000 1000 1000 1000 1000 1000 1000 1000 1000 1000 1000
          1000 1000 1000 1000 1000 1000 1000 1000 1000 1000 1000 1000
          1000 1000 1000 1000 1000 1000 1000 1000 1000 1000 1000 1000
          1000 1000 1000 1000 1000 1000 1000 1000 1000 1000 1000 1000
          1000 1000 1000 1000 1000 1000 1000 1000 1000 1000 1000 1000
          1000 1000 1000 1000 1000 1000 1000 1000 1000 1000 1000 1000
          1000 1000 1000 1000 1000 1000 1000 1000 1000 1000 1000 1000
          1000 1000 1000 1000 1000 1000 1000 1000 1000 1000 1000 1000
          1000 1000 1000 1000 1000 1000 1000 1000 1000 1000 1000 1000
          1000 1000 1000 1000 1000 1000 1000 1000 1000 1000 1000 1000
          1000 1000 1000 1000 1000 1000 1000 1000 1000 1000 1000 1000
          1000 1000 1000 1000 1000 1000 1000 1000 1000 1000 1000 1000
          1000 1000 1000 1000 1000 1000 1000 1000 1000 1000 1000 1000
          1000 1000 1000 1000 1000 1000 1000 1000 1000 1000 1000 1000
          1000 1000 1000 1000 1000 1000 1000 1000 1000 1000 1000 1000
          1000 1000 1000 1000 1000 1000 1000 1000 1000 1000 1000 1000
          1000 1000 1000 1000 1000 1000 1000 1000 1000 1000 1000 1000
          1000 1000 1000 1000 1000 1000 1000 1000 1000 1000 1000 1000
          1000 1000 1000 1000 1000 1000 1000 1000 1000 1000 1000 1000
          1000 1000 1000 1000 1000 1000 1000 1000 1000 1000 1000 1000
          1000 1000 1000 1000 1000 1000 1000 1000 1000 1000 1000 1000
          1000 1000 1000 1000 1000 1000 1000 1000 1000 1000 1000 1000
          1000 1000 1000 1000 1000 1000 1000 1000 1000 1000 1000 1000
          1000 1000 1000 1000 1000 1000 1000 1000 1000 1000 1000 1000
          1000 1000 1000 1000 1000 1000 1000 1000 1000 1000 1000 1000
          1000 1000 1000 1000 1000 1000 1000 1000 1000 1000 1000 1000
          1000 1000 1000 1000 1000 1000 1000 1000 1000 1000 1000 1000
          1000 1000 1000 1000 1000 1000 1000 1000 1000 1000 1000 1000
          1000 1000 1000 1000 1000 1000 1000 1000 1000 1000 1000 1000
          1000 1000 1000 1000 1000 1000 1000 1000 1000 1000 1000 1000
          1000 1000 1000 1000 1000 1000 1000 1000 1000 1000 1000 1000
          1000 1000 1000 1000 1000 1000 1000 1000 1000 1000 1000 1000
          1000 1000 1000 1000 1000 1000 1000 1000 1000 1000 1000 1000
          1000 1000 1000 1000 1000 1000 1000 1000 1000 1000 1000 1000
          1000 1000 1000 1000 1000 1000 1000 1000 1000 1000 1000 1000
          1000 1000 1000 1000 1000 1000 1000 1000 1000 1000 1000 1000
          1000 1000 1000 1000 1000 1000 1000 1000 1000 1000 1000 1000
          1000 1000 1000 1000 1000 1000 1000 1000 1000 1000 1000 1000
          1000 1000 1000 1000 1000 1000 1000 1000 1000 1000 1000 1000
          1000 1000 1000 1000 1000 1000 1000 1000 1000 1000 1000 1000
          1000 1000 1000 1000 1000 1000 1000 1000 1000 1000 1000 1000
          1000 1000 1000 1000 1000 1000 1000 1000 1000 1000 1000 1000
          1000 1000 1000 1000 1000 1000 1000 1000 1000 1000 1000 1000
          1000 1000 1000 1000 1000 1000 1000 1000 1000 1000 1000 1000
          1000 1000 1000 1000 1000 1000 1000 1000 1000 1000 1000 1000
          1000 1000 1000 1000 1000 1000 1000 1000 1000 1000 1000 1000
          1000 1000 1000 1000 1000 1000 1000 1000 1000 1000 1000 1000
          1000 1000 1000 1000 1000 1000 1000 1000 1000 1000 1000 1000
          1000 1000 1000 1000 1000 1000 1000 1000 1000 1000 1000 1000
          1000 1000 1000 1000 1000 1000 1000 1000 1000 1000 1000 1000
          1000 1000 1000 1000 1000 1000 1000 1000 1000 1000 1000 1000
          1000 1000 1000 1000 1000 1000 1000 1000 1000 1000 1000 1000
          1000 1000 1000 1000 1000 1000 1000 1000 1000 1000 1000 1000
          1000 1000 1000 1000 1000 1000 1000 1000 1000 1000 1000 1000
          1000 1000 1000 1000 1000 1000 1000 1000 1000 1000 1000 1000
          1000 1000 1000 1000 1000 1000 1000 1000 1000 1000 1000 1000
          1000 1000 1000 1000 1000 1000 1000 1000 1000 1000 1000 1000
          1000 1000 1000 1000 1000 1000 1000 1000 1000 1000 1000 1000
          1000 1000 1000 1000 1000 1000 1000 1000 1000 1000 1000 1000
          1000 1000 1000 1000 1000 1000 1000 1000 1000 1000 1000 1000
          1000 1000 1000 1000 1000 1000 1000 1000 1000 1000 1000 1000
          1000 1000 1000 1000 1000 1000 1000 1000 1000 1000 1000 1000
          1000 1000 1000 1000 1000 1000 1000 1000 1000 1000 1000 1000
          1000 1000 1000 1000 1000 1000 1000 1000 1000 1000 1000 1000
          1000 1000 1000 1000 1000 1000 1000 1000 1000 1000 1000 1000
          1000 1000 1000 1000 1000 1000 1000 1000 1000 1000 1000 1000
          1000 1000 1000 1000 1000 1000 1000 1000 1000 1000 1000 1000
          1000 1000 1000 1000 1000 1000 1000 1000 1000 1000 1000 1000
          1000 1000 1000 1000 1000 1000 1000 1000 1000 1000 1000 1000
          1000 1000 1000 1000 1000 1000 1000 1000 1000 1000 1000 1000
          1000 1000 1000 1000 1000 1000 1000 1000 1000 1000 1000 1000
          1000 1000 1000 1000 1000 1000 1000 1000 1000 1000 1000 1000
          1000 1000 1000 1000 1000 1000 1000 1000 1000 1000 1000 1000
          1000 1000 1000 1000 1000 1000 1000 1000 1000 1000 1000 1000
          1000 1000 1000 1000 1000 1000 1000 1000 1000 1000 1000 1000
          1000 1000 1000 1000 1000 1000 1000 1000 1000 1000 1000 1000
          1000 1000 1000 1000 1000 1000 1000 1000 1000 1000 1000 1000
          1000 1000 1000 1000 1000 1000 1000 1000 1000 1000 1000 1000
          1000 1000 1000 1000 1000 1000 1000 1000 1000 1000 1000 1000
          1000 1000 1000 1000 1000 1000 1000 1000 1000 1000 1000 1000
          1000 1000 1000 1000 1000 1000 1000 1000 1000 1000 1000 1000
          1000 1000 1000 1000 1000 1000 1000 1000 1000 1000 1000 1000
          1000 1000 1000 1000 1000 1000 1000 1000 1000 1000 1000 1000
          1000 1000 1000 1000 1000 1000 1000 1000 1000 1000 1000 1000
          1000 1000 1000 1000 1000 1000 1000 1000 1000 1000 1000 1000
          1000 1000 1000 1000 1000 1000 1000 1000 1000 1000 1000 1000
          1000 1000 1000 1000 1000 1000 1000 1000 1000 1000 1000 1000
          1000 1000 1000 1000 1000 1000 1000 1000 1000 1000 1000 1000
          1000 1000 1000 1000 1000 1000 1000 1000 1000 1000 1000 1000
          1000 1000 1000 1000 1000 1000 1000 1000 1000 1000 1000 1000
          1000 1000 1000 1000 1000 1000 1000 1000 1000 1000 1000 1000
          1000 1000 1000 1000 1000 1000 1000 1000 1000 1000 1000 1000
          1000 1000 1000 1000 1000 1000 1000 1000 1000 1000 1000 1000
          1000 1000 1000 1000 1000 1000 1000 1000 1000 1000 1000 1000
          1000 1000 1000 1000 1000 1000 1000 1000 1000 1000 1000 1000
          1000 1000 1000 1000 1000 1000 1000 1000 1000 1000 1000 1000
          1000 1000 1000 1000 1000 1000 1000 1000 1000 1000 1000 1000
          1000 1000 1000 1000 1000 1000 1000 1000 1000 1000 1000 1000
          1000 1000 1000 1000 1000 1000 1000 1000 1000 1000 1000 1000
          1000 1000 1000 1000 1000 1000 1000 1000 1000 1000 1000 1000
          1000 1000 1000 1000 1000 1000 1000 1000 1000 1000 1000 1000
          1000 1000 1000 1000 1000 1000 1000 1000 1000 1000 1000 1000
          1000 1000 1000 1000 1000 1000 1000 1000 1000 1000 1000 1000
          1000 1000 1000 1000 1000 1000 1000 1000 1000 1000 1000 1000
          1000 1000 1000 1000 1000 1000 1000 1000 1000 1000 1000 1000
          1000 1000 1000 1000 1000 1000 1000 1000 1000 1000 1000 1000
          1000 1000 1000 1000 1000 1000 1000 1000 1000 1000 1000 1000
          1000 1000 1000 1000 1000 1000 1000 1000 1000 1000 1000 1000
          1000 1000 1000 1000 1000 1000 1000 1000 1000 1000 1000 1000
          1000 1000 1000 1000 1000 1000 1000 1000 1000 1000 1000 1000
          1000 1000 1000 1000 1000 1000 1000 1000 1000 1000 1000 1000
          1000 1000 1000 1000 1000 1000 1000 1000 1000 1000 1000 1000
          1000 1000 1000 1000 1000 1000 1000 1000 1000 1000 1000 1000
          1000 1000 1000 1000 1000 1000 1000 1000 1000 1000 1000 1000
          1000 1000 1000 1000 1000 1000 1000 1000 1000 1000 1000 1000
          1000 1000 1000 1000 1000 1000 1000 1000 1000 1000 1000 1000
          1000 1000 1000 1000 1000 1000 1000 1000 1000 1000 1000 1000
          1000 1000 1000 1000 1000 1000 1000 1000 1000 1000 1000 1000
          1000 1000 1000 1000 1000 1000 1000 1000 1000 1000 1000 1000
          1000 1000 1000 1000 1000 1000 1000 1000 1000 1000 1000 1000
          1000 1000 1000 1000 1000 1000 1000 1000 1000 1000 1000 1000
          1000 1000 1000 1000 1000 1000 1000 1000 1000 1000 1000 1000
          1000 1000 1000 1000 1000 1000 1000 1000 1000 1000 1000 1000
          1000 1000 1000 1000 1000 1000 1000 1000 1000 1000 1000 1000
          1000 1000 1000 1000 1000 1000 1000 1000 1000 1000 1000 1000
          1000 1000 1000 1000 1000 1000 1000 1000 1000 1000 1000 1000
          1000 1000 1000 1000 1000 1000 1000 1000 1000 1000 1000 1000
          1000 1000 1000 1000 1000 1000 1000 1000 1000 1000 1000 1000
          1000 1000 1000 1000 1000 1000 1000 1000 1000 1000 1000 1000
          1000 1000 1000 1000 1000 1000 1000 1000 1000 1000 1000 1000
          1000 1000 1000 1000 1000 1000 1000 1000 1000 1000
        </DataArray>
        <DataArray type="Float32" Name="mu" NumberOfComponents="1" format="ascii">
          0.001 0.001 0.001 0.001 0.001 0.001 0.001 0.001 0.001 0.001 0.001 0.001
          0.001 0.001 0.001 0.001 0.001 0.001 0.001 0.001 0.001 0.001 0.001 0.001
          0.001 0.001 0.001 0.001 0.001 0.001 0.001 0.001 0.001 0.001 0.001 0.001
          0.001 0.001 0.001 0.001 0.001 0.001 0.001 0.001 0.001 0.001 0.001 0.001
          0.001 0.001 0.001 0.001 0.001 0.001 0.001 0.001 0.001 0.001 0.001 0.001
          0.001 0.001 0.001 0.001 0.001 0.001 0.001 0.001 0.001 0.001 0.001 0.001
          0.001 0.001 0.001 0.001 0.001 0.001 0.001 0.001 0.001 0.001 0.001 0.001
          0.001 0.001 0.001 0.001 0.001 0.001 0.001 0.001 0.001 0.001 0.001 0.001
          0.001 0.001 0.001 0.001 0.001 0.001 0.001 0.001 0.001 0.001 0.001 0.001
          0.001 0.001 0.001 0.001 0.001 0.001 0.001 0.001 0.001 0.001 0.001 0.001
          0.001 0.001 0.001 0.001 0.001 0.001 0.001 0.001 0.001 0.001 0.001 0.001
          0.001 0.001 0.001 0.001 0.001 0.001 0.001 0.001 0.001 0.001 0.001 0.001
          0.001 0.001 0.001 0.001 0.001 0.001 0.001 0.001 0.001 0.001 0.001 0.001
          0.001 0.001 0.001 0.001 0.001 0.001 0.001 0.001 0.001 0.001 0.001 0.001
          0.001 0.001 0.001 0.001 0.001 0.001 0.001 0.001 0.001 0.001 0.001 0.001
          0.001 0.001 0.001 0.001 0.001 0.001 0.001 0.001 0.001 0.001 0.001 0.001
          0.001 0.001 0.001 0.001 0.001 0.001 0.001 0.001 0.001 0.001 0.001 0.001
          0.001 0.001 0.001 0.001 0.001 0.001 0.001 0.001 0.001 0.001 0.001 0.001
          0.001 0.001 0.001 0.001 0.001 0.001 0.001 0.001 0.001 0.001 0.001 0.001
          0.001 0.001 0.001 0.001 0.001 0.001 0.001 0.001 0.001 0.001 0.001 0.001
          0.001 0.001 0.001 0.001 0.001 0.001 0.001 0.001 0.001 0.001 0.001 0.001
          0.001 0.001 0.001 0.001 0.001 0.001 0.001 0.001 0.001 0.001 0.001 0.001
          0.001 0.001 0.001 0.001 0.001 0.001 0.001 0.001 0.001 0.001 0.001 0.001
          0.001 0.001 0.001 0.001 0.001 0.001 0.001 0.001 0.001 0.001 0.001 0.001
          0.001 0.001 0.001 0.001 0.001 0.001 0.001 0.001 0.001 0.001 0.001 0.001
          0.001 0.001 0.001 0.001 0.001 0.001 0.001 0.001 0.001 0.001 0.001 0.001
          0.001 0.001 0.001 0.001 0.001 0.001 0.001 0.001 0.001 0.001 0.001 0.001
          0.001 0.001 0.001 0.001 0.001 0.001 0.001 0.001 0.001 0.001 0.001 0.001
          0.001 0.001 0.001 0.001 0.001 0.001 0.001 0.001 0.001 0.001 0.001 0.001
          0.001 0.001 0.001 0.001 0.001 0.001 0.001 0.001 0.001 0.001 0.001 0.001
          0.001 0.001 0.001 0.001 0.001 0.001 0.001 0.001 0.001 0.001 0.001 0.001
          0.001 0.001 0.001 0.001 0.001 0.001 0.001 0.001 0.001 0.001 0.001 0.001
          0.001 0.001 0.001 0.001 0.001 0.001 0.001 0.001 0.001 0.001 0.001 0.001
          0.001 0.001 0.001 0.001 0.001 0.001 0.001 0.001 0.001 0.001 0.001 0.001
          0.001 0.001 0.001 0.001 0.001 0.001 0.001 0.001 0.001 0.001 0.001 0.001
          0.001 0.001 0.001 0.001 0.001 0.001 0.001 0.001 0.001 0.001 0.001 0.001
          0.001 0.001 0.001 0.001 0.001 0.001 0.001 0.001 0.001 0.001 0.001 0.001
          0.001 0.001 0.001 0.001 0.001 0.001 0.001 0.001 0.001 0.001 0.001 0.001
          0.001 0.001 0.001 0.001 0.001 0.001 0.001 0.001 0.001 0.001 0.001 0.001
          0.001 0.001 0.001 0.001 0.001 0.001 0.001 0.001 0.001 0.001 0.001 0.001
          0.001 0.001 0.001 0.001 0.001 0.001 0.001 0.001 0.001 0.001 0.001 0.001
          0.001 0.001 0.001 0.001 0.001 0.001 0.001 0.001 0.001 0.001 0.001 0.001
          0.001 0.001 0.001 0.001 0.001 0.001 0.001 0.001 0.001 0.001 0.001 0.001
          0.001 0.001 0.001 0.001 0.001 0.001 0.001 0.001 0.001 0.001 0.001 0.001
          0.001 0.001 0.001 0.001 0.001 0.001 0.001 0.001 0.001 0.001 0.001 0.001
          0.001 0.001 0.001 0.001 0.001 0.001 0.001 0.001 0.001 0.001 0.001 0.001
          0.001 0.001 0.001 0.001 0.001 0.001 0.001 0.001 0.001 0.001 0.001 0.001
          0.001 0.001 0.001 0.001 0.001 0.001 0.001 0.001 0.001 0.001 0.001 0.001
          0.001 0.001 0.001 0.001 0.001 0.001 0.001 0.001 0.001 0.001 0.001 0.001
          0.001 0.001 0.001 0.001 0.001 0.001 0.001 0.001 0.001 0.001 0.001 0.001
          0.001 0.001 0.001 0.001 0.001 0.001 0.001 0.001 0.001 0.001 0.001 0.001
          0.001 0.001 0.001 0.001 0.001 0.001 0.001 0.001 0.001 0.001 0.001 0.001