<?xml version="1.0"?>
<VTKFile type="UnstructuredGrid" version="0.1" byte_order="LittleEndian">
  <UnstructuredGrid>
    <Piece NumberOfCells="64" NumberOfPoints="81">
      <CellData Scalars="p" Vectors="velocity">
        <DataArray type="Float32" Name="p" NumberOfComponents="1" format="ascii">
          0.120132 0.180768 0.205897 0.198644 0.164572 0.111307 0.0464718 -0.0163382 0.180768 0.450061 0.568188 0.565928
          0.478972 0.332977 0.150896 -0.0272024 0.205897 0.568188 0.787437 0.834874 0.740067 0.542487 0.279323 0.0104982
          0.198644 0.565928 0.834874 0.948901 0.898261 0.708326 0.417814 0.0884083 0.164572 0.478972 0.740067 0.898261
          0.91634 0.786284 0.525466 0.172503 0.111307 0.332977 0.542487 0.708326 0.786284 0.739549 0.552237 0.224624
          0.0464718 0.150896 0.279323 0.417814 0.525466 0.552237 0.45916 0.216186 -0.0163382 -0.0272024 0.0104982 0.0884083
          0.172503 0.224624 0.216186 0.121416
        </DataArray>
        <DataArray type="Float32" Name="velocity" NumberOfComponents="3" format="ascii">
          -0.521741 -0.521741 0 -0.0464327 -1.99462 0 -0.00490418 -2.79179 0 0.00300124 -2.89065 0
          0.00451401 -2.4851 0 0.00434727 -1.73469 0 0.00356306 -0.775297 0 0.000814598 0.172641 0
          -1.99462 -0.0464327 0 -0.856854 -0.856854 0 -0.162138 -1.73031 0 0.044401 -2.13223 0
          0.0909602 -2.04796 0 0.0916029 -1.58644 0 0.0750857 -0.872511 0 0.023239 -0.0977063 0
          -2.79179 -0.00490418 0 -1.73031 -0.162138 0 -0.599039 -0.599039 0 0.0289948 -1.05906 0
          0.263089 -1.29797 0 0.313184 -1.24308 0 0.277784 -0.921372 0 0.130538 -0.407895 0
          -2.89065 0.00300124 0 -2.13223 0.044401 0 -1.05906 0.0289948 0 -0.172897 -0.172897 0
          0.335892 -0.47472 0 0.5431 -0.711142 0 0.557918 -0.765683 0 0.390589 -0.528736 0
          -2.4851 0.00451401 0 -2.04796 0.0909602 0 -1.29797 0.263089 0 -0.47472 0.335892 0
          0.19167 0.19167 0 0.60642 -0.100994 0 0.786978 -0.378182 0 0.778697 -0.405019 0
          -1.73469 0.00434727 0 -1.58644 0.0916029 0 -1.24308 0.313184 0 -0.711142 0.5431 0
          -0.100994 0.60642 0 0.443215 0.443215 0 0.84069 0.133489 0 1.12905 -0.123418 0
          -0.775297 0.00356306 0 -0.872511 0.0750857 0 -0.921372 0.277784 0 -0.765683 0.557918 0
          -0.378182 0.786978 0 0.133489 0.84069 0 0.649857 0.649857 0 1.19212 0.222834 0
          0.172641 0.000814598 0 -0.0977063 0.023239 0 -0.407895 0.130538 0 -0.528736 0.390589 0
          -0.405019 0.778697 0 -0.123418 1.12905 0 0.222834 1.19212 0 0.688444 0.688444 0
        </DataArray>
      </CellData>
      <Points>
        <DataArray type="Float32" Name="Coordinates" NumberOfComponents="3" format="ascii">
          0 0 0 0.125 0 0 0 0.125 0 0.125 0.125 0
          0.25 0 0 0.25 0.125 0 0.375 0 0 0.375 0.125 0
          0.5 0 0 0.5 0.125 0 0.625 0 0 0.625 0.125 0
          0.75 0 0 0.75 0.125 0 0.875 0 0 0.875 0.125 0
          1 0 0 1 0.125 0 0 0.25 0 0.125 0.25 0
          0.25 0.25 0 0.375 0.25 0 0.5 0.25 0 0.625 0.25 0
          0.75 0.25 0 0.875 0.25 0 1 0.25 0 0 0.375 0
          0.125 0.375 0 0.25 0.375 0 0.375 0.375 0 0.5 0.375 0
          0.625 0.375 0 0.75 0.375 0 0.875 0.375 0 1 0.375 0
          0 0.5 0 0.125 0.5 0 0.25 0.5 0 0.375 0.5 0
          0.5 0.5 0 0.625 0.5 0 0.75 0.5 0 0.875 0.5 0
          1 0.5 0 0 0.625 0 0.125 0.625 0 0.25 0.625 0
          0.375 0.625 0 0.5 0.625 0 0.625 0.625 0 0.75 0.625 0
          0.875 0.625 0 1 0.625 0 0 0.75 0 0.125 0.75 0
          0.25 0.75 0 0.375 0.75 0 0.5 0.75 0 0.625 0.75 0
          0.75 0.75 0 0.875 0.75 0 1 0.75 0 0 0.875 0
          0.125 0.875 0 0.25 0.875 0 0.375 0.875 0 0.5 0.875 0
          0.625 0.875 0 0.75 0.875 0 0.875 0.875 0 1 0.875 0
          0 1 0 0.125 1 0 0.25 1 0 0.375 1 0
          0.5 1 0 0.625 1 0 0.75 1 0 0.875 1 0
          1 1 0
        </DataArray>
      </Points>
      <Cells>
        <DataArray type="Int32" Name="connectivity" NumberOfComponents="1" format="ascii">
          0 1 3 2 1 4 5 3 4 6 7 5
          6 8 9 7 8 10 11 9 10 12 13 11
          12 14 15 13 14 16 17 15 2 3 19 18
          3 5 20 19 5 7 21 20 7 9 22 21
          9 11 23 22 11 13 24 23 13 15 25 24
          15 17 26 25 18 19 28 27 19 20 29 28
          20 21 30 29 21 22 31 30 22 23 32 31
          23 24 33 32 24 25 34 33 25 26 35 34
          27 28 37 36 28 29 38 37 29 30 39 38
          30 31 40 39 31 32 41 40 32 33 42 41
          33 34 43 42 34 35 44 43 36 37 46 45
          37 38 47 46 38 39 48 47 39 40 49 48
          40 41 50 49 41 42 51 50 42 43 52 51
          43 44 53 52 45 46 55 54 46 47 56 55
          47 48 57 56 48 49 58 57 49 50 59 58
          50 51 60 59 51 52 61 60 52 53 62 61
          54 55 64 63 55 56 65 64 56 57 66 65
          57 58 67 66 58 59 68 67 59 60 69 68
          60 61 70 69 61 62 71 70 63 64 73 72
          64 65 74 73 65 66 75 74 66 67 76 75
          67 68 77 76 68 69 78 77 69 70 79 78
          70 71 80 79
        </DataArray>
        <DataArray type="Int32" Name="offsets" NumberOfComponents="1" format="ascii">
          4 8 12 16 20 24 28 32 36 40 44 48
          52 56 60 64 68 72 76 80 84 88 92 96
          100 104 108 112 116 120 124 128 132 136 140 144
          148 152 156 160 164 168 172 176 180 184 188 192
          196 200 204 208 212 216 220 224 228 232 236 240
          244 248 252 256
        </DataArray>
        <DataArray type="UInt8" Name="types" NumberOfComponents="1" format="ascii">
          9 9 9 9 9 9 9 9 9 9 9 9
          9 9 9 9 9 9 9 9 9 9 9 9
          9 9 9 9 9 9 9 9 9 9 9 9
          9 9 9 9 9 9 9 9 9 9 9 9
          9 9 9 9 9 9 9 9 9 9 9 9
          9 9 9 9
        </DataArray>
      </Cells>
    </Piece>
  </UnstructuredGrid>
</VTKFile>
