<?xml version="1.0"?>
<VTKFile type="UnstructuredGrid" version="0.1" byte_order="LittleEndian">
  <UnstructuredGrid>
    <Piece NumberOfCells="3200" NumberOfPoints="1681">
      <CellData Scalars="rank" Vectors="velocity">
        <DataArray type="Float32" Name="velocity" NumberOfComponents="3" format="ascii">
          4.92644e-06 -1.65171e-06 0 1.65171e-06 -4.92644e-06 0 3.19472e-05 -1.61121e-05 0 1.61121e-05 -3.19472e-05 0
          2.62314e-05 -4.38496e-06 0 9.43215e-05 -2.56452e-05 0 6.3055e-05 -6.75994e-06 0 9.506e-05 -7.44259e-05 0
          0.000231571 -0.000110209 0 4.38496e-06 -2.62314e-05 0 2.56452e-05 -9.43215e-05 0 7.44259e-05 -9.506e-05 0
          6.75994e-06 -6.3055e-05 0 0.000110209 -0.000231571 0 0.000218677 -0.000153289 0 0.000153289 -0.000218677 0
          0.000373733 -0.000322946 0 0.000322946 -0.000373733 0 0.000112708 -8.76527e-06 0 0.000183469 -3.36037e-05 0
          0.000172607 -1.03934e-05 0 0.000294256 -4.00121e-05 0 0.000415552 -0.000139534 0 0.00063744 -0.000162672 0
          0.00024032 -1.16499e-05 0 0.00042184 -4.4924e-05 0 0.000561683 -4.84105e-05 0 0.000888244 -0.000179937 0
          0.000424728 -0.000201388 0 0.000670695 -0.000408043 0 0.000680722 -0.000239788 0 0.00102877 -0.000474925 0
          0.000626636 -0.000490822 0 0.00100383 -0.000584076 0 0.000975485 -0.000268984 0 0.00143346 -0.000524608 0
          0.00129854 -0.000289506 0 0.0014381 -0.000654803 0 0.00191402 -0.000704359 0 8.76527e-06 -0.000112708 0
          3.36037e-05 -0.000183469 0 0.000139534 -0.000415552 0 4.00121e-05 -0.000294256 0 1.03934e-05 -0.000172607 0
          0.000162672 -0.00063744 0 0.000201388 -0.000424728 0 0.000408043 -0.000670695 0 0.000490822 -0.000626636 0
          0.000239788 -0.000680722 0 0.000474925 -0.00102877 0 0.000584076 -0.00100383 0 4.4924e-05 -0.00042184 0
          1.16499e-05 -0.00024032 0 0.000179937 -0.000888244 0 4.84105e-05 -0.000561683 0 0.000268984 -0.000975485 0
          0.000524608 -0.00143346 0 0.000654803 -0.0014381 0 0.000289506 -0.00129854 0 0.000704359 -0.00191402 0
          0.000880555 -0.000791144 0 0.000791144 -0.000880555 0 0.00126686 -0.0010475 0 0.0013504 -0.000920236 0
          0.0010475 -0.00126686 0 0.000920236 -0.0013504 0 0.00160608 -0.00147308 0 0.00147308 -0.00160608 0
          0.00181447 -0.00117397 0 0.00188136 -0.00101596 0 0.00241457 -0.00126244 0 0.00223726 -0.00162585 0
          0.00210941 -0.00179963 0 0.00280668 -0.0019349 0 0.00117397 -0.00181447 0 0.00101596 -0.00188136 0
          0.00179963 -0.00210941 0 0.00162585 -0.00223726 0 0.00126244 -0.00241457 0 0.0019349 -0.00280668 0
          0.00250655 -0.00232777 0 0.00232777 -0.00250655 0 0.00309685 -0.00269464 0 0.00269464 -0.00309685 0
          0.000313572 -1.25475e-05 0 0.000709548 -5.05524e-05 0 0.000390244 -1.31036e-05 0 0.00115955 -0.000191672 0
          0.00144351 -0.000198234 0 0.000468371 -1.3338e-05 0 0.000861505 -5.1437e-05 0 0.000546144 -1.32725e-05 0
          0.00101392 -5.1155e-05 0 0.00173286 -0.000199993 0 0.0020209 -0.000197321 0 0.00164012 -0.000301908 0
          0.00187121 -0.00055815 0 0.00232938 -0.000576633 0 0.0024172 -0.000734134 0 0.00199113 -0.000306758 0
          0.00279623 -0.000581154 0 0.0023432 -0.000304632 0 0.00326097 -0.000572821 0 0.00293427 -0.000745536 0
          0.00345289 -0.000739985 0 0.000621907 -1.293e-05 0 0.00116347 -4.98003e-05 0 0.00130712 -4.74683e-05 0
          0.00230151 -0.000190598 0 0.000694159 -1.23343e-05 0 0.00144213 -4.42561e-05 0 0.000761549 -1.151e-05 0
          0.00256911 -0.000180206 0 0.00281873 -0.00016653 0 0.00268864 -0.000296113 0 0.0037137 -0.000552749 0
          0.00302043 -0.000281789 0 0.00396172 -0.000718914 0 0.00445046 -0.000683757 0 0.00333228 -0.000262249 0
          0.00414547 -0.000522058 0 0.0045482 -0.000481871 0 0.00490981 -0.000635958 0 0.00245566 -0.00108041 0
          0.00304902 -0.00131544 0 0.00305672 -0.00111571 0 0.00291992 -0.00172856 0 0.00354383 -0.0020158 0
          0.00363437 -0.00178463 0 0.00366917 -0.00112401 0 0.00370097 -0.00133552 0 0.00435485 -0.00132523 0
          0.00427883 -0.00110746 0 0.00436233 -0.00179752 0 0.00430128 -0.00204624 0 0.00508697 -0.00177068 0
          0.00506097 -0.00203017 0 0.00327108 -0.00247443 0 0.00390988 -0.00280699 0 0.00407117 -0.00255434 0
          0.00351624 -0.00329163 0 0.00437603 -0.0033976 0 0.00488638 -0.00257244 0 0.00474528 -0.00284907 0
          0.00569785 -0.00253371 0 0.00558312 -0.0028264 0 0.00525203 -0.00342136 0 0.006124 -0.00336954 0
          0.00499639 -0.00128716 0 0.00487275 -0.00106824 0 0.00561258 -0.00122388 0 0.00579288 -0.0017076 0
          0.0058063 -0.00197153 0 0.00652217 -0.0018743 0 0.00543914 -0.0010085 0 0.00619171 -0.00113798 0
          0.00596745 -0.000930441 0 0.00646607 -0.00161176 0 0.00719497 -0.00174243 0 0.00709398 -0.00148663 0
          0.00648834 -0.00244312 0 0.00640511 -0.00274448 0 0.0071946 -0.00260884 0 0.0069734 -0.00324877 0
          0.00724217 -0.00230566 0 0.00793658 -0.00242501 0 0.00794529 -0.00212634 0 0.0077834 -0.00306569 0
          0.0085389 -0.00282696 0 1.25475e-05 -0.000313572 0 5.05524e-05 -0.000709548 0 0.000191672 -0.00115955 0
          1.31036e-05 -0.000390244 0 0.000198234 -0.00144351 0 0.00055815 -0.00187121 0 0.000301908 -0.00164012 0
          0.000734134 -0.0024172 0 0.000576633 -0.00232938 0 1.3338e-05 -0.000468371 0 5.1437e-05 -0.000861505 0
          0.000199993 -0.00173286 0 5.1155e-05 -0.00101392 0 1.32725e-05 -0.000546144 0 0.000197321 -0.0020209 0
          0.000306758 -0.00199113 0 0.000581154 -0.00279623 0 0.000745536 -0.00293427 0 0.000304632 -0.0023432 0
          0.000572821 -0.00326097 0 0.000739985 -0.00345289 0 0.00108041 -0.00245566 0 0.00131544 -0.00304902 0
          0.00172856 -0.00291992 0 0.0020158 -0.00354383 0 0.00111571 -0.00305672 0 0.00178463 -0.00363437 0
          0.00247443 -0.00327108 0 0.00280699 -0.00390988 0 0.00329163 -0.00351624 0 0.00255434 -0.00407117 0
          0.0033976 -0.00437603 0 0.00133552 -0.00370097 0 0.00112401 -0.00366917 0 0.00179752 -0.00436233 0
          0.00204624 -0.00430128 0 0.00132523 -0.00435485 0 0.00110746 -0.00427883 0 0.00203017 -0.00506097 0
          0.00177068 -0.00508697 0 0.00257244 -0.00488638 0 0.00284907 -0.00474528 0 0.00342136 -0.00525203 0
          0.0028264 -0.00558312 0 0.00253371 -0.00569785 0 0.00336954 -0.006124 0 4.98003e-05 -0.00116347 0
          1.293e-05 -0.000621907 0 0.000190598 -0.00230151 0 4.74683e-05 -0.00130712 0 0.000296113 -0.00268864 0
          0.000552749 -0.0037137 0 0.000718914 -0.00396172 0 0.000281789 -0.00302043 0 0.000683757 -0.00445046 0
          1.23343e-05 -0.000694159 0 4.42561e-05 -0.00144213 0 0.000180206 -0.00256911 0 1.151e-05 -0.000761549 0
          0.00016653 -0.00281873 0 0.000522058 -0.00414547 0 0.000262249 -0.00333228 0 0.000635958 -0.00490981 0
          0.000481871 -0.0045482 0 0.00128716 -0.00499639 0 0.00106824 -0.00487275 0 0.00197153 -0.0058063 0
          0.0017076 -0.00579288 0 0.00122388 -0.00561258 0 0.0018743 -0.00652217 0 0.00274448 -0.00640511 0
          0.00244312 -0.00648834 0 0.00324877 -0.0069734 0 0.00260884 -0.0071946 0 0.0010085 -0.00543914 0
          0.00113798 -0.00619171 0 0.00161176 -0.00646607 0 0.00174243 -0.00719497 0 0.000930441 -0.00596745 0
          0.00148663 -0.00709398 0 0.00230566 -0.00724217 0 0.00242501 -0.00793658 0 0.00306569 -0.0077834 0
          0.00212634 -0.00794529 0 0.00282696 -0.0085389 0 0.00415548 -0.00366256 0 0.00366256 -0.00415548 0
          0.00455785 -0.00428896 0 0.00428896 -0.00455785 0 0.00504307 -0.00371719 0 0.00547001 -0.00431868 0
          0.00593324 -0.00368734 0 0.00637794 -0.00425299 0 0.00520479 -0.00462558 0 0.00612325 -0.00458818 0
          0.00371719 -0.00504307 0 0.00431868 -0.00547001 0 0.00462558 -0.00520479 0 0.00368734 -0.00593324 0
          0.00425299 -0.00637794 0 0.00458818 -0.00612325 0 0.00555105 -0.00524059 0 0.00524059 -0.00555105 0
          0.00616512 -0.00550593 0 0.00647221 -0.00516062 0 0.00550593 -0.00616512 0 0.00516062 -0.00647221 0
          0.00641937 -0.0060708 0 0.0060708 -0.00641937 0 0.00680654 -0.0035802 0 0.00726235 -0.00410028 0
          0.0076453 -0.00340298 0 0.00702429 -0.00445461 0 0.00788967 -0.00423386 0 0.00843356 -0.00316292 0
          0.00810572 -0.00386894 0 0.00889232 -0.00356736 0 0.00870293 -0.00393492 0 0.00707209 -0.0053454 0
          0.00736948 -0.00497506 0 0.00794314 -0.00508027 0 0.00730911 -0.00585228 0 0.00696367 -0.006232 0
          0.00782116 -0.00592266 0 0.0082251 -0.00469411 0 0.00876172 -0.00472132 0 0.00902311 -0.00432795 0
          0.00815752 -0.00552154 0 0.00862697 -0.00550396 0 0.00894879 -0.00509058 0 0.0035802 -0.00680654 0
          0.00410028 -0.00726235 0 0.00445461 -0.00702429 0 0.00340298 -0.0076453 0 0.00423386 -0.00788967 0
          0.0053454 -0.00707209 0 0.00497506 -0.00736948 0 0.006232 -0.00696367 0 0.00585228 -0.00730911 0
          0.00508027 -0.00794314 0 0.00592266 -0.00782116 0 0.00386894 -0.00810572 0 0.00316292 -0.00843356 0
          0.00393492 -0.00870293 0 0.00356736 -0.00889232 0 0.00469411 -0.0082251 0 0.00472132 -0.00876172 0
          0.00552154 -0.00815752 0 0.00550396 -0.00862697 0 0.00432795 -0.00902311 0 0.00509058 -0.00894879 0
          0.00709555 -0.00671278 0 0.00671278 -0.00709555 0 0.00753916 -0.00674314 0 0.00674314 -0.00753916 0
          0.00791897 -0.00633318 0 0.00831572 -0.00626621 0 0.00868691 -0.00583864 0 0.00752546 -0.00711262 0
          0.00825504 -0.00655698 0 0.00633318 -0.00791897 0 0.00626621 -0.00831572 0 0.00711262 -0.00752546 0
          0.00583864 -0.00868691 0 0.00655698 -0.00825504 0 0.00784503 -0.00699298 0 0.00699298 -0.00784503 0
          0.00767073 -0.00723196 0 0.00723196 -0.00767073 0 0.000822884 -1.0482e-05 0 0.00156608 -4.02618e-05 0
          0.000877118 -9.27576e-06 0 0.00167683 -3.5584e-05 0 0.00304592 -0.000149954 0 0.00324683 -0.000130868 0
          0.000923364 -7.91684e-06 0 0.00177254 -3.03224e-05 0 0.00185168 -2.45768e-05 0 0.00341817 -0.00010966 0
          0.00361856 -0.000238086 0 0.00491475 -0.000433316 0 0.00387434 -0.000209895 0 0.00523891 -0.000377522 0
          0.00533149 -0.000576962 0 0.00570824 -0.000508215 0 0.00409538 -0.000178272 0 0.00551534 -0.000315619 0
          0.00427813 -0.000143814 0 0.00603381 -0.000431168 0 0.00630296 -0.000347273 0 0.000960884 -6.43116e-06 0
          0.00191301 -1.84475e-05 0 0.000989093 -4.84478e-06 0 0.0035572 -8.67194e-05 0 0.00366175 -6.24363e-05 0
          0.00100756 -3.18392e-06 0 0.00195557 -1.20351e-05 0 0.00101601 -1.4749e-06 0 0.00197873 -5.44056e-06 0
          0.00373024 -3.72015e-05 0 0.00376163 -1.14063e-05 0 0.00441972 -0.000107119 0 0.00573965 -0.00024874 0
          0.00590834 -0.000178018 0 0.00651148 -0.000257981 0 0.00451798 -6.87852e-05 0 0.00601883 -0.000104587 0
          0.00457141 -2.94123e-05 0 0.00606945 -2.95806e-05 0 0.00665616 -0.000164748 0 0.00673481 -6.90265e-05 0
          0.0064483 -0.000836237 0 0.00672334 -0.00103205 0 0.00719831 -0.000908697 0 0.00687351 -0.000728075 0
          0.00766548 -0.00133573 0 0.00781257 -0.00157992 0 0.00817084 -0.00116254 0 0.00836435 -0.00139073 0
          0.00760875 -0.00077051 0 0.00723612 -0.000608142 0 0.00794805 -0.000620091 0 0.00860179 -0.000970566 0
          0.00884114 -0.00117884 0 0.00923528 -0.000948253 0 0.00858522 -0.00191015 0 0.00861768 -0.00219852 0
          0.0091511 -0.00166211 0 0.00922616 -0.00193493 0 0.00922649 -0.00253921 0 0.00983449 -0.00220913 0
          0.00963363 -0.00138721 0 0.00975193 -0.00163976 0 0.0101865 -0.00131858 0 0.0103529 -0.00184336 0
          0.00753035 -0.000478629 0 0.0082109 -0.000460042 0 0.00775161 -0.000341726 0 0.00895146 -0.000763308 0
          0.00954059 -0.000702939 0 0.00921439 -0.000544269 0 0.00789652 -0.000199625 0 0.00839324 -0.000292966 0
          0.00849233 -0.000121468 0 0.00796289 -5.45205e-05 0 0.00938657 -0.000316954 0 0.00975236 -0.000446891 0
          0.00946539 -8.48698e-05 0 0.00986739 -0.000184098 0 0.0100251 -0.00109047 0 0.0105232 -0.000976935 0
          0.0103195 -0.000776906 0 0.0107735 -0.00144858 0 0.0110898 -0.00103144 0 0.0105122 -0.000451531 0
          0.0107566 -0.000620369 0 0.0106004 -0.000119361 0 0.0108834 -0.00025444 0 0.0112968 -0.000598632 0
          0.0113914 -0.00015681 0 0.0010143 2.55823e-07 0 0.00198215 1.23509e-06 0 0.00196576 7.8906e-06 0
          0.00375543 1.45577e-05 0 0.00100248 1.98174e-06 0 0.00192981 1.44246e-05 0 0.000980715 3.67625e-06 0
          0.00371176 4.02988e-05 0 0.00363127 6.54247e-05 0 0.00457921 1.04001e-05 0 0.00605945 4.58643e-05 0
          0.00454127 5.00519e-05 0 0.00674623 2.77268e-05 0 0.00669027 0.000124056 0 0.00445816 8.89426e-05 0
          0.00598898 0.000120613 0 0.00585909 0.000193528 0 0.00656778 0.000218506 0 0.000949336 5.3127e-06 0
          0.00187486 2.07354e-05 0 0.00090883 6.86436e-06 0 0.00180174 2.67215e-05 0 0.00351519 8.9543e-05 0
          0.0033653 0.000112261 0 0.000859831 8.30444e-06 0 0.0017116 3.22811e-05 0 0.00160586 3.73123e-05 0
          0.00318395 0.000133186 0 0.00433114 0.000126471 0 0.00567178 0.000263473 0 0.00416216 0.000162037 0
          0.00542991 0.000329311 0 0.00638059 0.000309618 0 0.00613159 0.000395936 0 0.00395385 0.000195039 0
          0.0051373 0.000389905 0 0.00370954 0.000224875 0 0.00582466 0.000476002 0 0.00546468 0.000548357 0
          0.00850666 5.18475e-05 0 0.00794972 9.13949e-05 0 0.00843602 0.000224374 0 0.00944967 0.000148478 0
          0.00988395 8.14513e-05 0 0.00980179 0.000345765 0 0.00785722 0.000235926 0 0.00828149 0.000393506 0
          0.00768677 0.000376878 0 0.00933965 0.000379581 0 0.00962215 0.000604851 0 0.00913699 0.000604931 0
          0.0105827 0.000214587 0 0.0109016 0.000115299 0 0.0108109 0.000483293 0 0.0113723 0.000287349 0
          0.0104594 0.000545295 0 0.0106126 0.000843984 0 0.0102324 0.000867745 0 0.0112398 0.000727174 0
          0.0109957 0.00115599 0 0.00744099 0.000512055 0 0.00804539 0.000556635 0 0.00773135 0.000711154 0
          0.00712364 0.000639261 0 0.00884477 0.000821019 0 0.00934776 0.000854717 0 0.00846749 0.00102434 0
          0.00898281 0.00109137 0 0.00734427 0.000854454 0 0.00673971 0.000756299 0 0.00689032 0.000983926 0
          0.00801108 0.00121137 0 0.00853299 0.00131082 0 0.00800549 0.00150906 0 0.00990507 0.00117692 0
          0.0103099 0.00119182 0 0.0094825 0.00146779 0 0.00990731 0.00152123 0 0.0106439 0.00156712 0
          0.0101897 0.0019539 0 0.0089713 0.00173534 0 0.00941112 0.00182668 0 0.00882924 0.00210258 0
          0.00964027 0.00230964 0 0.00915713 -0.00286723 0 0.00960821 -0.00320396 0 0.00980354 -0.00252314 0
          0.0102412 -0.00278713 0 0.00944943 -0.00356679 0 0.0101163 -0.00313846 0 0.0103621 -0.0021379 0
          0.0107809 -0.00232529 0 0.0108237 -0.00171875 0 0.0106925 -0.00265894 0 0.0111687 -0.00213724 0
          0.00974935 -0.00388678 0 0.00951308 -0.00427935 0 0.0101843 -0.00376517 0 0.0103915 -0.00338081 0
          0.00966887 -0.00457141 0 0.00936658 -0.00498848 0 0.0103056 -0.00397602 0 0.0100273 -0.00438882 0
          0.0107642 -0.00318958 0 0.010939 -0.00282024 0 0.0112435 -0.00256339 0 0.0108484 -0.00331643 0
          0.0105981 -0.00371759 0 0.0110698 -0.00298738 0 0.0111813 -0.00127291 0 0.0112188 -0.00182685 0
          0.011548 -0.00130023 0 0.0115376 -0.00158237 0 0.0114292 -0.000807641 0 0.0117634 -0.000753846 0
          0.0115638 -0.00033018 0 0.0118619 -0.000196114 0 0.0117933 -0.00100334 0 0.011932 -0.000409162 0
          0.0113831 -0.00221529 0 0.0116146 -0.00189742 0 0.011717 -0.00157617 0 0.0112887 -0.00260464 0
          0.011435 -0.00221081 0 0.0116197 -0.00185268 0 0.0119355 -0.000913081 0 0.0118719 -0.00120248 0
          0.0120114 -0.000489392 0 0.0120353 -0.000236253 0 0.0118362 -0.00107256 0 0.0116882 -0.00140049 0
          0.011935 -0.000276286 0 0.0118255 -0.000569032 0 0.00938575 -0.00524292 0 0.00902846 -0.0056791 0
          0.0100036 -0.00455979 0 0.00966511 -0.00499616 0 0.00891895 -0.00588772 0 0.0095059 -0.00512031 0
          0.0105304 -0.00380304 0 0.0102151 -0.00423175 0 0.0106696 -0.00340021 0 0.0100063 -0.00427022 0
          0.00851723 -0.00633755 0 0.00828745 -0.00649357 0 0.00911764 -0.00557518 0 0.00883266 -0.00564693 0
          0.00785142 -0.00695156 0 0.0084047 -0.00611509 0 0.00963631 -0.00472189 0 0.00929741 -0.00470912 0
          0.0100649 -0.0037937 0 0.00888262 -0.00517889 0 0.0092775 -0.00416055 0 0.0109576 -0.00298643 0
          0.0110215 -0.0025159 0 0.0112787 -0.00212376 0 0.0104121 -0.00335294 0 0.0107171 -0.00238393 0
          0.0114888 -0.00122881 0 0.0112654 -0.00159318 0 0.0115845 -0.000315354 0 0.0113975 -0.000646404 0
          0.0109165 -0.00137868 0 0.0110073 -0.000352677 0 0.0103967 -0.00280664 0 0.00967431 -0.0036972 0
          0.00995748 -0.00262824 0 0.00958314 -0.00307763 0 0.0106266 -0.00177673 0 0.0101426 -0.00151934 0
          0.010751 -0.000719988 0 0.0102268 -0.000387554 0 0.00979486 -0.00194773 0 0.00990942 -0.00078842 0
          0.011583 0.000152226 0 0.0118419 0.000364543 0 0.0114865 0.00063233 0 0.0119517 0.000191142 0
          0.011852 0.00078856 0 0.0112758 0.00110289 0 0.0117037 0.000919705 0 0.0114495 0.00146095 0
          0.0116345 0.00137407 0 0.0120311 0.000231033 0 0.0120149 0.000444102 0 0.0119307 0.000947972 0
          0.0119146 0.000524111 0 0.0118447 0.000270959 0 0.0117457 0.00110687 0 0.0118746 0.00111777 0
          0.0117116 0.00165061 0 0.0116165 0.00177452 0 0.0117754 0.00131661 0 0.0115299 0.00192607 0
          0.0115194 0.0020892 0 0.0109541 0.00155664 0 0.0110831 0.00197985 0 0.0105262 0.00198636 0
          0.01061 0.00246799 0 0.0113024 0.00193867 0 0.0108608 0.00247332 0 0.00999893 0.00238477 0
          0.0100379 0.00291693 0 0.00938061 0.00274464 0 0.0103167 0.00296901 0 0.00967863 0.00341671 0
          0.0112446 0.00240414 0 0.0113772 0.00232811 0 0.0109326 0.00296967 0 0.0107646 0.00299641 0
          0.0111504 0.00282986 0 0.0112005 0.00271596 0 0.0106743 0.00352655 0 0.0107627 0.00346392 0
          0.0103847 0.00356445 0 0.010184 0.00354111 0 0.00974232 0.00410164 0 0.0100985 0.00416726 0
          0.0102232 0.00415733 0 0.0095907 0.00478357 0 0.0115646 0.000602812 0 0.0114159 0.000310059 0
          0.0113203 0.00126185 0 0.0109883 0.0006786 0 0.0114293 0.0015119 0 0.0111122 0.00219461 0
          0.0111807 0.00239813 0 0.0108596 0.00169966 0 0.0106232 0.00269503 0 0.0107683 0.000347548 0
          0.010209 0.000750025 0 0.0106779 0.00140985 0 0.00992511 0.000382716 0 0.0098417 0.00154809 0
          0.0104814 0.00245089 0 0.0100893 0.00187632 0 0.00986948 0.00297425 0 0.00966043 0.00269013 0
          0.0108225 0.0032477 0 0.0107946 0.00309397 0 0.0103603 0.00404683 0 0.0103726 0.00394557 0
          0.0102827 0.00364921 0 0.00984338 0.00454671 0 0.00980122 0.00478173 0 0.00985251 0.00473504 0
          0.00924279 0.00544801 0 0.00931209 0.00537206 0 0.0101818 0.00345464 0 0.009553 0.00402673 0
          0.0097835 0.00440506 0 0.00914468 0.00501668 0 0.00938407 0.00379123 0 0.00901683 0.00483382 0
          0.00929283 0.00528612 0 0.00865094 0.00592702 0 0.0087176 0.0060818 0 0.00856445 0.0058003 0
          0.00803414 0.0066731 0 1.0482e-05 -0.000822884 0 4.02618e-05 -0.00156608 0 0.000149954 -0.00304592 0
          3.5584e-05 -0.00167683 0 9.27576e-06 -0.000877118 0 0.000130868 -0.00324683 0 0.000238086 -0.00361856 0
          0.000433316 -0.00491475 0 0.000576962 -0.00533149 0 0.000209895 -0.00387434 0 0.000377522 -0.00523891 0
          0.000508215 -0.00570824 0 3.03224e-05 -0.00177254 0 7.91684e-06 -0.000923364 0 0.00010966 -0.00341817 0
          2.45768e-05 -0.00185168 0 0.000178272 -0.00409538 0 0.000315619 -0.00551534 0 0.000431168 -0.00603381 0
          0.000143814 -0.00427813 0 0.000347273 -0.00630296 0 0.00103205 -0.00672334 0 0.000836237 -0.0064483 0
          0.00133573 -0.00766548 0 0.00157992 -0.00781257 0 0.000908697 -0.00719831 0 0.000728075 -0.00687351 0
          0.00139073 -0.00836435 0 0.00116254 -0.00817084 0 0.00191015 -0.00858522 0 0.00219852 -0.00861768 0
          0.00253921 -0.00922649 0 0.00193493 -0.00922616 0 0.00166211 -0.0091511 0 0.00220913 -0.00983449 0
          0.00077051 -0.00760875 0 0.000608142 -0.00723612 0 0.00117884 -0.00884114 0 0.000970566 -0.00860179 0
          0.000620091 -0.00794805 0 0.000948253 -0.00923528 0 0.00163976 -0.00975193 0 0.00138721 -0.00963363 0
          0.00184336 -0.0103529 0 0.00131858 -0.0101865 0 6.43116e-06 -0.000960884 0 1.84475e-05 -0.00191301 0
          8.67194e-05 -0.0035572 0 4.84478e-06 -0.000989093 0 6.24363e-05 -0.00366175 0 0.00024874 -0.00573965 0
          0.000107119 -0.00441972 0 0.000257981 -0.00651148 0 0.000178018 -0.00590834 0 3.18392e-06 -0.00100756 0
          1.20351e-05 -0.00195557 0 3.72015e-05 -0.00373024 0 5.44056e-06 -0.00197873 0 1.4749e-06 -0.00101601 0
          1.14063e-05 -0.00376163 0 6.87852e-05 -0.00451798 0 0.000104587 -0.00601883 0 0.000164748 -0.00665616 0
          2.94123e-05 -0.00457141 0 2.95806e-05 -0.00606945 0 6.90265e-05 -0.00673481 0 0.000478629 -0.00753035 0
          0.000460042 -0.0082109 0 0.000763308 -0.00895146 0 0.000702939 -0.00954059 0 0.000341726 -0.00775161 0
          0.000544269 -0.00921439 0 0.00109047 -0.0100251 0 0.000976935 -0.0105232 0 0.00144858 -0.0107735 0
          0.000776906 -0.0103195 0 0.00103144 -0.0110898 0 0.000292966 -0.00839324 0 0.000199625 -0.00789652 0
          0.000316954 -0.00938657 0 0.000446891 -0.00975236 0 0.000121468 -0.00849233 0 5.45205e-05 -0.00796289 0
          0.000184098 -0.00986739 0 8.48698e-05 -0.00946539 0 0.000451531 -0.0105122 0 0.000620369 -0.0107566 0
          0.000598632 -0.0112968 0 0.00025444 -0.0108834 0 0.000119361 -0.0106004 0 0.00015681 -0.0113914 0
          0.00286723 -0.00915713 0 0.00320396 -0.00960821 0 0.00356679 -0.00944943 0 0.00252314 -0.00980354 0
          0.00278713 -0.0102412 0 0.00313846 -0.0101163 0 0.00427935 -0.00951308 0 0.00388678 -0.00974935 0
          0.00457141 -0.00966887 0 0.00498848 -0.00936658 0 0.00376517 -0.0101843 0 0.00338081 -0.0103915 0
          0.00438882 -0.0100273 0 0.00397602 -0.0103056 0 0.0021379 -0.0103621 0 0.00232529 -0.0107809 0
          0.00265894 -0.0106925 0 0.00171875 -0.0108237 0 0.00213724 -0.0111687 0 0.00318958 -0.0107642 0
          0.00282024 -0.010939 0 0.00371759 -0.0105981 0 0.00331643 -0.0108484 0 0.00256339 -0.0112435 0
          0.00298738 -0.0110698 0 0.00524292 -0.00938575 0 0.0056791 -0.00902846 0 0.00588772 -0.00891895 0
          0.00499616 -0.00966511 0 0.00455979 -0.0100036 0 0.00512031 -0.0095059 0 0.00633755 -0.00851723 0
          0.00649357 -0.00828745 0 0.00695156 -0.00785142 0 0.00557518 -0.00911764 0 0.00564693 -0.00883266 0
          0.00611509 -0.0084047 0 0.00423175 -0.0102151 0 0.00380304 -0.0105304 0 0.00427022 -0.0100063 0
          0.00340021 -0.0106696 0 0.00472189 -0.00963631 0 0.00470912 -0.00929741 0 0.00517889 -0.00888262 0
          0.0037937 -0.0100649 0 0.00416055 -0.0092775 0 0.00182685 -0.0112188 0 0.00127291 -0.0111813 0
          0.00158237 -0.0115376 0 0.00130023 -0.011548 0 0.00221529 -0.0113831 0 0.00189742 -0.0116146 0
          0.00260464 -0.0112887 0 0.00221081 -0.011435 0 0.00157617 -0.011717 0 0.00185268 -0.0116197 0
          0.000807641 -0.0114292 0 0.000753846 -0.0117634 0 0.00100334 -0.0117933 0 0.00033018 -0.0115638 0
          0.000196114 -0.0118619 0 0.000409162 -0.011932 0 0.00120248 -0.0118719 0 0.000913081 -0.0119355 0
          0.00107256 -0.0118362 0 0.00140049 -0.0116882 0 0.000489392 -0.0120114 0 0.000236253 -0.0120353 0
          0.000569032 -0.0118255 0 0.000276286 -0.011935 0 0.00298643 -0.0109576 0 0.0025159 -0.0110215 0
          0.00335294 -0.0104121 0 0.00212376 -0.0112787 0 0.00238393 -0.0107171 0 0.0036972 -0.00967431 0
          0.00280664 -0.0103967 0 0.00307763 -0.00958314 0 0.00262824 -0.00995748 0 0.00122881 -0.0114888 0
          0.00159318 -0.0112654 0 0.00137868 -0.0109165 0 0.000646404 -0.0113975 0 0.000315354 -0.0115845 0
          0.000352677 -0.0110073 0 0.00177673 -0.0106266 0 0.00151934 -0.0101426 0 0.00194773 -0.00979486 0
          0.000719988 -0.010751 0 0.000387554 -0.0102268 0 0.00078842 -0.00990942 0 -1.23509e-06 -0.00198215 0
          -2.55823e-07 -0.0010143 0 -1.45577e-05 -0.00375543 0 -7.8906e-06 -0.00196576 0 -1.04001e-05 -0.00457921 0
          -4.58643e-05 -0.00605945 0 -2.77268e-05 -0.00674623 0 -5.00519e-05 -0.00454127 0 -0.000124056 -0.00669027 0
          -1.98174e-06 -0.00100248 0 -1.44246e-05 -0.00192981 0 -4.02988e-05 -0.00371176 0 -3.67625e-06 -0.000980715 0
          -6.54247e-05 -0.00363127 0 -0.000120613 -0.00598898 0 -8.89426e-05 -0.00445816 0 -0.000218506 -0.00656778 0
          -0.000193528 -0.00585909 0 -5.18475e-05 -0.00850666 0 -9.13949e-05 -0.00794972 0 -8.14513e-05 -0.00988395 0
          -0.000148478 -0.00944967 0 -0.000224374 -0.00843602 0 -0.000345765 -0.00980179 0 -0.000115299 -0.0109016 0
          -0.000214587 -0.0105827 0 -0.000287349 -0.0113723 0 -0.000483293 -0.0108109 0 -0.000235926 -0.00785722 0
          -0.000393506 -0.00828149 0 -0.000379581 -0.00933965 0 -0.000604851 -0.00962215 0 -0.000376878 -0.00768677 0
          -0.000604931 -0.00913699 0 -0.000545295 -0.0104594 0 -0.000843984 -0.0106126 0 -0.000727174 -0.0112398 0
          -0.000867745 -0.0102324 0 -0.00115599 -0.0109957 0 -5.3127e-06 -0.000949336 0 -2.07354e-05 -0.00187486 0
          -8.9543e-05 -0.00351519 0 -2.67215e-05 -0.00180174 0 -6.86436e-06 -0.00090883 0 -0.000112261 -0.0033653 0
          -0.000126471 -0.00433114 0 -0.000263473 -0.00567178 0 -0.000309618 -0.00638059 0 -0.000162037 -0.00416216 0
          -0.000329311 -0.00542991 0 -0.000395936 -0.00613159 0 -3.22811e-05 -0.0017116 0 -8.30444e-06 -0.000859831 0
          -0.000133186 -0.00318395 0 -3.73123e-05 -0.00160586 0 -0.000195039 -0.00395385 0 -0.000389905 -0.0051373 0
          -0.000476002 -0.00582466 0 -0.000224875 -0.00370954 0 -0.000548357 -0.00546468 0 -0.000556635 -0.00804539 0
          -0.000512055 -0.00744099 0 -0.000821019 -0.00884477 0 -0.000854717 -0.00934776 0 -0.000711154 -0.00773135 0
          -0.000639261 -0.00712364 0 -0.00109137 -0.00898281 0 -0.00102434 -0.00846749 0 -0.00117692 -0.00990507 0
          -0.00119182 -0.0103099 0 -0.00156712 -0.0106439 0 -0.00152123 -0.00990731 0 -0.00146779 -0.0094825 0
          -0.0019539 -0.0101897 0 -0.000854454 -0.00734427 0 -0.000756299 -0.00673971 0 -0.00131082 -0.00853299 0
          -0.00121137 -0.00801108 0 -0.000983926 -0.00689032 0 -0.00150906 -0.00800549 0 -0.00182668 -0.00941112 0
          -0.00173534 -0.0089713 0 -0.00230964 -0.00964027 0 -0.00210258 -0.00882924 0 -0.000152226 -0.011583 0
          -0.000364543 -0.0118419 0 -0.000191142 -0.0119517 0 -0.00063233 -0.0114865 0 -0.00078856 -0.011852 0
          -0.000231033 -0.0120311 0 -0.000444102 -0.0120149 0 -0.000270959 -0.0118447 0 -0.000524111 -0.0119146 0
          -0.000947972 -0.0119307 0 -0.00110687 -0.0117457 0 -0.000919705 -0.0117037 0 -0.00110289 -0.0112758 0
          -0.00137407 -0.0116345 0 -0.00146095 -0.0114495 0 -0.00111777 -0.0118746 0 -0.00165061 -0.0117116 0
          -0.00131661 -0.0117754 0 -0.00192607 -0.0115299 0 -0.00177452 -0.0116165 0 -0.0020892 -0.0115194 0
          -0.000310059 -0.0114159 0 -0.000602812 -0.0115646 0 -0.0006786 -0.0109883 0 -0.00126185 -0.0113203 0
          -0.000347548 -0.0107683 0 -0.000750025 -0.010209 0 -0.000382716 -0.00992511 0 -0.00140985 -0.0106779 0
          -0.00154809 -0.0098417 0 -0.0015119 -0.0114293 0 -0.00219461 -0.0111122 0 -0.00169966 -0.0108596 0
          -0.00239813 -0.0111807 0 -0.00269503 -0.0106232 0 -0.00187632 -0.0100893 0 -0.00245089 -0.0104814 0
          -0.00269013 -0.00966043 0 -0.00297425 -0.00986948 0 -0.00155664 -0.0109541 0 -0.00197985 -0.0110831 0
          -0.00193867 -0.0113024 0 -0.00198636 -0.0105262 0 -0.00246799 -0.01061 0 -0.00247332 -0.0108608 0
          -0.00232811 -0.0113772 0 -0.00240414 -0.0112446 0 -0.00282986 -0.0111504 0 -0.00271596 -0.0112005 0
          -0.00296967 -0.0109326 0 -0.00299641 -0.0107646 0 -0.00346392 -0.0107627 0 -0.00352655 -0.0106743 0
          -0.00238477 -0.00999893 0 -0.00291693 -0.0100379 0 -0.00296901 -0.0103167 0 -0.00274464 -0.00938061 0
          -0.00341671 -0.00967863 0 -0.00356445 -0.0103847 0 -0.00354111 -0.010184 0 -0.00415733 -0.0102232 0
          -0.00416726 -0.0100985 0 -0.00410164 -0.00974232 0 -0.00478357 -0.0095907 0 -0.0032477 -0.0108225 0
          -0.00309397 -0.0107946 0 -0.00364921 -0.0102827 0 -0.00394557 -0.0103726 0 -0.00404683 -0.0103603 0
          -0.00454671 -0.00984338 0 -0.00345464 -0.0101818 0 -0.00402673 -0.009553 0 -0.00379123 -0.00938407 0
          -0.00440506 -0.0097835 0 -0.00501668 -0.00914468 0 -0.00483382 -0.00901683 0 -0.00473504 -0.00985251 0
          -0.00478173 -0.00980122 0 -0.00537206 -0.00931209 0 -0.00544801 -0.00924279 0 -0.00528612 -0.00929283 0
          -0.00592702 -0.00865094 0 -0.0058003 -0.00856445 0 -0.0060818 -0.0087176 0 -0.0066731 -0.00803414 0
          0.00751024 -0.00704956 0 0.00704956 -0.00751024 0 0.00754611 -0.00660631 0 0.00800411 -0.00613018 0
          0.00660631 -0.00754611 0 0.00613018 -0.00800411 0 0.00704051 -0.00656173 0 0.00656173 -0.00704051 0
          0.007975 -0.00559464 0 0.00842507 -0.00511182 0 0.00832933 -0.00449423 0 0.00741057 -0.00547141 0
          0.00693444 -0.00596209 0 0.00724231 -0.0047891 0 0.00559464 -0.007975 0 0.00511182 -0.00842507 0
          0.00596209 -0.00693444 0 0.00547141 -0.00741057 0 0.00449423 -0.00832933 0 0.0047891 -0.00724231 0
          0.00627522 -0.00578191 0 0.00578191 -0.00627522 0 0.00603835 -0.00504032 0 0.00504032 -0.00603835 0
          0.00876642 -0.00401302 0 0.00860354 -0.00332408 0 0.00902283 -0.00285232 0 0.0077106 -0.00429498 0
          0.00748051 -0.00354179 0 0.00793591 -0.0030523 0 0.00919038 -0.00164825 0 0.00879341 -0.00210316 0
          0.00889607 -0.000850495 0 0.00926654 -0.000419367 0 0.00808307 -0.00176321 0 0.00764538 -0.00224039 0