<?xml version="1.0"?>
<VTKFile type="UnstructuredGrid" version="0.1" byte_order="LittleEndian">
  <UnstructuredGrid>
    <Piece NumberOfCells="2500" NumberOfPoints="3006">
      <CellData Scalars="waterDepth">
        <DataArray type="Float32" Name="waterDepth" NumberOfComponents="1" format="ascii">
          0.941323 0.94095 0.940844 0.940737 0.94063 0.940522 0.940414 0.940305 0.940196 0.940087 0.939977 0.939867
          0.939756 0.939645 0.939533 0.939421 0.939308 0.939195 0.939082 0.938968 0.938854 0.938739 0.938623 0.938508
          0.938391 0.938275 0.938157 0.93804 0.937922 0.937803 0.937684 0.937564 0.937444 0.937324 0.937203 0.937081
          0.936959 0.936837 0.936714 0.93659 0.936466 0.936342 0.936216 0.936091 0.935965 0.935838 0.935711 0.935583
          0.935455 0.935326 0.935197 0.935067 0.934937 0.934806 0.934675 0.934543 0.93441 0.934277 0.934143 0.934009
          0.933874 0.933739 0.933603 0.933467 0.93333 0.933192 0.933054 0.932915 0.932776 0.932636 0.932495 0.932354
          0.932212 0.93207 0.931927 0.931784 0.931639 0.931495 0.931349 0.931203 0.931056 0.930909 0.930761 0.930613
          0.930464 0.930314 0.930163 0.930012 0.92986 0.929708 0.929555 0.929401 0.929247 0.929092 0.928936 0.928779
          0.928622 0.928464 0.928306 0.928147 0.927987 0.927826 0.927665 0.927503 0.92734 0.927177 0.927012 0.926847
          0.926682 0.926515 0.926348 0.92618 0.926012 0.925843 0.925672 0.925502 0.92533 0.925158 0.924984 0.92481
          0.924636 0.92446 0.924284 0.924107 0.923929 0.92375 0.923571 0.92339 0.923209 0.923027 0.922844 0.922661
          0.922476 0.922291 0.922105 0.921918 0.92173 0.921541 0.921351 0.921161 0.92097 0.920777 0.920584 0.92039
          0.920195 0.919999 0.919802 0.919605 0.919406 0.919207 0.919006 0.918805 0.918602 0.918399 0.918195 0.91799
          0.917783 0.917576 0.917368 0.917159 0.916949 0.916738 0.916525 0.916312 0.916098 0.915883 0.915667 0.915449
          0.915231 0.915012 0.914791 0.91457 0.914347 0.914123 0.913899 0.913673 0.913446 0.913218 0.912989 0.912758
          0.912527 0.912294 0.912061 0.911826 0.91159 0.911353 0.911114 0.910875 0.910634 0.910392 0.910149 0.909905
          0.909659 0.909412 0.909164 0.908915 0.908664 0.908412 0.908159 0.907905 0.907649 0.907392 0.907134 0.906875
          0.906614 0.906351 0.906088 0.905823 0.905556 0.905289 0.90502 0.904749 0.904477 0.904204 0.903929 0.903653
          0.903376 0.903097 0.902816 0.902534 0.902251 0.901966 0.901679 0.901391 0.901102 0.900811 0.900518 0.900224
          0.899928 0.899631 0.899332 0.899031 0.898729 0.898425 0.89812 0.897813 0.897504 0.897193 0.896881 0.896567
          0.896252 0.895935 0.895615 0.895295 0.894972 0.894648 0.894321 0.893993 0.893664 0.893332 0.892998 0.892663
          0.892326 0.891986 0.891645 0.891302 0.890957 0.89061 0.890261 0.88991 0.889557 0.889202 0.888845 0.888486
          0.888125 0.887761 0.887396 0.887028 0.886659 0.886287 0.885913 0.885536 0.885158 0.884777 0.884394 0.884009
          0.883621 0.883231 0.882839 0.882444 0.882047 0.881648 0.881246 0.880842 0.880435 0.880026 0.879614 0.8792
          0.878783 0.878363 0.877941 0.877517 0.877089 0.876659 0.876227 0.875791 0.875353 0.874912 0.874469 0.874022
          0.873573 0.87312 0.872665 0.872207 0.871746 0.871282 0.870815 0.870345 0.869871 0.869395 0.868916 0.868433
          0.867947 0.867458 0.866966 0.86647 0.865971 0.865469 0.864963 0.864454 0.863941 0.863425 0.862905 0.862382
          0.861855 0.861325 0.860791 0.860253 0.859711 0.859165 0.858616 0.858063 0.857505 0.856944 0.856379 0.85581
          0.855236 0.854659 0.854077 0.853491 0.852901 0.852306 0.851707 0.851103 0.850495 0.849883 0.849265 0.848643
          0.848017 0.847385 0.846749 0.846108 0.845462 0.844811 0.844155 0.843494 0.842827 0.842156 0.841478 0.840796
          0.840108 0.839415 0.838716 0.838011 0.8373 0.836584 0.835862 0.835134 0.834399 0.833659 0.832912 0.832159
          0.8314 0.830634 0.829861 0.829082 0.828296 0.827504 0.826704 0.825897 0.825083 0.824262 0.823433 0.822597
          0.821753 0.820902 0.820042 0.819175 0.818299 0.817416 0.816524 0.815623 0.814714 0.813796 0.81287 0.811934
          0.810989 0.810035 0.809071 0.808097 0.807114 0.806121 0.805117 0.804103 0.803079 0.802044 0.800998 0.79994
          0.798872 0.797792 0.7967 0.795596 0.794479 0.793351 0.792209 0.791055 0.789887 0.788706 0.787511 0.786302
          0.785079 0.783841 0.782588 0.781319 0.780035 0.778735 0.777419 0.776085 0.774735 0.773367 0.771981 0.770577
          0.769153 0.767711 0.766248 0.764765 0.763262 0.761736 0.760189 0.758619 0.757026 0.755409 0.753768 0.752101
          0.750408 0.748689 0.746942 0.745166 0.743361 0.741525 0.739658 0.737759 0.735826 0.733859 0.731856 0.729815
          0.727736 0.725617 0.723456 0.721252 0.719003 0.716708 0.714363 0.711967 0.709519 0.707014 0.704451 0.701827
          0.699139 0.696383 0.693556 0.690654 0.687673 0.684608 0.681453 0.678204 0.674854 0.671397 0.667824 0.664127
          0.660296 0.656321 0.652189 0.647886 0.643395 0.638697 0.633771 0.628589 0.623119 0.617324 0.611153 0.604548
          0.597429 0.589691 0.581191 0.571721 0.560959 0.548367 0.532887 0.5118 0.941323 0.94095 0.940844 0.940737
          0.94063 0.940522 0.940414 0.940305 0.940196 0.940087 0.939977 0.939867 0.939756 0.939645 0.939533 0.939421
          0.939308 0.939195 0.939082 0.938968 0.938854 0.938739 0.938623 0.938508 0.938391 0.938275 0.938157 0.93804
          0.937922 0.937803 0.937684 0.937564 0.937444 0.937324 0.937203 0.937081 0.936959 0.936837 0.936714 0.93659
          0.936466 0.936342 0.936216 0.936091 0.935965 0.935838 0.935711 0.935583 0.935455 0.935326 0.935197 0.935067
          0.934937 0.934806 0.934675 0.934543 0.93441 0.934277 0.934143 0.934009 0.933874 0.933739 0.933603 0.933467
          0.93333 0.933192 0.933054 0.932915 0.932776 0.932636 0.932495 0.932354 0.932212 0.93207 0.931927 0.931784
          0.931639 0.931495 0.931349 0.931203 0.931056 0.930909 0.930761 0.930613 0.930464 0.930314 0.930163 0.930012
          0.92986 0.929708 0.929555 0.929401 0.929247 0.929092 0.928936 0.928779 0.928622 0.928464 0.928306 0.928147
          0.927987 0.927826 0.927665 0.927503 0.92734 0.927177 0.927012 0.926847 0.926682 0.926515 0.926348 0.92618
          0.926012 0.925843 0.925672 0.925502 0.92533 0.925158 0.924984 0.92481 0.924636 0.92446 0.924284 0.924107
          0.923929 0.92375 0.923571 0.92339 0.923209 0.923027 0.922844 0.922661 0.922476 0.922291 0.922105 0.921918
          0.92173 0.921541 0.921351 0.921161 0.92097 0.920777 0.920584 0.92039 0.920195 0.919999 0.919802 0.919605
          0.919406 0.919207 0.919006 0.918805 0.918602 0.918399 0.918195 0.91799 0.917783 0.917576 0.917368 0.917159
          0.916949 0.916738 0.916525 0.916312 0.916098 0.915883 0.915667 0.915449 0.915231 0.915012 0.914791 0.91457
          0.914347 0.914123 0.913899 0.913673 0.913446 0.913218 0.912989 0.912758 0.912527 0.912294 0.912061 0.911826
          0.91159 0.911353 0.911114 0.910875 0.910634 0.910392 0.910149 0.909905 0.909659 0.909412 0.909164 0.908915
          0.908664 0.908412 0.908159 0.907905 0.907649 0.907392 0.907134 0.906875 0.906614 0.906351 0.906088 0.905823
          0.905556 0.905289 0.90502 0.904749 0.904477 0.904204 0.903929 0.903653 0.903376 0.903097 0.902816 0.902534
          0.902251 0.901966 0.901679 0.901391 0.901102 0.900811 0.900518 0.900224 0.899928 0.899631 0.899332 0.899031
          0.898729 0.898425 0.89812 0.897813 0.897504 0.897193 0.896881 0.896567 0.896252 0.895935 0.895615 0.895295
          0.894972 0.894648 0.894321 0.893993 0.893664 0.893332 0.892998 0.892663 0.892326 0.891986 0.891645 0.891302
          0.890957 0.89061 0.890261 0.88991 0.889557 0.889202 0.888845 0.888486 0.888125 0.887761 0.887396 0.887028
          0.886659 0.886287 0.885913 0.885536 0.885158 0.884777 0.884394 0.884009 0.883621 0.883231 0.882839 0.882444
          0.882047 0.881648 0.881246 0.880842 0.880435 0.880026 0.879614 0.8792 0.878783 0.878363 0.877941 0.877517
          0.877089 0.876659 0.876227 0.875791 0.875353 0.874912 0.874469 0.874022 0.873573 0.87312 0.872665 0.872207
          0.871746 0.871282 0.870815 0.870345 0.869871 0.869395 0.868916 0.868433 0.867947 0.867458 0.866966 0.86647
          0.865971 0.865469 0.864963 0.864454 0.863941 0.863425 0.862905 0.862382 0.861855 0.861325 0.860791 0.860253
          0.859711 0.859165 0.858616 0.858063 0.857505 0.856944 0.856379 0.85581 0.855236 0.854659 0.854077 0.853491
          0.852901 0.852306 0.851707 0.851103 0.850495 0.849883 0.849265 0.848643 0.848017 0.847385 0.846749 0.846108
          0.845462 0.844811 0.844155 0.843494 0.842827 0.842156 0.841478 0.840796 0.840108 0.839415 0.838716 0.838011
          0.8373 0.836584 0.835862 0.835134 0.834399 0.833659 0.832912 0.832159 0.8314 0.830634 0.829861 0.829082
          0.828296 0.827504 0.826704 0.825897 0.825083 0.824262 0.823433 0.822597 0.821753 0.820902 0.820042 0.819175
          0.818299 0.817416 0.816524 0.815623 0.814714 0.813796 0.81287 0.811934 0.810989 0.810035 0.809071 0.808097
          0.807114 0.806121 0.805117 0.804103 0.803079 0.802044 0.800998 0.79994 0.798872 0.797792 0.7967 0.795596
          0.794479 0.793351 0.792209 0.791055 0.789887 0.788706 0.787511 0.786302 0.785079 0.783841 0.782588 0.781319
          0.780035 0.778735 0.777419 0.776085 0.774735 0.773367 0.771981 0.770577 0.769153 0.767711 0.766248 0.764765
          0.763262 0.761736 0.760189 0.758619 0.757026 0.755409 0.753768 0.752101 0.750408 0.748689 0.746942 0.745166
          0.743361 0.741525 0.739658 0.737759 0.735826 0.733859 0.731856 0.729815 0.727736 0.725617 0.723456 0.721252
          0.719003 0.716708 0.714363 0.711967 0.709519 0.707014 0.704451 0.701827 0.699139 0.696383 0.693556 0.690654
          0.687673 0.684608 0.681453 0.678204 0.674854 0.671397 0.667824 0.664127 0.660296 0.656321 0.652189 0.647886
          0.643395 0.638697 0.633771 0.628589 0.623119 0.617324 0.611153 0.604548 0.597429 0.589691 0.581191 0.571721
          0.560959 0.548367 0.532887 0.5118 0.941323 0.94095 0.940844 0.940737 0.94063 0.940522 0.940414 0.940305
          0.940196 0.940087 0.939977 0.939867 0.939756 0.939645 0.939533 0.939421 0.939308 0.939195 0.939082 0.938968
          0.938854 0.938739 0.938623 0.938508 0.938391 0.938275 0.938157 0.93804 0.937922 0.937803 0.937684 0.937564
          0.937444 0.937324 0.937203 0.937081 0.936959 0.936837 0.936714 0.93659 0.936466 0.936342 0.936216 0.936091
          0.935965 0.935838 0.935711 0.935583 0.935455 0.935326 0.935197 0.935067 0.934937 0.934806 0.934675 0.934543
          0.93441 0.934277 0.934143 0.934009 0.933874 0.933739 0.933603 0.933467 0.93333 0.933192 0.933054 0.932915
          0.932776 0.932636 0.932495 0.932354 0.932212 0.93207 0.931927 0.931784 0.931639 0.931495 0.931349 0.931203
          0.931056 0.930909 0.930761 0.930613 0.930464 0.930314 0.930163 0.930012 0.92986 0.929708 0.929555 0.929401
          0.929247 0.929092 0.928936 0.928779 0.928622 0.928464 0.928306 0.928147 0.927987 0.927826 0.927665 0.927503
          0.92734 0.927177 0.927012 0.926847 0.926682 0.926515 0.926348 0.92618 0.926012 0.925843 0.925672 0.925502
          0.92533 0.925158 0.924984 0.92481 0.924636 0.92446 0.924284 0.924107 0.923929 0.92375 0.923571 0.92339
          0.923209 0.923027 0.922844 0.922661 0.922476 0.922291 0.922105 0.921918 0.92173 0.921541 0.921351 0.921161
          0.92097 0.920777 0.920584 0.92039 0.920195 0.919999 0.919802 0.919605 0.919406 0.919207 0.919006 0.918805
          0.918602 0.918399 0.918195 0.91799 0.917783 0.917576 0.917368 0.917159 0.916949 0.916738 0.916525 0.916312
          0.916098 0.915883 0.915667 0.915449 0.915231 0.915012 0.914791 0.91457 0.914347 0.914123 0.913899 0.913673
          0.913446 0.913218 0.912989 0.912758 0.912527 0.912294 0.912061 0.911826 0.91159 0.911353 0.911114 0.910875
          0.910634 0.910392 0.910149 0.909905 0.909659 0.909412 0.909164 0.908915 0.908664 0.908412 0.908159 0.907905
          0.907649 0.907392 0.907134 0.906875 0.906614 0.906351 0.906088 0.905823 0.905556 0.905289 0.90502 0.904749
          0.904477 0.904204 0.903929 0.903653 0.903376 0.903097 0.902816 0.902534 0.902251 0.901966 0.901679 0.901391
          0.901102 0.900811 0.900518 0.900224 0.899928 0.899631 0.899332 0.899031 0.898729 0.898425 0.89812 0.897813
          0.897504 0.897193 0.896881 0.896567 0.896252 0.895935 0.895615 0.895295 0.894972 0.894648 0.894321 0.893993
          0.893664 0.893332 0.892998 0.892663 0.892326 0.891986 0.891645 0.891302 0.890957 0.89061 0.890261 0.88991
          0.889557 0.889202 0.888845 0.888486 0.888125 0.887761 0.887396 0.887028 0.886659 0.886287 0.885913 0.885536
          0.885158 0.884777 0.884394 0.884009 0.883621 0.883231 0.882839 0.882444 0.882047 0.881648 0.881246 0.880842
          0.880435 0.880026 0.879614 0.8792 0.878783 0.878363 0.877941 0.877517 0.877089 0.876659 0.876227 0.875791
          0.875353 0.874912 0.874469 0.874022 0.873573 0.87312 0.872665 0.872207 0.871746 0.871282 0.870815 0.870345
          0.869871 0.869395 0.868916 0.868433 0.867947 0.867458 0.866966 0.86647 0.865971 0.865469 0.864963 0.864454
          0.863941 0.863425 0.862905 0.862382 0.861855 0.861325 0.860791 0.860253 0.859711 0.859165 0.858616 0.858063
          0.857505 0.856944 0.856379 0.85581 0.855236 0.854659 0.854077 0.853491 0.852901 0.852306 0.851707 0.851103
          0.850495 0.849883 0.849265 0.848643 0.848017 0.847385 0.846749 0.846108 0.845462 0.844811 0.844155 0.843494
          0.842827 0.842156 0.841478 0.840796 0.840108 0.839415 0.838716 0.838011 0.8373 0.836584 0.835862 0.835134
          0.834399 0.833659 0.832912 0.832159 0.8314 0.830634 0.829861 0.829082 0.828296 0.827504 0.826704 0.825897
          0.825083 0.824262 0.823433 0.822597 0.821753 0.820902 0.820042 0.819175 0.818299 0.817416 0.816524 0.815623
          0.814714 0.813796 0.81287 0.811934 0.810989 0.810035 0.809071 0.808097 0.807114 0.806121 0.805117 0.804103
          0.803079 0.802044 0.800998 0.79994 0.798872 0.797792 0.7967 0.795596 0.794479 0.793351 0.792209 0.791055
          0.789887 0.788706 0.787511 0.786302 0.785079 0.783841 0.782588 0.781319 0.780035 0.778735 0.777419 0.776085
          0.774735 0.773367 0.771981 0.770577 0.769153 0.767711 0.766248 0.764765 0.763262 0.761736 0.760189 0.758619
          0.757026 0.755409 0.753768 0.752101 0.750408 0.748689 0.746942 0.745166 0.743361 0.741525 0.739658 0.737759
          0.735826 0.733859 0.731856 0.729815 0.727736 0.725617 0.723456 0.721252 0.719003 0.716708 0.714363 0.711967
          0.709519 0.707014 0.704451 0.701827 0.699139 0.696383 0.693556 0.690654 0.687673 0.684608 0.681453 0.678204
          0.674854 0.671397 0.667824 0.664127 0.660296 0.656321 0.652189 0.647886 0.643395 0.638697 0.633771 0.628589
          0.623119 0.617324 0.611153 0.604548 0.597429 0.589691 0.581191 0.571721 0.560959 0.548367 0.532887 0.5118
          0.941323 0.94095 0.940844 0.940737 0.94063 0.940522 0.940414 0.940305 0.940196 0.940087 0.939977 0.939867
          0.939756 0.939645 0.939533 0.939421 0.939308 0.939195 0.939082 0.938968 0.938854 0.938739 0.938623 0.938508
          0.938391 0.938275 0.938157 0.93804 0.937922 0.937803 0.937684 0.937564 0.937444 0.937324 0.937203 0.937081
          0.936959 0.936837 0.936714 0.93659 0.936466 0.936342 0.936216 0.936091 0.935965 0.935838 0.935711 0.935583
          0.935455 0.935326 0.935197 0.935067 0.934937 0.934806 0.934675 0.934543 0.93441 0.934277 0.934143 0.934009
          0.933874 0.933739 0.933603 0.933467 0.93333 0.933192 0.933054 0.932915 0.932776 0.932636 0.932495 0.932354
          0.932212 0.93207 0.931927 0.931784 0.931639 0.931495 0.931349 0.931203 0.931056 0.930909 0.930761 0.930613
          0.930464 0.930314 0.930163 0.930012 0.92986 0.929708 0.929555 0.929401 0.929247 0.929092 0.928936 0.928779
          0.928622 0.928464 0.928306 0.928147 0.927987 0.927826 0.927665 0.927503 0.92734 0.927177 0.927012 0.926847
          0.926682 0.926515 0.926348 0.92618 0.926012 0.925843 0.925672 0.925502 0.92533 0.925158 0.924984 0.92481
          0.924636 0.92446 0.924284 0.924107 0.923929 0.92375 0.923571 0.92339 0.923209 0.923027 0.922844 0.922661
          0.922476 0.922291 0.922105 0.921918 0.92173 0.921541 0.921351 0.921161 0.92097 0.920777 0.920584 0.92039
          0.920195 0.919999 0.919802 0.919605 0.919406 0.919207 0.919006 0.918805 0.918602 0.918399 0.918195 0.91799
          0.917783 0.917576 0.917368 0.917159 0.916949 0.916738 0.916525 0.916312 0.916098 0.915883 0.915667 0.915449
          0.915231 0.915012 0.914791 0.91457 0.914347 0.914123 0.913899 0.913673 0.913446 0.913218 0.912989 0.912758
          0.912527 0.912294 0.912061 0.911826 0.91159 0.911353 0.911114 0.910875 0.910634 0.910392 0.910149 0.909905
          0.909659 0.909412 0.909164 0.908915 0.908664 0.908412 0.908159 0.907905 0.907649 0.907392 0.907134 0.906875
          0.906614 0.906351 0.906088 0.905823 0.905556 0.905289 0.90502 0.904749 0.904477 0.904204 0.903929 0.903653
          0.903376 0.903097 0.902816 0.902534 0.902251 0.901966 0.901679 0.901391 0.901102 0.900811 0.900518 0.900224
          0.899928 0.899631 0.899332 0.899031 0.898729 0.898425 0.89812 0.897813 0.897504 0.897193 0.896881 0.896567
          0.896252 0.895935 0.895615 0.895295 0.894972 0.894648 0.894321 0.893993 0.893664 0.893332 0.892998 0.892663
          0.892326 0.891986 0.891645 0.891302 0.890957 0.89061 0.890261 0.88991 0.889557 0.889202 0.888845 0.888486
          0.888125 0.887761 0.887396 0.887028 0.886659 0.886287 0.885913 0.885536 0.885158 0.884777 0.884394 0.884009
          0.883621 0.883231 0.882839 0.882444 0.882047 0.881648 0.881246 0.880842 0.880435 0.880026 0.879614 0.8792
          0.878783 0.878363 0.877941 0.877517 0.877089 0.876659 0.876227 0.875791 0.875353 0.874912 0.874469 0.874022
          0.873573 0.87312 0.872665 0.872207 0.871746 0.871282 0.870815 0.870345 0.869871 0.869395 0.868916 0.868433
          0.867947 0.867458 0.866966 0.86647 0.865971 0.865469 0.864963 0.864454 0.863941 0.863425 0.862905 0.862382
          0.861855 0.861325 0.860791 0.860253 0.859711 0.859165 0.858616 0.858063 0.857505 0.856944 0.856379 0.85581
          0.855236 0.854659 0.854077 0.853491 0.852901 0.852306 0.851707 0.851103 0.850495 0.849883 0.849265 0.848643
          0.848017 0.847385 0.846749 0.846108 0.845462 0.844811 0.844155 0.843494 0.842827 0.842156 0.841478 0.840796
          0.840108 0.839415 0.838716 0.838011 0.8373 0.836584 0.835862 0.835134 0.834399 0.833659 0.832912 0.832159
          0.8314 0.830634 0.829861 0.829082 0.828296 0.827504 0.826704 0.825897 0.825083 0.824262 0.823433 0.822597
          0.821753 0.820902 0.820042 0.819175 0.818299 0.817416 0.816524 0.815623 0.814714 0.813796 0.81287 0.811934
          0.810989 0.810035 0.809071 0.808097 0.807114 0.806121 0.805117 0.804103 0.803079 0.802044 0.800998 0.79994
          0.798872 0.797792 0.7967 0.795596 0.794479 0.793351 0.792209 0.791055 0.789887 0.788706 0.787511 0.786302
          0.785079 0.783841 0.782588 0.781319 0.780035 0.778735 0.777419 0.776085 0.774735 0.773367 0.771981 0.770577
          0.769153 0.767711 0.766248 0.764765 0.763262 0.761736 0.760189 0.758619 0.757026 0.755409 0.753768 0.752101
          0.750408 0.748689 0.746942 0.745166 0.743361 0.741525 0.739658 0.737759 0.735826 0.733859 0.731856 0.729815
          0.727736 0.725617 0.723456 0.721252 0.719003 0.716708 0.714363 0.711967 0.709519 0.707014 0.704451 0.701827
          0.699139 0.696383 0.693556 0.690654 0.687673 0.684608 0.681453 0.678204 0.674854 0.671397 0.667824 0.664127
          0.660296 0.656321 0.652189 0.647886 0.643395 0.638697 0.633771 0.628589 0.623119 0.617324 0.611153 0.604548
          0.597429 0.589691 0.581191 0.571721 0.560959 0.548367 0.532887 0.5118 0.941323 0.94095 0.940844 0.940737
          0.94063 0.940522 0.940414 0.940305 0.940196 0.940087 0.939977 0.939867 0.939756 0.939645 0.939533 0.939421
          0.939308 0.939195 0.939082 0.938968 0.938854 0.938739 0.938623 0.938508 0.938391 0.938275 0.938157 0.93804
          0.937922 0.937803 0.937684 0.937564 0.937444 0.937324 0.937203 0.937081 0.936959 0.936837 0.936714 0.93659
          0.936466 0.936342 0.936216 0.936091 0.935965 0.935838 0.935711 0.935583 0.935455 0.935326 0.935197 0.935067
          0.934937 0.934806 0.934675 0.934543 0.93441 0.934277 0.934143 0.934009 0.933874 0.933739 0.933603 0.933467
          0.93333 0.933192 0.933054 0.932915 0.932776 0.932636 0.932495 0.932354 0.932212 0.93207 0.931927 0.931784
          0.931639 0.931495 0.931349 0.931203 0.931056 0.930909 0.930761 0.930613 0.930464 0.930314 0.930163 0.930012
          0.92986 0.929708 0.929555 0.929401 0.929247 0.929092 0.928936 0.928779 0.928622 0.928464 0.928306 0.928147
          0.927987 0.927826 0.927665 0.927503 0.92734 0.927177 0.927012 0.926847 0.926682 0.926515 0.926348 0.92618
          0.926012 0.925843 0.925672 0.925502 0.92533 0.925158 0.924984 0.92481 0.924636 0.92446 0.924284 0.924107
          0.923929 0.92375 0.923571 0.92339 0.923209 0.923027 0.922844 0.922661 0.922476 0.922291 0.922105 0.921918
          0.92173 0.921541 0.921351 0.921161 0.92097 0.920777 0.920584 0.92039 0.920195 0.919999 0.919802 0.919605
          0.919406 0.919207 0.919006 0.918805 0.918602 0.918399 0.918195 0.91799 0.917783 0.917576 0.917368 0.917159
          0.916949 0.916738 0.916525 0.916312 0.916098 0.915883 0.915667 0.915449 0.915231 0.915012 0.914791 0.91457
          0.914347 0.914123 0.913899 0.913673 0.913446 0.913218 0.912989 0.912758 0.912527 0.912294 0.912061 0.911826
          0.91159 0.911353 0.911114 0.910875 0.910634 0.910392 0.910149 0.909905 0.909659 0.909412 0.909164 0.908915
          0.908664 0.908412 0.908159 0.907905 0.907649 0.907392 0.907134 0.906875 0.906614 0.906351 0.906088 0.905823
          0.905556 0.905289 0.90502 0.904749 0.904477 0.904204 0.903929 0.903653 0.903376 0.903097 0.902816 0.902534
          0.902251 0.901966 0.901679 0.901391 0.901102 0.900811 0.900518 0.900224 0.899928 0.899631 0.899332 0.899031
          0.898729 0.898425 0.89812 0.897813 0.897504 0.897193 0.896881 0.896567 0.896252 0.895935 0.895615 0.895295
          0.894972 0.894648 0.894321 0.893993 0.893664 0.893332 0.892998 0.892663 0.892326 0.891986 0.891645 0.891302
          0.890957 0.89061 0.890261 0.88991 0.889557 0.889202 0.888845 0.888486 0.888125 0.887761 0.887396 0.887028
          0.886659 0.886287 0.885913 0.885536 0.885158 0.884777 0.884394 0.884009 0.883621 0.883231 0.882839 0.882444
          0.882047 0.881648 0.881246 0.880842 0.880435 0.880026 0.879614 0.8792 0.878783 0.878363 0.877941 0.877517
          0.877089 0.876659 0.876227 0.875791 0.875353 0.874912 0.874469 0.874022 0.873573 0.87312 0.872665 0.872207
          0.871746 0.871282 0.870815 0.870345 0.869871 0.869395 0.868916 0.868433 0.867947 0.867458 0.866966 0.86647
          0.865971 0.865469 0.864963 0.864454 0.863941 0.863425 0.862905 0.862382 0.861855 0.861325 0.860791 0.860253
          0.859711 0.859165 0.858616 0.858063 0.857505 0.856944 0.856379 0.85581 0.855236 0.854659 0.854077 0.853491
          0.852901 0.852306 0.851707 0.851103 0.850495 0.849883 0.849265 0.848643 0.848017 0.847385 0.846749 0.846108
          0.845462 0.844811 0.844155 0.843494 0.842827 0.842156 0.841478 0.840796 0.840108 0.839415 0.838716 0.838011
          0.8373 0.836584 0.835862 0.835134 0.834399 0.833659 0.832912 0.832159 0.8314 0.830634 0.829861 0.829082
          0.828296 0.827504 0.826704 0.825897 0.825083 0.824262 0.823433 0.822597 0.821753 0.820902 0.820042 0.819175
          0.818299 0.817416 0.816524 0.815623 0.814714 0.813796 0.81287 0.811934 0.810989 0.810035 0.809071 0.808097
          0.807114 0.806121 0.805117 0.804103 0.803079 0.802044 0.800998 0.79994 0.798872 0.797792 0.7967 0.795596
          0.794479 0.793351 0.792209 0.791055 0.789887 0.788706 0.787511 0.786302 0.785079 0.783841 0.782588 0.781319
          0.780035 0.778735 0.777419 0.776085 0.774735 0.773367 0.771981 0.770577 0.769153 0.767711 0.766248 0.764765
          0.763262 0.761736 0.760189 0.758619 0.757026 0.755409 0.753768 0.752101 0.750408 0.748689 0.746942 0.745166
          0.743361 0.741525 0.739658 0.737759 0.735826 0.733859 0.731856 0.729815 0.727736 0.725617 0.723456 0.721252
          0.719003 0.716708 0.714363 0.711967 0.709519 0.707014 0.704451 0.701827 0.699139 0.696383 0.693556 0.690654
          0.687673 0.684608 0.681453 0.678204 0.674854 0.671397 0.667824 0.664127 0.660296 0.656321 0.652189 0.647886
          0.643395 0.638697 0.633771 0.628589 0.623119 0.617324 0.611153 0.604548 0.597429 0.589691 0.581191 0.571721
          0.560959 0.548367 0.532887 0.5118
        </DataArray>
        <DataArray type="Float32" Name="velocityX" NumberOfComponents="1" format="ascii">
          1.06056 1.06151 1.0616 1.06169 1.06178 1.06187 1.06196 1.06206 1.06215 1.06224 1.06234 1.06243
          1.06253 1.06262 1.06272 1.06281 1.06291 1.06301 1.0631 1.0632 1.0633 1.0634 1.0635 1.0636
          1.0637 1.0638 1.0639 1.064 1.0641 1.0642 1.06431 1.06441 1.06451 1.06462 1.06472 1.06483
          1.06494 1.06504 1.06515 1.06526 1.06536 1.06547 1.06558 1.06569 1.0658 1.06591 1.06602 1.06613
          1.06625 1.06636 1.06647 1.06659 1.0667 1.06681 1.06693 1.06705 1.06716 1.06728 1.0674 1.06752
          1.06764 1.06775 1.06787 1.068 1.06812 1.06824 1.06836 1.06848 1.06861 1.06873 1.06886 1.06898
          1.06911 1.06924 1.06936 1.06949 1.06962 1.06975 1.06988 1.07001 1.07014 1.07027 1.07041 1.07054
          1.07067 1.07081 1.07095 1.07108 1.07122 1.07136 1.07149 1.07163 1.07177 1.07191 1.07206 1.0722
          1.07234 1.07248 1.07263 1.07277 1.07292 1.07307 1.07321 1.07336 1.07351 1.07366 1.07381 1.07396
          1.07411 1.07427 1.07442 1.07457 1.07473 1.07489 1.07504 1.0752 1.07536 1.07552 1.07568 1.07584
          1.076 1.07617 1.07633 1.0765 1.07666 1.07683 1.077 1.07716 1.07733 1.0775 1.07768 1.07785
          1.07802 1.0782 1.07837 1.07855 1.07872 1.0789 1.07908 1.07926 1.07944 1.07963 1.07981 1.07999
          1.08018 1.08037 1.08055 1.08074 1.08093 1.08112 1.08131 1.08151 1.0817 1.0819 1.08209 1.08229
          1.08249 1.08269 1.08289 1.08309 1.08329 1.0835 1.0837 1.08391 1.08412 1.08433 1.08454 1.08475
          1.08496 1.08518 1.08539 1.08561 1.08583 1.08605 1.08627 1.08649 1.08671 1.08694 1.08716 1.08739
          1.08762 1.08785 1.08808 1.08832 1.08855 1.08879 1.08902 1.08926 1.0895 1.08974 1.08999 1.09023
          1.09048 1.09073 1.09097 1.09123 1.09148 1.09173 1.09199 1.09224 1.0925 1.09276 1.09303 1.09329
          1.09355 1.09382 1.09409 1.09436 1.09463 1.09491 1.09518 1.09546 1.09574 1.09602 1.0963 1.09659
          1.09687 1.09716 1.09745 1.09774 1.09804 1.09833 1.09863 1.09893 1.09923 1.09954 1.09984 1.10015
          1.10046 1.10077 1.10108 1.1014 1.10172 1.10204 1.10236 1.10269 1.10301 1.10334 1.10367 1.10401
          1.10434 1.10468 1.10502 1.10536 1.10571 1.10606 1.10641 1.10676 1.10711 1.10747 1.10783 1.10819
          1.10856 1.10892 1.10929 1.10967 1.11004 1.11042 1.1108 1.11118 1.11157 1.11196 1.11235 1.11274
          1.11314 1.11354 1.11394 1.11435 1.11476 1.11517 1.11558 1.116 1.11642 1.11685 1.11727 1.1177
          1.11814 1.11857 1.11901 1.11946 1.1199 1.12035 1.12081 1.12126 1.12172 1.12219 1.12266 1.12313
          1.1236 1.12408 1.12456 1.12505 1.12554 1.12603 1.12653 1.12703 1.12753 1.12804 1.12856 1.12907
          1.1296 1.13012 1.13065 1.13118 1.13172 1.13227 1.13281 1.13337 1.13392 1.13448 1.13505 1.13562
          1.13619 1.13677 1.13736 1.13795 1.13854 1.13914 1.13975 1.14035 1.14097 1.14159 1.14222 1.14285
          1.14348 1.14413 1.14477 1.14543 1.14609 1.14675 1.14742 1.1481 1.14878 1.14947 1.15016 1.15087
          1.15157 1.15229 1.15301 1.15374 1.15447 1.15521 1.15596 1.15672 1.15748 1.15825 1.15902 1.15981
          1.1606 1.1614 1.16221 1.16302 1.16384 1.16467 1.16551 1.16636 1.16722 1.16808 1.16895 1.16984
          1.17073 1.17163 1.17254 1.17345 1.17438 1.17532 1.17627 1.17723 1.17819 1.17917 1.18016 1.18116
          1.18217 1.18319 1.18422 1.18526 1.18632 1.18739 1.18846 1.18956 1.19066 1.19177 1.1929 1.19404
          1.1952 1.19637 1.19755 1.19875 1.19996 1.20118 1.20242 1.20368 1.20495 1.20623 1.20753 1.20885
          1.21019 1.21154 1.21291 1.21429 1.2157 1.21712 1.21856 1.22002 1.2215 1.223 1.22453 1.22607
          1.22763 1.22922 1.23082 1.23245 1.23411 1.23578 1.23748 1.23921 1.24096 1.24274 1.24455 1.24638
          1.24824 1.25013 1.25205 1.254 1.25598 1.258 1.26004 1.26212 1.26424 1.26639 1.26858 1.27081
          1.27307 1.27538 1.27772 1.28011 1.28255 1.28502 1.28755 1.29012 1.29275 1.29542 1.29815 1.30093
          1.30377 1.30667 1.30963 1.31266 1.31575 1.31891 1.32214 1.32544 1.32882 1.33228 1.33582 1.33945
          1.34317 1.34698 1.3509 1.35491 1.35904 1.36328 1.36763 1.37212 1.37673 1.38149 1.38639 1.39144
          1.39666 1.40206 1.40764 1.41341 1.41939 1.4256 1.43205 1.43876 1.44574 1.45302 1.46062 1.46857
          1.4769 1.48566 1.49487 1.50458 1.51486 1.52576 1.53737 1.54977 1.56308 1.57745 1.59303 1.61005
          1.62882 1.64971 1.67328 1.70035 1.73217 1.77093 1.82094 1.89355 1.06056 1.06151 1.0616 1.06169
          1.06178 1.06187 1.06196 1.06206 1.06215 1.06224 1.06234 1.06243 1.06253 1.06262 1.06272 1.06281
          1.06291 1.06301 1.0631 1.0632 1.0633 1.0634 1.0635 1.0636 1.0637 1.0638 1.0639 1.064
          1.0641 1.0642 1.06431 1.06441 1.06451 1.06462 1.06472 1.06483 1.06494 1.06504 1.06515 1.06526
          1.06536 1.06547 1.06558 1.06569 1.0658 1.06591 1.06602 1.06613 1.06625 1.06636 1.06647 1.06659
          1.0667 1.06681 1.06693 1.06705 1.06716 1.06728 1.0674 1.06752 1.06764 1.06775 1.06787 1.068
          1.06812 1.06824 1.06836 1.06848 1.06861 1.06873 1.06886 1.06898 1.06911 1.06924 1.06936 1.06949
          1.06962 1.06975 1.06988 1.07001 1.07014 1.07027 1.07041 1.07054 1.07067 1.07081 1.07095 1.07108