<?xml version="1.0"?>
<VTKFile type="UnstructuredGrid" version="0.1" byte_order="LittleEndian">
  <UnstructuredGrid>
    <Piece NumberOfCells="120" NumberOfPoints="144">
      <CellData Scalars="S_aq">
        <DataArray type="Float32" Name="S_aq" NumberOfComponents="1" format="ascii">
          0.299027 0.269144 0.197943 0.131119 0.120225 0.120019 0.120001 0.12 0.12 0.12 0.12 0.12
          0.12 0.12 0.12 0.1934 0.18475 0.157541 0.124158 0.120271 0.120023 0.120002 0.12 0.12
          0.12 0.12 0.12 0.12 0.12 0.12 0.187496 0.171496 0.156965 0.125383 0.120356 0.120029
          0.120002 0.12 0.119999 0.119999 0.119999 0.119999 0.119997 0.119999 0.119999 0.184388 0.143586 0.120483
          0.120006 0.120001 0.12 0.12 0.12 0.12 0.12 0.12 0.12 0.119999 0.12 0.12
          0.180883 0.138987 0.120062 0.120001 0.12 0.12 0.12 0.12 0.120001 0.12 0.12 0.12
          0.12 0.12 0.12 0.176575 0.145077 0.123698 0.120015 0.120001 0.12 0.12 0.12 0.120001
          0.120001 0.12 0.120001 0.120001 0.120001 0.12 0.170808 0.191398 0.184916 0.133209 0.120565 0.12005
          0.120004 0.12 0.119999 0.12 0.12 0.12 0.12 0.12 0.12 0.160029 0.169015 0.156843
          0.126919 0.120596 0.120057 0.120005 0.12 0.12 0.119999 0.12 0.12 0.12 0.12 0.12
        </DataArray>
        <DataArray type="Float32" Name="p_aq" NumberOfComponents="1" format="ascii">
          99776.7 99740.2 99638.5 99218.6 98841.9 98829.8 98824.4 98819.6 98814.9 98810.4 98806.4 98803.7
          87654 87639.6 87628.1 99653.1 99619.4 99511.8 98984.4 98842.5 98828.9 98823.3 98818.5 98813.7
          98808.9 98804.3 98800.4 87648.5 87636.1 87627 99643.8 99581.4 99508.2 99026.6 98844.4 98828
          98822.2 98817.3 98812.4 98807.3 98801.5 98793.9 98780 98772.1 98765.6 99646.4 93426.4 87875.2
          87698.8 87690.8 87685.1 87679.9 87674.7 87669.3 87663.5 87656.4 87645.4 98773.8 98769.8 98764.9
          99639.8 92923.7 83123.2 83086.8 83079.3 83073.3 83067.7 83062.9 87664.1 87657.7 87650 87639.3
          98771 98768.2 98764.3 99622.6 93559.6 84475.2 83086.9 83074 83067.4 83061.3 83055.6 87659.3
          87653.2 87646.3 87637.7 98770.4 98767.6 98764.1 99591.6 99630.6 99286.8 98829.9 98381.9 98355.5
          98347.7 98341.6 98796.1 98790.2 98784.3 98778.2 98772 98767.7 98764 99542.9 99565.5 99499
          99070 98840.7 98815.6 98807.6 98801.3 98795.1 98789.2 98783.2 98777.4 98771.8 98767.3 98763.6
        </DataArray>
        <DataArray type="Float32" Name="rho_aq" NumberOfComponents="1" format="ascii">
          975.153 981.37 993.286 997.652 998.177 998.225 998.229 998.229 998.229 998.229 998.229 998.229
          998.224 998.224 998.224 975.056 979.553 992.149 997.529 998.166 998.224 998.229 998.229 998.229
          998.229 998.229 998.229 998.224 998.224 998.224 975.191 978.393 990.627 997.325 998.15 998.223
          998.23 998.23 998.23 998.23 998.23 998.23 998.23 998.23 998.23 975.418 995.788 997.984
          998.212 998.237 998.239 998.238 998.237 998.234 998.231 998.229 998.227 998.23 998.23 998.231
          975.433 996.466 998.175 998.256 998.261 998.261 998.261 998.261 998.248 998.241 998.237 998.235
          998.237 998.239 998.242 975.404 995.727 997.952 998.223 998.257 998.261 998.261 998.261 998.256
          998.251 998.249 998.25 998.261 998.26 998.258 975.171 977.904 989.645 996.975 998.142 998.256
          998.267 998.268 998.267 998.266 998.266 998.264 998.262 998.259 998.255 974.98 978.271 989.662
          996.977 998.117 998.233 998.245 998.246 998.246 998.246 998.246 998.246 998.246 998.246 998.245
        </DataArray>
        <DataArray type="Float32" Name="x^H2O_aq" NumberOfComponents="1" format="ascii">
          0.999994 0.999992 0.999989 0.999986 0.999985 0.999985 0.999985 0.999985 0.999985 0.999985 0.999985 0.999985
          0.999985 0.999985 0.999985 0.999994 0.999993 0.999989 0.999986 0.999985 0.999985 0.999985 0.999985 0.999985
          0.999985 0.999985 0.999985 0.999985 0.999985 0.999985 0.999994 0.999993 0.99999 0.999986 0.999985 0.999985
          0.999985 0.999985 0.999985 0.999985 0.999985 0.999985 0.999985 0.999985 0.999985 0.999994 0.999987 0.999984
          0.999983 0.999983 0.999983 0.999983 0.999983 0.999984 0.999984 0.999984 0.999985 0.999985 0.999985 0.999985
          0.999994 0.999986 0.999978 0.999978 0.999978 0.999978 0.999978 0.999978 0.999981 0.999982 0.999983 0.999983
          0.999984 0.999984 0.999983 0.999994 0.999987 0.999978 0.999978 0.999978 0.999978 0.999978 0.999978 0.99998
          0.999981 0.999981 0.999981 0.99998 0.99998 0.99998 0.999994 0.999993 0.999954 0.999977 0.999978 0.999978
          0.999978 0.999978 0.999979 0.999979 0.999979 0.999979 0.999979 0.99998 0.999981 0.999994 0.999993 0.999988
          0.999984 0.999982 0.999982 0.999982 0.999982 0.999982 0.999982 0.999982 0.999982 0.999982 0.999982 0.999983
        </DataArray>
        <DataArray type="Float32" Name="x^mesitylene_aq" NumberOfComponents="1" format="ascii">
          1.02725e-10 3.2676e-10 6.54762e-10 8.45528e-10 9.32273e-10 9.76882e-10 1.0265e-09 1.08182e-09 1.14213e-09 1.20467e-09 1.26452e-09 1.34709e-09
          3.78422e-09 7.17013e-09 8.2013e-09 6.9862e-10 1.62862e-09 4.0001e-09 5.34712e-09 6.11184e-09 6.75339e-09 7.4779e-09 8.22142e-09 8.79495e-09
          8.81251e-09 7.7275e-09 5.48552e-09 1.1904e-08 1.85509e-08 2.06828e-08 1.87166e-09 6.27942e-09 3.11242e-08 5.61505e-08 7.61519e-08 9.48947e-08
          1.11748e-07 1.25369e-07 1.30671e-07 1.22969e-07 9.65408e-08 5.64097e-08 5.59662e-08 5.57627e-08 7.02579e-08 3.22039e-09 4.20021e-07 1.89308e-06
          2.52577e-06 2.68673e-06 2.61034e-06 2.4826e-06 2.28584e-06 1.71816e-06 1.20038e-06 8.12918e-07 5.07534e-07 7.66013e-08 8.31741e-08 3.45374e-07
          5.32855e-09 9.62288e-07 7.11169e-06 6.91352e-06 6.90279e-06 6.90203e-06 6.90184e-06 6.90174e-06 4.27272e-06 3.00468e-06 2.30747e-06 1.94108e-06
          1.24184e-06 1.67381e-06 2.33704e-06 5.38867e-09 9.81325e-07 7.66471e-06 6.99471e-06 6.91171e-06 6.90333e-06 6.90256e-06 6.90245e-06 5.66527e-06
          4.7885e-06 4.35243e-06 4.64345e-06 5.72627e-06 5.53696e-06 5.22729e-06 3.41523e-09 1.01953e-07 3.62003e-05 1.00734e-05 7.2103e-06 6.93155e-06
          6.90493e-06 6.90197e-06 6.769e-06 6.69475e-06 6.60408e-06 6.39934e-06 5.84215e-06 5.31718e-06 4.72706e-06 1.32272e-09 2.25293e-08 2.74789e-06
          2.95773e-06 2.96443e-06 2.94784e-06 2.9298e-06 2.91243e-06 2.89845e-06 2.88462e-06 2.87101e-06 2.8568e-06 2.83903e-06 2.81361e-06 2.73253e-06
        </DataArray>
        <DataArray type="Float32" Name="x^Air_aq" NumberOfComponents="1" format="ascii">
          5.91578e-06 7.54666e-06 1.10783e-05 1.40284e-05 1.46727e-05 1.47392e-05 1.47445e-05 1.47443e-05 1.47436e-05 1.4743e-05 1.47423e-05 1.47419e-05
          1.47404e-05 1.47382e-05 1.47364e-05 5.88758e-06 7.08542e-06 1.06086e-05 1.38955e-05 1.46572e-05 1.47377e-05 1.47443e-05 1.47441e-05 1.47434e-05
          1.47427e-05 1.4742e-05 1.47414e-05 1.47395e-05 1.47376e-05 1.47362e-05 5.92702e-06 6.78257e-06 1.00634e-05 1.36807e-05 1.46339e-05 1.47356e-05
          1.47438e-05 1.47437e-05 1.47428e-05 1.4742e-05 1.47413e-05 1.47404e-05 1.47385e-05 1.47371e-05 1.4736e-05 5.99137e-06 1.24318e-05 1.43913e-05
          1.46961e-05 1.47294e-05 1.47321e-05 1.47322e-05 1.47324e-05 1.47343e-05 1.4736e-05 1.47368e-05 1.47367e-05 1.47374e-05 1.47367e-05 1.47345e-05
          5.99557e-06 1.29195e-05 1.45898e-05 1.47055e-05 1.47109e-05 1.47104e-05 1.47097e-05 1.47089e-05 1.47206e-05 1.47261e-05 1.47284e-05 1.47287e-05
          1.47312e-05 1.47284e-05 1.47238e-05 5.98742e-06 1.23859e-05 1.42857e-05 1.46563e-05 1.47049e-05 1.4709e-05 1.47086e-05 1.47077e-05 1.47129e-05
          1.47164e-05 1.47176e-05 1.47146e-05 1.47073e-05 1.47079e-05 1.47082e-05 5.92098e-06 6.65473e-06 9.5551e-06 1.32508e-05 1.45297e-05 1.46916e-05
          1.47067e-05 1.47076e-05 1.47063e-05 1.47052e-05 1.47046e-05 1.47048e-05 1.47071e-05 1.47093e-05 1.47111e-05 5.86532e-06 6.75018e-06 9.73781e-06
          1.33193e-05 1.45485e-05 1.4711e-05 1.4727e-05 1.47279e-05 1.47272e-05 1.47263e-05 1.47254e-05 1.47246e-05 1.47237e-05 1.4723e-05 1.47223e-05
        </DataArray>
        <DataArray type="Float32" Name="S_napl" NumberOfComponents="1" format="ascii">
          0 0 0 0 0 0 0 0 0 0 0 0
          0 0 0 0 0 0 0 0 0 0 0 0
          0 0 0 0 0 0 0 0 0 0 0 0
          0 0 0 0 0 0 0 0 0 0 0 0
          0 0 0 0 0 0 0 0 0 0 0 0
          0 0 0.0698883 0.0699683 0.069961 0.0699563 0.0699517 0.0699289 0 0 0 0
          0 0 0 0 0 0.0700174 0.070017 0.0700016 0.0700001 0.07 0.0699898 0
          0 0 0 0 0 0 0 0 0.0582423 0.0751802 0.0704561 0.0700094
          0.0699677 0.0699372 0 0 0 0 0 0 0 0 0 0
          0 0 0 0 0 0 0 0 0 0 0 0
        </DataArray>
        <DataArray type="Float32" Name="p_napl" NumberOfComponents="1" format="ascii">
          99776.7 99740.2 99638.5 99218.6 98841.9 98829.8 98824.4 98819.6 98814.9 98810.4 98806.4 98803.7
          87654 87639.6 87628.1 99653.1 99619.4 99511.8 98984.4 98842.5 98828.9 98823.3 98818.5 98813.7
          98808.9 98804.3 98800.4 87648.5 87636.1 87627 99643.8 99581.4 99508.2 99026.6 98844.4 98828
          98822.2 98817.3 98812.4 98807.3 98801.5 98793.9 98780 98772.1 98765.6 99646.4 93426.4 87875.2
          87698.8 87690.8 87685.1 87679.9 87674.7 87669.3 87663.5 87656.4 87645.4 98773.8 98769.8 98764.9
          99639.8 92923.7 95459 95458.3 95450 95443.1 95436.8 95427.9 87664.1 87657.7 87650 87639.3
          98771 98768.2 98764.3 99622.6 93559.6 95550.3 95459.3 95451.3 95444.9 95438.8 95431.4 87659.3
          87653.2 87646.3 87637.7 98770.4 98767.6 98764.1 99591.6 99630.6 99680.5 99639.9 99599.8 99591.5
          99584.8 99578.2 98796.1 98790.2 98784.3 98778.2 98772 98767.7 98764 99542.9 99565.5 99499
          99070 98840.7 98815.6 98807.6 98801.3 98795.1 98789.2 98783.2 98777.4 98771.8 98767.3 98763.6
        </DataArray>
        <DataArray type="Float32" Name="rho_napl" NumberOfComponents="1" format="ascii">
          823.972 833.626 856.253 868.481 870.458 870.654 870.671 870.673 870.673 870.673 870.673 870.673
          870.673 870.673 870.673 823.828 830.713 853.665 868.051 870.413 870.65 870.671 870.673 870.673
          870.673 870.673 870.673 870.673 870.673 870.673 824.027 828.903 850.416 867.333 870.346 870.646
          870.672 870.674 870.674 870.674 870.673 870.674 870.674 870.674 870.673 824.365 862.631 869.637
          870.562 870.664 870.673 870.674 870.674 870.673 870.673 870.673 870.673 870.674 870.674 870.673
          824.388 864.591 870.313 870.654 870.672 870.674 870.674 870.674 870.673 870.673 870.673 870.674
          870.674 870.674 870.671 824.344 862.451 869.402 870.513 870.657 870.672 870.673 870.673 870.673
          870.673 870.673 870.672 870.67 870.67 870.668 823.998 828.141 848.014 865.993 870.146 870.622
          870.669 870.674 870.671 870.669 870.669 870.669 870.67 870.671 870.669 823.718 828.714 848.413
          866.123 870.14 870.622 870.671 870.675 870.676 870.676 870.676 870.675 870.675 870.675 870.673
        </DataArray>
        <DataArray type="Float32" Name="x^H2O_napl" NumberOfComponents="1" format="ascii">
          1e-10 1e-10 1e-10 1e-10 1e-10 1e-10 1e-10 1e-10 1e-10 1e-10 1e-10 1e-10
          1e-10 1e-10 1e-10 1e-10 1e-10 1e-10 1e-10 1e-10 1e-10 1e-10 1e-10 1e-10
          1e-10 1e-10 1e-10 1e-10 1e-10 1e-10 1e-10 1e-10 1e-10 1e-10 1e-10 1e-10
          1e-10 1e-10 1e-10 1e-10 1e-10 1e-10 1e-10 1e-10 1e-10 1e-10 1e-10 1e-10
          1e-10 1e-10 1e-10 1e-10 1e-10 1e-10 1e-10 1e-10 1e-10 1e-10 1e-10 1e-10
          1e-10 1e-10 1e-10 1e-10 1e-10 1e-10 1e-10 1e-10 1e-10 1e-10 1e-10 1e-10
          1e-10 1e-10 1e-10 1e-10 1e-10 1e-10 1e-10 1e-10 1e-10 1e-10 1e-10 1e-10
          1e-10 1e-10 1e-10 1e-10 1e-10 1e-10 1e-10 1e-10 1e-10 1e-10 1e-10 1e-10
          1e-10 1e-10 1e-10 1e-10 1e-10 1e-10 1e-10 1e-10 1e-10 1e-10 1e-10 1e-10
          1e-10 1e-10 1e-10 1e-10 1e-10 1e-10 1e-10 1e-10 1e-10 1e-10 1e-10 1e-10
        </DataArray>
        <DataArray type="Float32" Name="x^mesitylene_napl" NumberOfComponents="1" format="ascii">
          7.19202e-07 3.8168e-06 3.14971e-05 0.000102353 0.000132676 0.000141302 0.000148696 0.000156728 0.000165468 0.000174528 0.000183198 0.00019516
          0.000548234 0.00103876 0.00118815 4.85581e-06 1.62182e-05 0.000160791 0.000625179 0.000866567 0.000976554 0.00108321 0.00119108 0.00127419
          0.00127673 0.00111953 0.000794723 0.00172459 0.00268756 0.0029964 1.31404e-05 5.67592e-05 0.00100561 0.00619821 0.0107373 0.0137171
          0.016188 0.0181642 0.0189321 0.0178159 0.0139868 0.00817278 0.00810883 0.00807908 0.0101789 2.30009e-05 0.0321759 0.251793
          0.362566 0.388945 0.378174 0.359692 0.331186 0.248929 0.173909 0.117774 0.0735312 0.0110986 0.0120508 0.0500378
          3.81012e-05 0.0856373 1 1 1 1 1 1 0.619006 0.435311 0.334305 0.281226
          0.179931 0.242507 0.338534 3.84461e-05 0.0741588 1 1 1 1 1 1 0.820745
          0.69374 0.630572 0.672693 0.829395 0.801992 0.756997 2.39428e-05 0.000885186 1 1 1 1
          1 1 0.980486 0.969613 0.956445 0.926811 0.846199 0.770196 0.684627 9.14246e-06 0.000201612 0.0778895
          0.296629 0.410936 0.425248 0.424371 0.422025 0.420014 0.418005 0.416029 0.413964 0.411379 0.40768 0.395883
        </DataArray>
        <DataArray type="Float32" Name="x^Air_napl" NumberOfComponents="1" format="ascii">
          1e-10 1e-10 1e-10 1e-10 1e-10 1e-10 1e-10 1e-10 1e-10 1e-10 1e-10 1e-10
          1e-10 1e-10 1e-10 1e-10 1e-10 1e-10 1e-10 1e-10 1e-10 1e-10 1e-10 1e-10
          1e-10 1e-10 1e-10 1e-10 1e-10 1e-10 1e-10 1e-10 1e-10 1e-10 1e-10 1e-10
          1e-10 1e-10 1e-10 1e-10 1e-10 1e-10 1e-10 1e-10 1e-10 1e-10 1e-10 1e-10
          1e-10 1e-10 1e-10 1e-10 1e-10 1e-10 1e-10 1e-10 1e-10 1e-10 1e-10 1e-10
          1e-10 1e-10 1e-10 1e-10 1e-10 1e-10 1e-10 1e-10 1e-10 1e-10 1e-10 1e-10
          1e-10 1e-10 1e-10 1e-10 1e-10 1e-10 1e-10 1e-10 1e-10 1e-10 1e-10 1e-10
          1e-10 1e-10 1e-10 1e-10 1e-10 1e-10 1e-10 1e-10 1e-10 1e-10 1e-10 1e-10
          1e-10 1e-10 1e-10 1e-10 1e-10 1e-10 1e-10 1e-10 1e-10 1e-10 1e-10 1e-10
          1e-10 1e-10 1e-10 1e-10 1e-10 1e-10 1e-10 1e-10 1e-10 1e-10 1e-10 1e-10
        </DataArray>
        <DataArray type="Float32" Name="S_gas" NumberOfComponents="1" format="ascii">
          0.700973 0.730856 0.802057 0.868881 0.879775 0.879981 0.879999 0.88 0.88 0.88 0.88 0.88
          0.88 0.88 0.88 0.8066 0.81525 0.842459 0.875842 0.879729 0.879977 0.879999 0.88 0.88
          0.88 0.88 0.88 0.88 0.88 0.88 0.812504 0.828504 0.843035 0.874617 0.879644 0.879971
          0.879998 0.88 0.880001 0.880001 0.880001 0.880001 0.880003 0.880001 0.880001 0.815612 0.856414 0.879517
          0.879994 0.879999 0.88 0.88 0.88 0.88 0.88 0.88 0.88 0.880001 0.88 0.88
          0.819117 0.861013 0.810049 0.81003 0.810039 0.810044 0.810048 0.810071 0.88 0.88 0.88 0.88
          0.88 0.88 0.88 0.823425 0.854923 0.806284 0.809968 0.809998 0.81 0.81 0.81001 0.879999
          0.879999 0.88 0.879999 0.879999 0.879999 0.88 0.829192 0.808602 0.756841 0.791611 0.808979 0.80994
          0.810028 0.810063 0.880001 0.88 0.88 0.88 0.88 0.88 0.88 0.839971 0.830985 0.843157
          0.873081 0.879404 0.879943 0.879995 0.88 0.88 0.880001 0.88 0.88 0.88 0.88 0.88
        </DataArray>
        <DataArray type="Float32" Name="p_gas" NumberOfComponents="1" format="ascii">
          100106 100093 100083 100077 100072 100067 100062 100057 100053 100048 100044 100041
          100032 100017 100006 100107 100093 100082 100076 100071 100066 100061 100056 100051
          100047 100042 100038 100026 100014 100005 100111 100094 100081 100075 100070 100065
          100060 100055 100050 100045 100039 100032 100018 100010 100003 100121 100096 100083
          100074 100068 100063 100057 100052 100047 100041 100034 100023 100012 100008 100003
          100123 100097 100083 100073 100065 100059 100053 100048 100041 100035 100028 100017
          100009 100006 100002 100119 100093 100079 100069 100061 100055 100049 100043 100037
          100031 100024 100015 100008 100005 100002 100106 100088 100075 100065 100058 100052
          100046 100040 100034 100028 100022 100016 100010 100005 100002 100101 100086 100073
          100064 100057 100051 100045 100039 100033 100027 100021 100015 100010 100005 100001
        </DataArray>
        <DataArray type="Float32" Name="rho_gas" NumberOfComponents="1" format="ascii">
          0.861647 0.944828 1.0967 1.16686 1.17797 1.17902 1.17906 1.17901 1.17895 1.1789 1.17885 1.17882
          1.17871 1.17854 1.1784 0.860247 0.921201 1.08124 1.16442 1.17771 1.17899 1.17905 1.17901 1.17895
          1.17889 1.17884 1.17879 1.17865 1.17851 1.17841 0.862232 0.905733 1.06135 1.16043 1.17741 1.17906
          1.17917 1.17914 1.17909 1.17902 1.17892 1.17878 1.17861 1.17852 1.17846 0.865526 1.13438 1.17583
          1.1817 1.1824 1.1823 1.18208 1.18178 1.18101 1.1803 1.17974 1.17923 1.17857 1.17852 1.17879
          0.865756 1.14623 1.18606 1.18763 1.18763 1.18757 1.1875 1.18743 1.1841 1.18246 1.18151 1.18093
          1.17997 1.18047 1.18123 0.865314 1.13399 1.18155 1.18688 1.18751 1.18751 1.18744 1.18737 1.18576
          1.18461 1.18399 1.18424 1.18548 1.18522 1.18478 0.86191 0.899253 1.0871 1.16488 1.18495 1.18723
          1.18739 1.18734 1.18708 1.18691 1.18673 1.1864 1.18565 1.18495 1.18417 0.859109 0.904053 1.05182
          1.15699 1.17967 1.18229 1.18247 1.1824 1.18232 1.18223 1.18214 1.18205 1.18196 1.18187 1.18172
        </DataArray>
        <DataArray type="Float32" Name="x^H2O_gas" NumberOfComponents="1" format="ascii">
          0.377857 0.234097 0.0634382 0.0273738 0.0236388 0.0233064 0.0232777 0.0232763 0.0232772 0.0232782 0.0232792 0.02328
          0.0232824 0.0232857 0.0232884 0.380568 0.271817 0.0747816 0.0282567 0.0237156 0.0233129 0.0232783 0.0232764 0.0232773
          0.0232784 0.0232795 0.0232805 0.0232835 0.0232865 0.0232886 0.376802 0.298067 0.0914357 0.0297266 0.0238303 0.0233205
          0.0232775 0.0232752 0.0232766 0.0232782 0.0232797 0.0232811 0.0232836 0.0232861 0.0232881 0.370726 0.041456 0.0250316
          0.0234612 0.0232893 0.0232749 0.0232747 0.0232759 0.0232779 0.0232795 0.0232812 0.0232836 0.0232851 0.0232862 0.0232882
          0.370343 0.036158 0.0238834 0.0233054 0.0232752 0.0232744 0.0232752 0.0232762 0.02328 0.023281 0.0232825 0.0232847
          0.0232853 0.023287 0.0232918 0.371087 0.041984 0.0254834 0.0235458 0.0233026 0.0232792 0.0232783 0.0232794 0.0232813
          0.0232823 0.0232836 0.0232869 0.0232926 0.0232928 0.0232974 0.377357 0.309328 0.105563 0.0327274 0.0241727 0.0233635
          0.023286 0.0232787 0.0232853 0.0232892 0.0232913 0.0232923 0.0232917 0.0232918 0.0232953 0.382678 0.300879 0.102962
          0.0324088 0.0241831 0.0233652 0.0232831 0.0232763 0.023277 0.0232786 0.0232802 0.0232818 0.0232836 0.0232855 0.0232888
        </DataArray>
        <DataArray type="Float32" Name="x^mesitylene_gas" NumberOfComponents="1" format="ascii">
          3.39414e-08 1.07979e-07 2.1639e-07 2.79453e-07 3.08138e-07 3.22897e-07 3.39316e-07 3.57618e-07 3.77573e-07 3.98266e-07 4.18067e-07 4.4538e-07
          1.25127e-06 2.37118e-06 2.71251e-06 2.30829e-07 5.38182e-07 1.32199e-06 1.76728e-06 2.02012e-06 2.23228e-06 2.47188e-06 2.71779e-06 2.90752e-06
          2.91347e-06 2.55487e-06 1.8137e-06 3.93632e-06 6.13507e-06 6.84073e-06 6.18387e-07 2.07504e-06 1.02863e-05 1.85585e-05 2.51705e-05 3.13671e-05
          3.69398e-05 4.14442e-05 4.3199e-05 4.06549e-05 3.19193e-05 1.86522e-05 1.85081e-05 1.84422e-05 2.32377e-05 1.06389e-06 0.000138793 0.000625639
          0.000834805 0.00088806 0.000862857 0.000820672 0.00075567 0.000568034 0.000396874 0.00026879 0.000167833 2.53337e-05 2.75086e-05 0.000114233
          1.7603e-06 0.000317978 0.00235032 0.00228506 0.00228167 0.00228157 0.00228163 0.00228173 0.00141266 0.00099348 0.000763008 0.000641922
          0.000410716 0.000553596 0.000772982 1.78025e-06 0.000324281 0.00253318 0.00231198 0.00228471 0.00228209 0.00228197 0.00228208 0.00187316
          0.00158336 0.00143927 0.00153564 0.00189387 0.00183131 0.00172895 1.12843e-06 3.36922e-05 0.0119647 0.00332972 0.00238348 0.00229148
          0.00228282 0.00228198 0.00223816 0.00221374 0.00218388 0.00211631 0.00193216 0.00175861 0.00156349 4.3706e-07 7.44537e-06 0.00090823
          0.000977671 0.00097995 0.000974529 0.000968622 0.00096294 0.000958377 0.000953859 0.000949416 0.000944771 0.000938948 0.000930584 0.000903797
        </DataArray>
        <DataArray type="Float32" Name="x^Air_gas" NumberOfComponents="1" format="ascii">
          0.622143 0.765903 0.936562 0.972626 0.976361 0.976693 0.976722 0.976723 0.976722 0.976721 0.97672 0.97672
          0.976716 0.976712 0.976709 0.619432 0.728182 0.925217 0.971741 0.976282 0.976685 0.976719 0.976721 0.97672
          0.976719 0.976718 0.976718 0.976713 0.976707 0.976705 0.623197 0.701931 0.908554 0.970255 0.976145 0.976648
          0.976686 0.976683 0.97668 0.976681 0.976688 0.9767 0.976698 0.976695 0.976689 0.629273 0.958405 0.974343
          0.975704 0.975823 0.975862 0.975905 0.975968 0.976154 0.976324 0.97645 0.976549 0.97669 0.976686 0.976598
          0.629655 0.963524 0.973766 0.97441 0.974443 0.974444 0.974443 0.974442 0.975307 0.975725 0.975954 0.976073
          0.976304 0.976159 0.975935 0.628911 0.957692 0.971983 0.974142 0.974413 0.974439 0.97444 0.974438 0.974846
          0.975134 0.975277 0.975177 0.974814 0.974876 0.974974 0.622642 0.690638 0.882472 0.963943 0.973444 0.974345
          0.974431 0.974439 0.974477 0.974497 0.974525 0.974591 0.974776 0.97495 0.975141 0.617322 0.699114 0.89613
          0.966614 0.974837 0.97566 0.975748 0.975761 0.975765 0.975768 0.97577 0.975773 0.975777 0.975784 0.975807
        </DataArray>
        <DataArray type="Float32" Name="porosity" NumberOfComponents="1" format="ascii">
          0.42 0.42 0.42 0.42 0.42 0.42 0.42 0.42 0.42 0.42 0.42 0.42
          0.42 0.42 0.42 0.42 0.42 0.42 0.42 0.42 0.42 0.42 0.42 0.42
          0.42 0.42 0.42 0.42 0.42 0.42 0.42 0.42 0.42 0.42 0.42 0.42
          0.42 0.42 0.42 0.42 0.42 0.42 0.42 0.42 0.42 0.42 0.42 0.42
          0.42 0.42 0.42 0.42 0.42 0.42 0.42 0.42 0.42 0.42 0.42 0.42
          0.42 0.42 0.42 0.42 0.42 0.42 0.42 0.42 0.42 0.42 0.42 0.42
          0.42 0.42 0.42 0.42 0.42 0.42 0.42 0.42 0.42 0.42 0.42 0.42
          0.42 0.42 0.42 0.42 0.42 0.42 0.42 0.42 0.42 0.42 0.42 0.42
          0.42 0.42 0.42 0.42 0.42 0.42 0.42 0.42 0.42 0.42 0.42 0.42
          0.42 0.42 0.42 0.42 0.42 0.42 0.42 0.42 0.42 0.42 0.42 0.42
        </DataArray>
        <DataArray type="Float32" Name="phase presence" NumberOfComponents="1" format="ascii">
          6 6 6 6 6 6 6 6 6 6 6 6
          6 6 6 6 6 6 6 6 6 6 6 6
          6 6 6 6 6 6 6 6 6 6 6 6
          6 6 6 6 6 6 6 6 6 6 6 6
          6 6 6 6 6 6 6 6 6 6 6 6
          6 6 1 1 1 1 1 1 6 6 6 6
          6 6 6 6 6 1 1 1 1 1 1 6
          6 6 6 6 6 6 6 6 1 1 1 1
          1 1 6 6 6 6 6 6 6 6 6 6
          6 6 6 6 6 6 6 6 6 6 6 6
        </DataArray>
        <DataArray type="Float32" Name="permeability" NumberOfComponents="1" format="ascii">
          9.14e-10 9.14e-10 9.14e-10 9.14e-10 9.14e-10 9.14e-10 9.14e-10 9.14e-10 9.14e-10 9.14e-10 9.14e-10 9.14e-10
          6.28e-12 6.28e-12 6.28e-12 9.14e-10 9.14e-10 9.14e-10 9.14e-10 9.14e-10 9.14e-10 9.14e-10 9.14e-10 9.14e-10
          9.14e-10 9.14e-10 9.14e-10 6.28e-12 6.28e-12 6.28e-12 9.14e-10 9.14e-10 9.14e-10 9.14e-10 9.14e-10 9.14e-10
          9.14e-10 9.14e-10 9.14e-10 9.14e-10 9.14e-10 9.14e-10 9.14e-10 9.14e-10 9.14e-10 9.14e-10 6.28e-12 6.28e-12
          6.28e-12 6.28e-12 6.28e-12 6.28e-12 6.28e-12 6.28e-12 6.28e-12 6.28e-12 6.28e-12 9.14e-10 9.14e-10 9.14e-10
          9.14e-10 6.28e-12 6.28e-12 6.28e-12 6.28e-12 6.28e-12 6.28e-12 6.28e-12 6.28e-12 6.28e-12 6.28e-12 6.28e-12
          9.14e-10 9.14e-10 9.14e-10 9.14e-10 6.28e-12 6.28e-12 6.28e-12 6.28e-12 6.28e-12 6.28e-12 6.28e-12 6.28e-12
          6.28e-12 6.28e-12 6.28e-12 9.14e-10 9.14e-10 9.14e-10 9.14e-10 9.14e-10 9.14e-10 9.14e-10 9.14e-10 9.14e-10
          9.14e-10 9.14e-10 9.14e-10 9.14e-10 9.14e-10 9.14e-10 9.14e-10 9.14e-10 9.14e-10 9.14e-10 9.14e-10 9.14e-10
          9.14e-10 9.14e-10 9.14e-10 9.14e-10 9.14e-10 9.14e-10 9.14e-10 9.14e-10 9.14e-10 9.14e-10 9.14e-10 9.14e-10
        </DataArray>
        <DataArray type="Float32" Name="T" NumberOfComponents="1" format="ascii">
          347.654 336.664 310.272 295.648 293.26 293.023 293.002 293 293 293 293 293
          293 293 293 347.816 339.997 313.335 296.167 293.314 293.027 293.002 293 293
          293 293 293 293 293 293 347.592 342.061 317.164 297.031 293.396 293.033
          293.001 292.999 292.999 292.999 292.999 292.999 292.999 292.999 292.999 347.209 302.675 294.252
          293.134 293.011 293 292.999 292.999 292.999 292.999 293 292.999 292.999 292.999 292.999
          347.184 300.327 293.436 293.023 293 292.999 292.998 292.998 293 293 292.999 292.999
          292.998 292.999 293.002 347.233 302.891 294.536 293.193 293.019 293.002 293 293 293
          293 293 293 293.003 293.003 293.006 347.624 342.928 319.983 298.643 293.637 293.061
          293.005 292.999 293.002 293.004 293.005 293.004 293.003 293.002 293.004 347.941 342.276 319.515
          298.487 293.644 293.062 293.003 292.997 292.996 292.997 292.997 292.997 292.997 292.998 293
        </DataArray>
        <DataArray type="Float32" Name="process rank" NumberOfComponents="1" format="ascii">
          0 0 0 0 0 0 0 0 0 0 0 0
          0 0 0 0 0 0 0 0 0 0 0 0
          0 0 0 0 0 0 0 0 0 0 0 0
          0 0 0 0 0 0 0 0 0 0 0 0
          0 0 0 0 0 0 0 0 0 0 0 0
          0 0 0 0 0 0 0 0 0 0 0 0
          0 0 0 0 0 0 0 0 0 0 0 0
          0 0 0 0 0 0 0 0 0 0 0 0
          0 0 0 0 0 0 0 0 0 0 0 0
          0 0 0 0 0 0 0 0 0 0 0 0
        </DataArray>
      </CellData>
      <Points>
        <DataArray type="Float32" Name="Coordinates" NumberOfComponents="3" format="ascii">
          0 0 0 0.1 0 0 0 0.0925 0 0.1 0.0925 0
          0.2 0 0 0.2 0.0925 0 0.3 0 0 0.3 0.0925 0
          0.4 0 0 0.4 0.0925 0 0.5 0 0 0.5 0.0925 0
          0.6 0 0 0.6 0.0925 0 0.7 0 0 0.7 0.0925 0
          0.8 0 0 0.8 0.0925 0 0.9 0 0 0.9 0.0925 0
          1 0 0 1 0.0925 0 1.1 0 0 1.1 0.0925 0
          1.2 0 0 1.2 0.0925 0 1.3 0 0 1.3 0.0925 0
          1.4 0 0 1.4 0.0925 0 1.5 0 0 1.5 0.0925 0
          0 0.185 0 0.1 0.185 0 0.2 0.185 0 0.3 0.185 0
          0.4 0.185 0 0.5 0.185 0 0.6 0.185 0 0.7 0.185 0
          0.8 0.185 0 0.9 0.185 0 1 0.185 0 1.1 0.185 0
          1.2 0.185 0 1.3 0.185 0 1.4 0.185 0 1.5 0.185 0
          0 0.2775 0 0.1 0.2775 0 0.2 0.2775 0 0.3 0.2775 0
          0.4 0.2775 0 0.5 0.2775 0 0.6 0.2775 0 0.7 0.2775 0
          0.8 0.2775 0 0.9 0.2775 0 1 0.2775 0 1.1 0.2775 0
          1.2 0.2775 0 1.3 0.2775 0 1.4 0.2775 0 1.5 0.2775 0
          0 0.37 0 0.1 0.37 0 0.2 0.37 0 0.3 0.37 0
          0.4 0.37 0 0.5 0.37 0 0.6 0.37 0 0.7 0.37 0
          0.8 0.37 0 0.9 0.37 0 1 0.37 0 1.1 0.37 0
          1.2 0.37 0 1.3 0.37 0 1.4 0.37 0 1.5 0.37 0
          0 0.4625 0 0.1 0.4625 0 0.2 0.4625 0 0.3 0.4625 0
          0.4 0.4625 0 0.5 0.4625 0 0.6 0.4625 0 0.7 0.4625 0
          0.8 0.4625 0 0.9 0.4625 0 1 0.4625 0 1.1 0.4625 0
          1.2 0.4625 0 1.3 0.4625 0 1.4 0.4625 0 1.5 0.4625 0
          0 0.555 0 0.1 0.555 0 0.2 0.555 0 0.3 0.555 0
          0.4 0.555 0 0.5 0.555 0 0.6 0.555 0 0.7 0.555 0
          0.8 0.555 0 0.9 0.555 0 1 0.555 0 1.1 0.555 0
          1.2 0.555 0 1.3 0.555 0 1.4 0.555 0 1.5 0.555 0
          0 0.6475 0 0.1 0.6475 0 0.2 0.6475 0 0.3 0.6475 0
          0.4 0.6475 0 0.5 0.6475 0 0.6 0.6475 0 0.7 0.6475 0
          0.8 0.6475 0 0.9 0.6475 0 1 0.6475 0 1.1 0.6475 0
          1.2 0.6475 0 1.3 0.6475 0 1.4 0.6475 0 1.5 0.6475 0
          0 0.74 0 0.1 0.74 0 0.2 0.74 0 0.3 0.74 0
          0.4 0.74 0 0.5 0.74 0 0.6 0.74 0 0.7 0.74 0
          0.8 0.74 0 0.9 0.74 0 1 0.74 0 1.1 0.74 0
          1.2 0.74 0 1.3 0.74 0 1.4 0.74 0 1.5 0.74 0
        </DataArray>
      </Points>
      <Cells>
        <DataArray type="Int32" Name="connectivity" NumberOfComponents="1" format="ascii">
          0 1 3 2 1 4 5 3 4 6 7 5
          6 8 9 7 8 10 11 9 10 12 13 11
          12 14 15 13 14 16 17 15 16 18 19 17
          18 20 21 19 20 22 23 21 22 24 25 23
          24 26 27 25 26 28 29 27 28 30 31 29
          2 3 33 32 3 5 34 33 5 7 35 34
          7 9 36 35 9 11 37 36 11 13 38 37
          13 15 39 38 15 17 40 39 17 19 41 40
          19 21 42 41 21 23 43 42 23 25 44 43
          25 27 45 44 27 29 46 45 29 31 47 46
          32 33 49 48 33 34 50 49 34 35 51 50
          35 36 52 51 36 37 53 52 37 38 54 53
          38 39 55 54 39 40 56 55 40 41 57 56
          41 42 58 57 42 43 59 58 43 44 60 59
          44 45 61 60 45 46 62 61 46 47 63 62
          48 49 65 64 49 50 66 65 50 51 67 66
          51 52 68 67 52 53 69 68 53 54 70 69
          54 55 71 70 55 56 72 71 56 57 73 72
          57 58 74 73 58 59 75 74 59 60 76 75
          60 61 77 76 61 62 78 77 62 63 79 78
          64 65 81 80 65 66 82 81 66 67 83 82
          67 68 84 83 68 69 85 84 69 70 86 85
          70 71 87 86 71 72 88 87 72 73 89 88
          73 74 90 89 74 75 91 90 75 76 92 91
          76 77 93 92 77 78 94 93 78 79 95 94
          80 81 97 96 81 82 98 97 82 83 99 98
          83 84 100 99 84 85 101 100 85 86 102 101
          86 87 103 102 87 88 104 103 88 89 105 104
          89 90 106 105 90 91 107 106 91 92 108 107
          92 93 109 108 93 94 110 109 94 95 111 110
          96 97 113 112 97 98 114 113 98 99 115 114
          99 100 116 115 100 101 117 116 101 102 118 117
          102 103 119 118 103 104 120 119 104 105 121 120
          105 106 122 121 106 107 123 122 107 108 124 123
          108 109 125 124 109 110 126 125 110 111 127 126
          112 113 129 128 113 114 130 129 114 115 131 130
          115 116 132 131 116 117 133 132 117 118 134 133
          118 119 135 134 119 120 136 135 120 121 137 136
          121 122 138 137 122 123 139 138 123 124 140 139