<?xml version="1.0"?>
<VTKFile type="UnstructuredGrid" version="0.1" byte_order="LittleEndian">
  <UnstructuredGrid>
    <Piece NumberOfCells="10" NumberOfPoints="18">
      <PointData Scalars="S_liq" Vectors="velocity_liq (m/s)">
        <DataArray type="Float32" Name="S_liq" NumberOfComponents="1" format="ascii">
          0.263566 0.263566 0.240907 0.240907 0.263566 0.240907 0.00158583 0.00158583 0.00158583 3.49138e-05 3.49138e-05 3.49138e-05
          2.87196e-06 2.87196e-06 2.87196e-06 5.06145e-07 5.06145e-07 5.06145e-07
        </DataArray>
        <DataArray type="Float32" Name="p_liq" NumberOfComponents="1" format="ascii">
          90969.1 90969.1 88859.5 88859.5 90969.1 88859.5 64569.6 64569.6 64569.6 64410.1 64410.1 64410.1
          64405 64405 64405 64403.1 64403.1 64403.1
        </DataArray>
        <DataArray type="Float32" Name="rho_liq" NumberOfComponents="1" format="ascii">
          1010.63 1010.63 1011.88 1011.88 1010.63 1011.88 1679.42 1679.42 1679.42 1744.72 1744.72 1744.72
          1793.57 1793.57 1793.57 1831.63 1831.63 1831.63
        </DataArray>
        <DataArray type="Float32" Name="mob_liq" NumberOfComponents="1" format="ascii">
          0.0238114 0.0238114 0 0 0.0238114 0 0 0 0 0 0 0
          0 0 0 0 0 0
        </DataArray>
        <DataArray type="Float32" Name="S_gas" NumberOfComponents="1" format="ascii">
          0.736434 0.736434 0.759093 0.759093 0.736434 0.759093 0.998414 0.998414 0.998414 0.999965 0.999965 0.999965
          0.999997 0.999997 0.999997 1 1 1
        </DataArray>
        <DataArray type="Float32" Name="p_gas" NumberOfComponents="1" format="ascii">
          100014 100014 100014 100014 100014 100014 100006 100006 100006 100004 100004 100004
          100002 100002 100002 100001 100001 100001
        </DataArray>
        <DataArray type="Float32" Name="rho_gas" NumberOfComponents="1" format="ascii">
          1.15384 1.15384 1.15384 1.15384 1.15384 1.15384 1.16004 1.16004 1.16004 1.16103 1.16103 1.16103
          1.16186 1.16186 1.16186 1.16257 1.16257 1.16257
        </DataArray>
        <DataArray type="Float32" Name="mob_gas" NumberOfComponents="1" format="ascii">
          53603.8 53603.8 54272.5 54272.5 53603.8 54272.5 54271.5 54271.5 54271.5 54270.9 54270.9 54270.9
          54270.5 54270.5 54270.5 54270 54270 54270
        </DataArray>
        <DataArray type="Float32" Name="pc" NumberOfComponents="1" format="ascii">
          9044.65 9044.65 11154.1 11154.1 9044.65 11154.1 35436.7 35436.7 35436.7 35594.1 35594.1 35594.1
          35597.3 35597.3 35597.3 35597.5 35597.5 35597.5
        </DataArray>
        <DataArray type="Float32" Name="porosity" NumberOfComponents="1" format="ascii">
          0.4 0.4 0.4 0.4 0.4 0.4 0.399031 0.399031 0.399031 0.397936 0.397936 0.397936
          0.396087 0.396087 0.396087 0.385026 0.385026 0.385026
        </DataArray>
        <DataArray type="Float32" Name="x^H2O_liq" NumberOfComponents="1" format="ascii">
          0.993717 0.993717 0.993142 0.993142 0.993717 0.993142 0.543584 0.543584 0.543584 0.470055 0.470055 0.470055
          0.408486 0.408486 0.408486 0.355945 0.355945 0.355945
        </DataArray>
        <DataArray type="Float32" Name="x^Air_liq" NumberOfComponents="1" format="ascii">
          1.33745e-05 1.33745e-05 1.33743e-05 1.33743e-05 1.33745e-05 1.33743e-05 1.35702e-05 1.35702e-05 1.35702e-05 1.36016e-05 1.36016e-05 1.36016e-05
          1.36278e-05 1.36278e-05 1.36278e-05 1.36501e-05 1.36501e-05 1.36501e-05
        </DataArray>
        <DataArray type="Float32" Name="x^NaCl_liq" NumberOfComponents="1" format="ascii">
          0.0062698 0.0062698 0.00684462 0.00684462 0.0062698 0.00684462 0.456402 0.456402 0.456402 0.529931 0.529931 0.529931
          0.591501 0.591501 0.591501 0.644041 0.644041 0.644041
        </DataArray>
        <DataArray type="Float32" Name="rhoMolar_liq" NumberOfComponents="1" format="ascii">
          55320.3 55320.3 55317.9 55317.9 55320.3 55317.9 46053.6 46053.6 46053.6 44238.1 44238.1 44238.1
          42777 42777 42777 41578.4 41578.4 41578.4
        </DataArray>
        <DataArray type="Float32" Name="x^H2O_gas" NumberOfComponents="1" format="ascii">
          0.031767 0.031767 0.0317526 0.0317526 0.031767 0.0317526 0.0173882 0.0173882 0.0173882 0.0150397 0.0150397 0.0150397
          0.0130726 0.0130726 0.0130726 0.0113933 0.0113933 0.0113933
        </DataArray>
        <DataArray type="Float32" Name="x^Air_gas" NumberOfComponents="1" format="ascii">
          0.968233 0.968233 0.968247 0.968247 0.968233 0.968247 0.982612 0.982612 0.982612 0.98496 0.98496 0.98496
          0.986927 0.986927 0.986927 0.988607 0.988607 0.988607
        </DataArray>
        <DataArray type="Float32" Name="x^NaCl_gas" NumberOfComponents="1" format="ascii">
          -0 -0 -0 -0 -0 -0 -0 -0 -0 -0 -0 -0
          -0 -0 -0 -0 -0 -0
        </DataArray>
        <DataArray type="Float32" Name="rhoMolar_gas" NumberOfComponents="1" format="ascii">
          40.3275 40.3275 40.3272 40.3272 40.3275 40.3272 40.3218 40.3218 40.3218 40.3203 40.3203 40.3203
          40.319 40.319 40.319 40.3178 40.3178 40.3178
        </DataArray>
        <DataArray type="Float32" Name="phase presence" NumberOfComponents="1" format="ascii">
          3 3 3 3 3 3 3 3 3 3 3 3
          3 3 3 3 3 3
        </DataArray>
        <DataArray type="Float32" Name="precipitateVolumeFraction^NaCl" NumberOfComponents="1" format="ascii">
          0 0 0 0 0 0 0.000968505 0.000968505 0.000968505 0.00206405 0.00206405 0.00206405
          0.00391302 0.00391302 0.00391302 0.0149737 0.0149737 0.0149737
        </DataArray>
        <DataArray type="Float32" Name="T" NumberOfComponents="1" format="ascii">
          298.295 298.295 298.297 298.297 298.295 298.297 298.304 298.304 298.304 298.308 298.308 298.308
          298.311 298.311 298.311 298.314 298.314 298.314
        </DataArray>
        <DataArray type="Float32" Name="velocity_liq (m/s)" NumberOfComponents="3" format="ascii">
          5.991e-23 6.46129e-10 0 7.3874e-23 6.46129e-10 0 0 3.23064e-10 0 0 3.23064e-10 0
          8.7838e-23 6.46129e-10 0 0 3.23064e-10 0 0 0 0 0 0 0
          0 0 0 0 0 0 0 0 0 0 0 0
          0 0 0 0 0 0 0 0 0 0 0 0
          0 0 0 0 0 0
        </DataArray>
        <DataArray type="Float32" Name="velocity_gas (m/s)" NumberOfComponents="3" format="ascii">
          -3.43217e-18 3.08347e-09 0 1.56008e-18 3.08347e-09 0 -9.45653e-19 2.59792e-06 0 3.17977e-19 2.59792e-06 0
          6.55232e-18 3.08347e-09 0 1.58161e-18 2.59792e-06 0 -7.70441e-20 5.49842e-06 0 -7.70441e-20 5.49842e-06 0
          -7.70441e-20 5.49842e-06 0 -2.22546e-18 5.80413e-06 0 -1.74522e-18 5.80413e-06 0 -1.26497e-18 5.80413e-06 0
          -6.00464e-18 5.80229e-06 0 -9.31159e-20 5.80229e-06 0 5.8184e-18 5.80229e-06 0 -1.59582e-18 5.80039e-06 0
          5.79994e-18 5.80039e-06 0 1.31957e-17 5.80039e-06 0
        </DataArray>
        <DataArray type="Float32" Name="Permeability" NumberOfComponents="1" format="ascii">
          1e-13 1e-13 9.9738e-14 9.9738e-14 1e-13 9.9738e-14 9.86621e-14 9.86621e-14 9.86621e-14 9.72962e-14 9.72962e-14 9.72962e-14
          9.29929e-14 9.29929e-14 9.29929e-14 8.75222e-14 8.75222e-14 8.75222e-14
        </DataArray>
      </PointData>
      <CellData Scalars="process rank">
        <DataArray type="Float32" Name="process rank" NumberOfComponents="1" format="ascii">
          0 0 0 0 0 0 0 0 0 0
        </DataArray>
      </CellData>
      <Points>
        <DataArray type="Float32" Name="Coordinates" NumberOfComponents="3" format="ascii">
          0 0 0 0.01 0 0 0 0.0075 0 0.01 0.0075 0
          0.02 0 0 0.02 0.0075 0 0 0.015 0 0.01 0.015 0
          0.02 0.015 0 0 0.016978 0 0.01 0.016978 0 0.02 0.016978 0
          0 0.0186264 0 0.01 0.0186264 0 0.02 0.0186264 0 0 0.02 0
          0.01 0.02 0 0.02 0.02 0
        </DataArray>
      </Points>
      <Cells>
        <DataArray type="Int32" Name="connectivity" NumberOfComponents="1" format="ascii">
          0 1 3 2 1 4 5 3 2 3 7 6
          3 5 8 7 6 7 10 9 7 8 11 10
          9 10 13 12 10 11 14 13 12 13 16 15
          13 14 17 16
        </DataArray>
        <DataArray type="Int32" Name="offsets" NumberOfComponents="1" format="ascii">
          4 8 12 16 20 24 28 32 36 40
        </DataArray>
        <DataArray type="UInt8" Name="types" NumberOfComponents="1" format="ascii">
          9 9 9 9 9 9 9 9 9 9
        </DataArray>
      </Cells>
    </Piece>
  </UnstructuredGrid>
</VTKFile>
