<?xml version="1.0"?>
<VTKFile type="UnstructuredGrid" version="0.1" byte_order="LittleEndian">
  <UnstructuredGrid>
    <Piece NumberOfCells="7200" NumberOfPoints="3731">
      <PointData Scalars="p">
        <DataArray type="Float32" Name="p" NumberOfComponents="1" format="ascii">
          0.999549 0.999401 0.999723 0.999257 0.999136 0.999859 0.998993 0.998889 0.998743 0.998647 0.999566 0.999262
          0.999009 0.998762 0.998502 0.998408 0.998266 0.998171 0.998036 0.997935 0.99781 0.998524 0.998292 0.998065
          0.999835 0.999593 0.999303 0.999056 0.998808 0.999827 0.998572 0.997843 0.998342 0.998118 0.9979 0.997701
          0.99759 0.99747 0.997377 0.997246 0.997173 0.997028 0.997627 0.997418 0.997217 0.996979 0.996821 0.996797
          0.996626 0.99663 0.996448 0.99648 0.996288 0.997027 0.996849 0.996686 0.996538 0.997689 0.997486 0.997291
          0.997107 0.996935 0.996777 0.996634 0.999602 0.999816 0.999321 0.999081 0.998836 0.999609 0.999338 0.999807
          0.999107 0.998867 0.998605 0.998378 0.998157 0.997943 0.998639 0.998415 0.998197 0.997986 0.999614 0.999351
          0.9998 0.999127 0.998891 0.999619 0.999363 0.999145 0.998913 0.998667 0.998446 0.998232 0.998024 0.998694
          0.998475 0.998264 0.997736 0.997536 0.997346 0.997782 0.997586 0.997399 0.997166 0.996997 0.996842 0.996702
          0.997223 0.997058 0.996906 0.996768 0.997823 0.997629 0.997445 0.998058 0.997859 0.997668 0.997486 0.997271
          0.997109 0.996959 0.996823 0.997314 0.997154 0.997006 0.996871 0.996349 0.99615 0.996238 0.996038 0.996146
          0.995951 0.996077 0.995895 0.996408 0.996297 0.996204 0.99613 0.99602 0.995861 0.99599 0.995872 0.995924
          0.995867 0.995933 0.996066 0.996022 0.995947 0.996507 0.996396 0.996302 0.996224 0.996153 0.995918 0.996096
          0.996009 0.995958 0.995978 0.995668 0.995891 0.995805 0.996385 0.994241 0.995541 0.995676 0.995689 0.994678
          0.995778 0.999498 0.982589 0.991698 1.0068 0.996744 0.898459 0.686188 0.99514 0.991296 0.996521 0.985659
          0.995721 0.995735 0.994835 0.995676 0.992067 0.99845 0.993196 0.996576 0.996467 0.996372 0.996291 0.996644
          0.996536 0.996442 0.996361 0.996218 0.996157 0.996073 0.99602 0.996289 0.996228 0.996153 0.996107 0.996701
          0.996594 0.996502 0.996423 0.996751 0.996646 0.996556 0.996479 0.996355 0.996297 0.996236 0.996201 0.996417
          0.996366 0.99632 0.995825 0.995851 0.995198 0.995955 0.996005 0.995507 0.995977 0.993415 0.999085 0.992418
          0.996273 0.994195 0.999179 0.992222 0.996095 0.996161 0.995801 0.996298 0.996234 0.996312 0.996066 0.996511
          0.994849 0.999145 0.992875 0.996709 0.99538 0.999051 0.993633 0.999795 0.999624 0.999373 0.999161 0.998933
          0.999792 0.998717 0.998501 0.998292 0.998088 0.99963 0.999791 0.999383 0.999176 0.998951 0.999638 0.999394
          0.999792 0.99919 0.998968 0.998738 0.998524 0.998317 0.998114 0.998757 0.998545 0.998339 0.998137 0.997891
          0.997702 0.997521 0.997351 0.997191 0.997044 0.996911 0.997919 0.99773 0.99755 0.997942 0.997754 0.997574
          0.997381 0.997222 0.997075 0.996943 0.997404 0.997245 0.997099 0.996966 0.999647 0.999404 0.999795 0.999203
          0.998983 0.999657 0.999415 0.999216 0.998997 0.998774 0.998563 0.998358 0.998157 0.998789 0.998579 0.998374
          0.999801 0.999669 0.999427 0.99923 0.999011 0.999809 0.998804 0.998173 0.998593 0.998388 0.998186 0.997961
          0.997773 0.997593 0.997977 0.997788 0.997606 0.997422 0.997262 0.997115 0.996981 0.997434 0.997272 0.997122
          0.996987 0.997989 0.997798 0.997614 0.997439 0.997275 0.997122 0.996984 0.996792 0.996688 0.996601 0.996528
          0.996472 0.996428 0.996399 0.996389 0.996825 0.996723 0.996638 0.996568 0.996849 0.996747 0.996665 0.996599
          0.99652 0.996483 0.996471 0.996472 0.996557 0.996527 0.996532 0.996542 0.996365 0.99645 0.996305 0.996871
          0.995832 0.998946 0.994341 0.996487 0.996571 0.99652 0.996594 0.996674 0.996713 0.996998 0.996233 0.998824
          0.994994 0.997094 0.996602 0.998679 0.995628 0.996863 0.996762 0.996681 0.996618 0.996868 0.996766 0.996686
          0.996624 0.996583 0.996559 0.99658 0.996598 0.996595 0.996577 0.996613 0.996862 0.996758 0.996678 0.996617
          0.996592 0.996636 0.996578 0.996629 0.996656 0.996686 0.996756 0.996887 0.996761 0.996818 0.997041 0.997161
          0.99695 0.998506 0.996259 0.9972 0.997284 0.998302 0.996898 0.996817 0.996857 0.997178 0.997212 0.997611
          0.998063 0.99755 0.612997 0.479252 0.443473 0.364163 0.337091 0.277257 0.256602 0.210657 0.80161 0.55876
          0.412133 0.31335 0.194649 0.158757 0.146191 0.118076 0.108267 0.0864774 0.0789434 0.238548 0.180548 0.135129
          0.912078 0.712524 0.511852 0.381507 0.290552 0.0996384 0.220965 0.166818 0.124341 0.0624201 0.0567828 0.0445909
          0.0404888 0.0317196 0.0288015 0.0226059 0.072345 0.0518728 0.0369362 0.0205574 0.0162212 0.0147919 0.0117722 0.0107794
          0.00868805 0.00800283 0.00656496 0.0262844 0.0187939 0.0135623 0.00992601 0.0912496 0.0659618 0.0471547 0.0335428 0.0238892
          0.0171183 0.0123948 0.950019 0.830424 0.642235 0.46933 0.958681 0.889542 0.757226 0.581107 0.353151 0.269059
          0.204382 0.153801 0.431266 0.326394 0.248765 0.188599 0.960252 0.912271 0.82931 0.68921 0.960887 0.919724
          0.864698 0.76783 0.528449 0.39647 0.301363 0.229596 0.627945 0.481913 0.364589 0.114119 0.0833229 0.059967
          0.14139 0.104373 0.0757976 0.0427555 0.0303985 0.0216774 0.0155725 0.0543166 0.0386429 0.027477 0.019628 0.173626
          0.129581 0.095113 0.277881 0.211497 0.159411 0.118348 0.0686853 0.0490219 0.0348226 0.0247786 0.0863234 0.0619821
          0.0440812 0.0312894 0.00609569 0.00511396 0.00479448 0.00412703 0.00391009 0.00345693 0.0033097 0.00300254 0.0074148 0.00569364
          0.00452104 0.00372445 0.00290302 0.00269676 0.00263065 0.00249653 0.00245491 0.00237521 0.00235264 0.00318373 0.00281794 0.00257442
          0.00911678 0.00685824 0.00531374 0.0042629 0.00354921 0.00242 0.00306482 0.00273782 0.00252182 0.00231667 0.00230991 0.00231105
          0.00231794 0.00235135 0.00237004 0.00243072 0.00233457 0.0023059 0.00232622 0.00245919 0.00254026 0.00257444 0.00266489 0.00270149
          0.00277892 0.00279664 0.00281928 0.00238899 0.00248615 0.00260878 0.00272821 0.00238811 0.00231906 0.00230462 0.00233676 0.00241051
          0.00251627 0.00263892 0.0113185 0.00837186 0.00634701 0.0049654 0.0141411 0.0103226 0.00768405 0.00587613 0.00402634 0.00338859
          0.00295585 0.00266447 0.00464506 0.00380889 0.00324092 0.00285555 0.0177386 0.0128218 0.0094058 0.00705251 0.0222946 0.0160008
          0.0116086 0.00856437 0.00544488 0.00435207 0.00361005 0.00310563 0.00647467 0.00505124 0.00408498 0.00247417 0.00235958 0.00230696
          0.00259737 0.0024304 0.00233563 0.00230454 0.00235162 0.00242999 0.00255144 0.00229477 0.00231359 0.00235408 0.00248137 0.00276405
          0.00253527 0.00239307 0.0034285 0.0029826 0.00267913 0.00248226 0.00230937 0.00229921 0.0022912 0.00243884 0.00235033 0.00231076
          0.00224344 0.0024304 0.961445 0.922343 0.879465 0.813581 0.708396 0.572564 0.440399 0.335187 0.961848 0.923556
          0.885245 0.836178 0.962072 0.924193 0.887599 0.846244 0.761489 0.651745 0.522589 0.402945 0.791335 0.709336
          0.598577 0.477334 0.255865 0.194398 0.145916 0.107669 0.0779993 0.0556906 0.0394953 0.307984 0.235205 0.178238
          0.368896 0.282736 0.215803 0.133102 0.0975248 0.0701371 0.0498139 0.162954 0.12093 0.0878992 0.0627382 0.962159
          0.924446 0.888573 0.850515 0.962149 0.924418 0.888832 0.852223 0.806232 0.745244 0.658242 0.549051 0.813059
          0.76502 0.698732 0.962066 0.924188 0.888632 0.852687 0.815902 0.608889 0.77486 0.722997 0.652448 0.43622
          0.337745 0.259249 0.503149 0.398721 0.309106 0.197564 0.148485 0.109365 0.0787813 0.237354 0.180399 0.134772
          0.0983734 0.56176 0.46071 0.364396 0.282676 0.216908 0.164222 0.121755 0.0280379 0.0200162 0.0144066 0.0104963
          0.00779511 0.00594813 0.00469348 0.00384203 0.035263 0.0250596 0.0179322 0.0129475 0.0443567 0.0313808 0.0223429 0.0160305
          0.00947982 0.00709458 0.00547046 0.00436904 0.0116153 0.00855412 0.0064596 0.00503829 0.00326411 0.00286857 0.00260705 0.00241994
          0.00235017 0.00221247 0.00246031 0.00362295 0.00311224 0.00277242 0.0040775 0.00342141 0.00298494 0.00252099 0.0024193 0.0021997
          0.00253139 0.00265711 0.00252026 0.00220636 0.0026456 0.0558081 0.0393233 0.027841 0.019873 0.0701671 0.0493568 0.034716
          0.0246316 0.0142982 0.0104021 0.00771489 0.00588586 0.0176327 0.0127228 0.0093014 0.0879293 0.0620608 0.0433972 0.0305328
          0.0217348 0.00695665 0.015603 0.0112932 0.00830581 0.00465096 0.00381047 0.00325311 0.00537245 0.00429765 0.00358783 0.00283297
          0.00265556 0.0022337 0.00280444 0.00305461 0.0028284 0.002283 0.00300931 0.00627832 0.00490574 0.00400289 0.00332977 0.00304288
          0.00235573 0.00326168 0.999682 0.999819 0.999439 0.999243 0.999024 0.999696 0.999452 0.999831 0.999256 0.999037
          0.998817 0.998606 0.9984 0.998196 0.998829 0.998617 0.99841 0.998204 0.999712 0.999466 0.999845 0.99927
          0.99905 0.999729 0.99948 0.999284 0.999062 0.998841 0.998627 0.998418 0.99821 0.998852 0.998637 0.998425
          0.997997 0.997804 0.997617 0.998003 0.997806 0.997616 0.997439 0.997271 0.997114 0.996972 0.997433 0.99726
          0.997098 0.99695 0.998006 0.997805 0.997611 0.998214 0.998006 0.997802 0.997601 0.997423 0.997243 0.997075
          0.996919 0.997407 0.997221 0.997044 0.996879 0.999861 0.999747 0.999495 0.999298 0.999075 0.999878 0.998863
          0.998645 0.998431 0.998217 0.999766 0.999897 0.999511 0.999313 0.999087 0.999785 0.999528 0.999917 0.999328
          0.9991 0.998874 0.998654 0.998437 0.998219 0.998885 0.998662 0.998442 0.99822 0.998005 0.997795 0.997589
          0.997387 0.997192 0.997006 0.996831 0.998002 0.997787 0.997574 0.997999 0.997778 0.997557 0.997364 0.997159
          0.996962 0.996774 0.997338 0.997123 0.996912 0.99671 0.996846 0.996739 0.996657 0.996594 0.996819 0.996706
          0.996621 0.996555 0.996573 0.996561 0.996625 0.996654 0.996535 0.996523 0.9966 0.996628 0.996781 0.996661
          0.996569 0.996498 0.996732 0.996602 0.996501 0.996422 0.996476 0.996462 0.996551 0.996576 0.996396 0.996376
          0.996474 0.996853 0.996872 0.997297 0.996866 0.99686 0.997398 0.997196 0.997933 0.997786 0.998223 0.997152
          0.998255 0.997466 0.998923 0.996855 0.996821 0.997481 0.996494 0.996815 0.996749 0.997544 0.997076 0.99858
          0.997101 0.999659 0.996966 0.998912 0.996684 1.00044 0.996671 0.99653 0.996417 0.996325 0.996291 0.996263
          0.996366 0.996379 0.9966 0.996443 0.996315 0.996208 0.996519 0.996344 0.996195 0.996068 0.996161 0.99612
          0.996224 0.996225 0.996002 0.995944 0.996042 0.996028 0.996743 0.996641 0.997585 0.996817 0.999254 0.996209
          1.00128 0.996633 0.996491 0.9976 0.996476 0.996292 0.997583 0.996626 0.999611 0.99567 1.00219 0.996385
          0.999986 0.995057 1.0032 0.999804 0.999545 0.999938 0.999343 0.999114 0.999824 0.999562 0.999359 0.999127
          0.998896 0.998671 0.998448 0.998222 0.998908 0.998681 0.998454 0.99996 0.999843 0.999579 0.999375 0.999142
          0.999981 0.998921 0.998224 0.998691 0.998462 0.998228 0.997996 0.997768 0.997539 0.997993 0.997758 0.997522
          0.997311 0.997083 0.996859 0.996639 0.997283 0.997042 0.996802 0.996564 0.997992 0.997751 0.997505 0.997256
          0.997002 0.996745 0.996486 0.999862 1 0.999597 0.999392 0.999157 0.99988 0.999614 1.00002 0.999409
          0.999173 0.998934 0.998703 0.998471 0.998234 0.99895 0.998717 0.998483 0.998242 0.999897 0.999632 1.00004
          0.999426 0.99919 0.999913 0.999649 0.999443 0.999209 0.998966 0.998733 0.998497 0.998254 0.998985 0.998751
          0.998515 0.997993 0.997745 0.997491 0.997997 0.997743 0.997481 0.997231 0.996963 0.996688 0.996408 0.99721
          0.996928 0.996636 0.996332 0.998005 0.997746 0.997477 0.99827 0.998018 0.997754 0.997479 0.997195 0.9969
          0.996589 0.996262 0.997188 0.99688 0.996552 0.996202 0.996429 0.996232 0.996058 0.995906 0.996332 0.996109
          0.995906 0.995722 0.995813 0.995731 0.995814 0.995781 0.995595 0.995482 0.995535 0.996229 0.995977 0.995739
          0.995518 0.995345 0.995479 0.995192 0.995199 0.995112 0.996264 0.996037 0.997523 0.995981 0.995713 0.997402
          0.996086 1.00038 0.994362 1.00433 0.995721 1.0008 0.993574 1.00561 0.995609 0.995308 0.997195 0.995278
          1.00124 0.992689 1.0071 0.996123 0.995839 0.995561 0.995295 0.996019 0.995698 0.995375 0.995057 0.995067
          0.994863 0.994802 0.994678 0.994762 0.994493 0.994337 0.994162 0.995918 0.995559 0.995187 0.994809 0.995827
          0.995428 0.995004 0.994559 0.99444 0.99409 0.993819 0.993575 0.994104 0.993653 0.993243 0.995129 0.994807
          0.996852 0.994505 0.994189 0.996306 0.994739 1.00167 0.991704 1.00886 0.994099 1.00205 0.990649 1.01102
          0.993744 0.993469 0.995458 0.992884 0.992794 0.992549 0.994091 0.993313 1.00217 0.989544 1.01372 0.992386
          1.00176 0.988613 1.01726 0.961917 0.923807 0.888109 0.852437 0.961702 0.923299 0.887343 0.851718 0.816768
          0.779245 0.736042 0.680516 0.816559 0.780764 0.742289 0.696704 0.961416 0.92267 0.886378 0.850659 0.96105
          0.921909 0.885225 0.849326 0.81569 0.780733 0.744708 0.705007 0.814364 0.779793 0.745004 0.606989 0.517121
          0.421512 0.638012 0.562821 0.475094 0.332874 0.25821 0.197783 0.148949 0.385314 0.303842 0.235506 0.179862
          0.657061 0.595897 0.520292 0.708543 0.667469 0.617366 0.55455 0.435697 0.35187 0.277036 0.214393 0.479642
          0.398879 0.320949 0.252234 0.96059 0.921002 0.883874 0.847743 0.812684 0.778255 0.744076 0.709322 0.96002
          0.919924 0.882302 0.845904 0.959316 0.918643 0.880473 0.843782 0.81069 0.776274 0.742377 0.708501 0.808382
          0.773913 0.74013 0.706699 0.672274 0.629787 0.5779 0.514291 0.44102 0.364543 0.292335 0.673676 0.635933
          0.592116 0.673059 0.638065 0.599586 0.538942 0.47538 0.404503 0.332571 0.554643 0.500751 0.438014 0.370112
          0.109379 0.0780143 0.054476 0.0379431 0.134496 0.0975919 0.0686217 0.0474357 0.026765 0.0191274 0.0137656 0.00999805
          0.0330058 0.0233949 0.0167828 0.0121012 0.163037 0.120782 0.086348 0.0597603 0.194725 0.147203 0.10772 0.0756125
          0.0409712 0.0285889 0.0203952 0.0146701 0.0514578 0.0351179 0.0246843 0.00741393 0.00566326 0.00451554 0.00883446 0.00660596
          0.00514725 0.00366823 0.0033042 0.00245362 0.00356334 0.00408217 0.00361893 0.00257871 0.00391658 0.0106016 0.00777878 0.00592486
          0.0177254 0.0127688 0.00923605 0.00688269 0.00458669 0.00399534 0.00273344 0.00432437 0.00520042 0.00444361 0.00292064 0.00479063
          0.229246 0.176374 0.132256 0.0952265 0.0653683 0.0437632 0.0299097 0.0212617 0.265833 0.207909 0.159224 0.118086
          0.302828 0.241262 0.188084 0.143166 0.0832161 0.055625 0.0367489 0.0253629 0.10457 0.0716109 0.0464329 0.0304981
          0.0153489 0.0110326 0.00806519 0.00594698 0.00497627 0.00314358 0.00532052 0.0182818 0.0131917 0.00952588 0.0214814 0.0156427
          0.0113069 0.00685814 0.00560884 0.00340587 0.00592096 0.00797857 0.006362 0.00371127 0.00660138 0.958447 0.917115 0.878338
          0.841333 0.95737 0.915283 0.875832 0.838497 0.805733 0.771183 0.737436 0.704229 0.802691 0.768058 0.734317
          0.956024 0.913071 0.872871 0.835195 0.799189 0.701235 0.764486 0.730755 0.697766 0.671214 0.637739 0.602508
          0.668561 0.635911 0.602542 0.563332 0.517566 0.463563 0.402335 0.567048 0.527295 0.481086 0.427575 0.665304
          0.633119 0.600787 0.567485 0.531753 0.491619 0.445401 0.954312 0.910366 0.869337 0.83132 0.952099 0.907019
          0.865086 0.826744 0.79513 0.760386 0.726692 0.693802 0.790407 0.755671 0.722059 0.689306 0.949129 0.902736
          0.859849 0.821229 0.94524 0.897242 0.853448 0.81466 0.784814 0.750159 0.7167 0.684146 0.778291 0.743836
          0.710636 0.66151 0.629625 0.597889 0.657195 0.625553 0.594203 0.565839 0.532592 0.496704 0.456454 0.562882
          0.531092 0.497924 0.462022 0.652257 0.620868 0.589831 0.678371 0.646781 0.615695 0.584977 0.558982 0.528049
          0.496517 0.463493 0.554506 0.524126 0.493568 0.46232 0.337829 0.275176 0.218462 0.169654 0.368435 0.307603
          0.249475 0.197287 0.128092 0.0915658 0.060354 0.0378885 0.152523 0.113885 0.0789093 0.392951 0.336367 0.279367
          0.225587 0.177609 0.0494229 0.136619 0.100401 0.0663993 0.0251134 0.0181778 0.0133708 0.0301702 0.0206137 0.0154771
          0.00936261 0.00726784 0.00406371 0.00737498 0.011028 0.00837992 0.00446951 0.00826043 0.0388993 0.0234491 0.0171475 0.0128072
          0.00976934 0.00494887 0.00928521 0.410683 0.359815 0.306143 0.253035 0.421971 0.37711 0.328276 0.27777 0.203366
          0.159316 0.121892 0.0874248 0.228532 0.182684 0.142346 0.10833 0.427771 0.388274 0.344766 0.298345 0.429552
          0.394254 0.355687 0.313947 0.251163 0.205706 0.163338 0.126599 0.270245 0.226455 0.184652 0.053839 0.0289119
          0.0181545 0.0746913 0.0409709 0.0200744 0.0140929 0.0114167 0.00555638 0.0104918 0.0139051 0.0128913 0.00639686 0.011968
          0.0959054 0.0615633 0.0279378 0.145331 0.112362 0.0846913 0.0477475 0.0122911 0.0127122 0.00732747 0.0138765 0.0141745
          0.00902022 0.00741856 0.0167118 0.00282634 0.00277982 0.0028304 0.00281045 0.00293292 0.00295071 0.00305342 0.0031236 0.00281921
          0.002799 0.00290099 0.00300703 0.00319158 0.00331237 0.0033294 0.00349616 0.00345698 0.0036625 0.00356541 0.00313693 0.00326548
          0.00338558 0.00278092 0.002748 0.00285747 0.00294884 0.00306534 0.00348788 0.00317739 0.00328281 0.00337237 0.00380141 0.00364864
          0.00390653 0.00370261 0.00397402 0.00372512 0.00400234 0.00356677 0.00361813 0.00363971 0.00371549 0.00399171 0.00367431 0.00394377
          0.00360311 0.0038612 0.00350411 0.00374734 0.00363069 0.00359143 0.00352322 0.00342805 0.00344139 0.0034859 0.0035037 0.00349375
          0.00345612 0.00339171 0.00330209 0.00270134 0.00268066 0.00279836 0.00288432 0.00258069 0.00260869 0.00272787 0.00281678 0.00299722
          0.0031025 0.00320213 0.00328623 0.00292916 0.00303051 0.00312591 0.00320538 0.00241965 0.00253865 0.00264634 0.00274815 0.00222004
          0.00247608 0.00255569 0.0026815 0.00286214 0.00296428 0.00305901 0.00313704 0.00279727 0.00290429 0.00300042 0.00335107 0.00339275
          0.00340919 0.00326633 0.00330501 0.00331966 0.00339933 0.00336311 0.00330128 0.00321517 0.00330923 0.00327367 0.00321359 0.0031302
          0.00319651 0.0032339 0.00324777 0.00307895 0.00313815 0.00317496 0.00318827 0.00323717 0.00320211 0.00314323 0.00306166 0.00317733
          0.00314231 0.00308391 0.00300328 0.00338001 0.00360598 0.00323375 0.00344105 0.00306837 0.00325649 0.0028868 0.00305601 0.00330836
          0.00316684 0.00300633 0.00282955 0.00269192 0.00284319 0.00248603 0.00262094 0.00227175 0.00239246 0.00204967 0.0026392 0.00243747
          0.0022267 0.00318924 0.00305546 0.00290317 0.00273474 0.00255252 0.00200761 0.00235846 0.00215461 0.0019416 0.00215892 0.00182322
          0.00192449 0.00158696 0.00168461 0.00135254 0.00145292 0.00178298 0.00154858 0.00131308 0.0010852 0.0011971 0.000849922 0.000991067
          0.000443801 0.00054194 0.000316677 0.000592798 0.00105071 0.000809478 0.000449339 0.000285835 0.00172188 0.00149176 0.00125899 0.00100207
          0.000762406 0.000433771 0.000255076 0.00310658 0.00297755 0.00283028 0.00266696 0.00302511 0.00290016 0.00275736 0.00259873 0.00248976
          0.00230047 0.00210104 0.0018921 0.00242625 0.0022416 0.00204662 0.00184199 0.00295892 0.00283676 0.00269707 0.00254175 0.00290192
          0.00278155 0.00264399 0.00249105 0.0023727 0.00219153 0.002 0.0017989 0.00232458 0.00214615 0.00195749 0.00167596 0.00144964
          0.00122031 0.00162995 0.00140811 0.00118324 0.000970177 0.000736373 0.000430877 0.00025732 0.000940386 0.000713033 0.000426477 0.000254924
          0.00159041 0.00137271 0.00115223 0.00175946 0.00155423 0.00134042 0.00112414 0.00091621 0.000695207 0.000423617 0.000256103 0.000894415
          0.000679065 0.000419968 0.000255042 0.00198401 0.00242501 0.00245754 0.00261914 0.0027356 0.0028517 0.00295097 0.00303212 0.00171362
          0.00238848 0.00235364 0.00256333 0.00141057 0.0023688 0.00224566 0.00251608 0.0026785 0.00280783 0.00291145 0.00299705 0.0026274
          0.00277416 0.00288294 0.00297471 0.0030924 0.00312957 0.00314276 0.00313152 0.00309622 0.00303769 0.0029572 0.00305935 0.00309751
          0.00311073 0.00303975 0.0030794 0.00309267 0.00309899 0.00306291 0.00300355 0.00292233 0.00308015 0.00304274 0.00298179 0.00289894
          0.00107603 0.00236782 0.00213519 0.00247929 0.000710462 0.00238704 0.00202367 0.00245479 0.00258393 0.0027523 0.00286678 0.00296625
          0.00254982 0.00274406 0.00286455 0.000313484 0.00242782 0.00191242 0.00244447 0.00252702 0.00297309 0.00275147 0.00287812 0.00299691
          0.00303447 0.00307588 0.003089 0.00304466 0.00308787 0.00310038 0.00307522 0.00303574 0.00297231 0.00288682 0.00308467 0.00304221
          0.00297525 0.00288602 0.00307172 0.00311649 0.00312763 0.00310903 0.00306246 0.00299076 0.00289652 0.00285628 0.00273667 0.00260018
          0.0024486 0.00228374 0.00210716 0.00192058 0.00172493 0.0028209 0.00270104 0.00256461 0.00241342 0.002796 0.00267488 0.00253749
          0.00238568 0.00224925 0.00207368 0.00188843 0.0016945 0.00222127 0.00204586 0.00186114 0.00166818 0.00152237 0.00131191 0.00109929
          0.000875033 0.00066444 0.000415617 0.000252483 0.00149401 0.00128628 0.00107671 0.00146908 0.00126338 0.00105613 0.000857046 0.000650248
          0.000409926 0.000247394 0.000840134 0.000636161 0.000402726 0.000239799 0.00278133 0.00265787 0.00251847 0.00236505 0.00277683 0.00264991
          0.00250742 0.00235137 0.00219947 0.00202333 0.00183834 0.00164562 0.00218365 0.0020059 0.00181983 0.00278237 0.00265078 0.00250407
          0.00234433 0.0021735 0.00162657 0.00199326 0.0018053 0.00161072 0.00144719 0.00124278 0.00103712 0.00142808 0.00122422 0.00101939
          0.000823854 0.000621778 0.000393782 0.000229516 0.000807952 0.000606899 0.000382995 0.000216587 0.00141146 0.00120741 0.00100269 0.000792194
          0.000591363 0.000370299 0.000201069 -0.000116309 0.0024915 0.00180267 0.00245038 -0.000581552 0.00257947 0.00169556 0.00247482 0.00251772
          0.00277688 0.00290968 0.0030397 0.00252448 0.00282303 0.00296182 0.00310379 -0.00108642 0.00269334 0.00159221 0.00252057 -0.00163706
          0.00283507 0.00149382 0.00259105 0.00255032 0.00289321 0.00303762 0.00319191 0.00259896 0.00299141 0.00314074 0.0031173 0.00316305
          0.00317174 0.00318334 0.00322909 0.00323381 0.003149 0.00309689 0.00301899 0.0029183 0.00320531 0.00314593 0.00306013 0.00295135
          0.00327209 0.00331634 0.0033151 0.00330725 0.00338611 0.00342677 0.00341697 0.00327877 0.00321002 0.00311431 0.00299557 0.00337023
          0.00328956 0.00318162 0.0030508 -0.00224229 0.00300723 0.00140183 0.00269069 0.00267501 0.00312252 0.00327559 0.00345356 -0.00291464
          0.00321337 0.00131812 0.00282534 -0.00367195 0.0034587 0.00124539 0.00300293 0.00278435 0.00329263 0.00344745 0.00363521 0.00293456
          0.00350935 0.00366268 0.00385731 0.00352835 0.00356251 0.00354083 0.00348051 0.0033849 0.00326199 0.00311671 0.00370213 0.00372589
          0.00368815 0.00391112 0.00391938 0.00386032 0.00361033 0.0034962 0.00335521 0.0031928 0.00376028 0.00362342 0.0034608 0.00327833
          0.00279783 0.00266028 0.00250814 0.00234362 0.00282302 0.00267811 0.0025193 0.00234887 0.00216871 0.00198508 0.00179441 0.00159778
          0.00216888 0.00198098 0.00178682 0.00158741 0.0028577 0.00270392 0.00253711 0.00235963 0.00290151 0.00273725 0.00256106 0.00237536
          0.00217356 0.00198053 0.00178211 0.00157925 0.00218223 0.00198322 0.00177984 0.00139704 0.00119209 0.000986787 0.00138452 0.001178
          0.000971491 0.000776416 0.000575085 0.000355692 0.0001831 0.000760483 0.000558025 0.000339218 0.000162862 0.0013736 0.00116491 0.000956624
          0.0015729 0.00136395 0.00115255 0.000942016 0.000744299 0.000540184 0.000320968 0.000140593 0.000727787 0.000521595 0.000301078 0.000116579
          0.00295397 0.00277751 0.00259051 0.00239541 0.00219425 0.00198849 0.00177951 0.00156794 0.0030144 0.00282393 0.00262467 0.00241902
          0.00308189 0.00287555 0.00266257 0.00244526 0.00220892 0.00199568 0.00178053 0.00156388 0.0022254 0.00200406 0.00178228 0.00156021
          0.00135522 0.00114066 0.000927506 0.000710891 0.000502322 0.000279723 9.11554e-05 0.00134703 0.00112899 0.000912933 0.00133897 0.00111722
          0.000898132 0.00069357 0.00048245 0.000257118 6.46988e-05 0.000675792 0.000462085 0.000233514 3.76261e-05 -0.00453987 0.00375129 0.00118771
          0.00323433 -0.00555577 0.00410421 0.00115145 0.00353473 0.00313548 0.00378223 0.00392897 0.00412573 0.00340005 0.00412331 0.00425547
          -0.00677437 0.00453941 0.00114662 0.0039255 0.00374524 0.00444718 0.00454771 0.00465309 0.00482916 0.00415939 0.00414546 0.00405857
          0.00445121 0.00440651 0.00428378 0.00393063 0.00376616 0.00357794 0.0033722 0.0041212 0.00392356 0.00370532 0.00347294 0.00479095
          0.00470455 0.00453624 0.00433116 0.00409408 0.00384108 0.00357853 -0.00827621 0.00509413 0.00118908 0.00443686 -0.01018 0.00583394
          0.00130361 0.00511171 0.00419336 0.00507435 0.00513451 0.00527973 0.00477367 0.00572666 0.00571419 0.00580714 -0.0126568 0.00686553
          0.00152851 0.006011 -0.0159571 0.00837786 0.00192845 0.00721741 0.00552388 0.00653328 0.00640768 0.00641886 0.00649441 0.00752724
          0.00723054 0.0051827 0.00504086 0.00481531 0.00562966 0.0054154 0.00511893 0.0045587 0.00427531 0.00398257 0.00368637 0.00480071
          0.00446371 0.00412626 0.00379313 0.00613319 0.00582602 0.00544299 0.00711988 0.00669128 0.00626726 0.00578056 0.00505232 0.00465433
          0.00426751 0.00389472 0.00530643 0.00484057 0.00440051 0.00398618 0.00315526 0.00293115 0.00270305 0.00247307 0.00323295 0.00298923
          0.00274472 0.00250117 0.00224271 0.00201278 0.00178405 0.00155634 0.00225976 0.00202091 0.00178505 0.003313 0.00304795 0.00278591
          0.00252813 0.0022753 0.00155166 0.00202739 0.00178444 0.00154549 0.0013306 0.00110507 0.000882933 0.00132144 0.00109221 0.000867156
          0.000657531 0.000441345 0.000209193 1.0387e-05 0.000638765 0.000420358 0.000184461 -1.65437e-05 0.001311 0.00107828 0.000850609 0.00061947
          0.000399253 0.000159648 -4.26758e-05 0.00339296 0.00310512 0.00282471 0.0025523 0.00346988 0.00315816 0.00285894 0.00257186 0.00228797
          0.00203111 0.0017813 0.00153712 0.00229626 0.00203085 0.00177467 0.00152579 0.00354021 0.00320411 0.00288614 0.00258482 0.00359986
          0.00323965 0.00290366 0.00258908 0.00229857 0.00202533 0.00176355 0.00151075 0.00229325 0.00201328 0.00174695 0.00129872 0.00106293
          0.000833091 0.00128407 0.00104579 0.000814389 0.00059962 0.000378159 0.000135092 -6.75156e-05 0.000579179 0.000357194 0.000111139 -9.0579e-05
          0.00126647 0.00102648 0.000794281 0.00149125 0.00124538 0.0010046 0.000772536 0.000558102 0.000336461 8.81219e-05 -0.000111406 0.000536327
          0.000316038 6.63576e-05 -0.000129576 1.00006 0.999928 0.999666 0.999462 0.999228 1.00008 0.999006 0.998772 0.998536
          0.998291 0.99994 1.00009 0.999683 0.99948 0.99925 0.999951 0.9997 1.0001 0.999499 0.999272 0.999029
          0.998797 0.998562 0.998317 0.999054 0.998825 0.998592 0.998348 0.998036 0.99777 0.997489 0.99719 0.996871
          0.996527 0.996155 0.998062 0.997793 0.997509 0.998094 0.997826 0.997539 0.997204 0.996876 0.996518 0.996126
          0.997231 0.996896 0.996528 0.996119 0.999961 0.999716 1.00011 0.999519 0.999297 0.999968 0.999733 0.999541
          0.999324 0.999082 0.998857 0.998627 0.998386 0.999114 0.998892 0.998667 1.00012 0.999975 0.99975 0.999563
          0.999352 1.00012 0.999148 0.99843 0.998932 0.998712 0.998481 0.998134 0.997867 0.997582 0.998183 0.99792
          0.997638 0.997273 0.996935 0.996559 0.996138 0.997331 0.996994 0.996616 0.996189 0.998239 0.997982 0.997706
          0.997406 0.997073 0.996699 0.996272 0.99575 0.99531 0.994832 0.994318 0.99377 0.993203 0.99264 0.992127
          0.995693 0.995214 0.994682 0.994094 0.995662 0.995147 0.994564 0.993904 0.993448 0.99275 0.99201 0.991275
          0.993157 0.992321 0.991396 0.990414 0.991763 0.991517 0.992384 0.991531 0.999875 0.987762 1.02119 0.99057
          0.990077 0.989955 0.989387 0.988541 0.98778 0.989927 0.994989 0.988126 1.02426 0.988182 0.990256 0.988773
          1.01523 0.995661 0.995116 0.994487 0.993759 0.9957 0.995132 0.994466 0.993681 0.992915 0.991939 0.990814
          0.989546 0.992748 0.991639 0.99032 0.995778 0.995197 0.994506 0.993675 0.992669 0.988765 0.991444 0.989945
          0.988115 0.988117 0.986655 0.984925 0.986937 0.984877 0.982521 0.984087 0.980786 0.986951 0.971877 0.980461
          0.978165 0.980117 0.989631 0.985879 0.983197 0.979917 0.976297 0.970919 0.968862 0.941144 0.99998 1.00013
          0.999768 0.999587 0.999384 0.999984 0.999786 1.00013 0.999613 0.999418 0.999185 0.998976 0.998762 0.998539
          0.999225 0.999023 0.998816 0.9986 0.99999 0.99981 1.00013 0.999644 0.999457 0.999995 0.999833 0.999674
          0.999495 0.999271 0.999076 0.998878 0.998672 0.999314 0.999126 0.998935 0.998305 0.998057 0.99779 0.998376
          0.998138 0.997883 0.9975 0.997178 0.996814 0.996397 0.997606 0.997299 0.996951 0.996549 0.998459 0.998236
          0.997998 0.998739 0.998537 0.998326 0.998105 0.99774 0.997456 0.997134 0.996763 0.997866 0.997604 0.997309