<?xml version="1.0"?>
<VTKFile type="UnstructuredGrid" version="0.1" byte_order="LittleEndian">
  <UnstructuredGrid>
    <Piece NumberOfCells="1928" NumberOfPoints="999">
      <PointData Scalars="S_aq">
        <DataArray type="Float32" Name="S_aq" NumberOfComponents="1" format="ascii">
          1 1 1 1 1 1 0.932547 0.999891 0.993308 1 1 1
          1 1 1 1 1 1 1 1 1 1 1 1
          1 1 1 1 1 1 1 1 1 1 1 1
          1 1 1 1 1 1 1 1 1 1 1 1
          1 1 1 1 1 1 1 1 0.999939 1 1 1
          1 1 1 0.991596 0.971823 0.762802 1 1 1 1 1 1
          1 1 1 1 1 1 1 1 1 1 1 1
          1 1 1 1 1 1 1 1 1 1 1 1
          1 1 1 1 1 1 1 1 1 1 1 1
          1 1 1 1 1 1 1 1 1 1 1 1
          1 1 1 1 1 1 0.882105 0.786888 1 1 1 1
          1 1 1 0.999905 0.931791 0.998987 1 1 1 1 1 1
          1 1 1 1 1 1 0.999997 0.999997 1 1 1 1
          1 1 1 1 1 1 1 1 1 1 1 1
          1 1 1 1 1 1 1 1 1 1 1 1
          1 1 1 1 1 1 1 1 1 1 1 1
          1 1 1 0.941732 1 1 1 1 1 1 1 1
          1 1 1 1 1 1 1 1 1 1 1 1
          1 1 1 1 1 1 0.977337 0.999997 0.996679 1 1 1
          1 1 1 1 1 1 1 1 1 1 1 1
          1 1 1 1 1 0.673953 0.5 0.781671 1 1 1 1
          1 1 1 1 1 0.813837 1 1 1 1 1 1
          1 1 1 0.98352 0.99991 0.921048 1 1 1 1 0.9994 1
          1 1 0.869159 0.944115 0.693727 1 1 1 1 1 1 1
          1 0.96541 0.743021 0.974461 1 1 1 1 1 1 1 1
          1 1 1 1 1 0.874464 1 1 1 1 1 1
          1 1 1 1 1 1 0.998775 1 1 1 1 1
          1 1 1 1 1 1 1 1 1 1 1 1
          1 1 1 1 1 1 1 1 0.5 0.5 0.668732 1
          1 1 1 1 1 0.710699 1 1 1 1 1 0.999065
          0.964378 0.999985 0.611313 0.5 0.5 1 1 1 1 1 1 1
          1 1 1 1 1 1 1 1 1 1 1 1
          1 1 1 1 1 1 1 1 1 1 1 1
          1 1 1 1 1 1 1 1 1 1 1 1
          1 1 1 1 1 1 1 1 0.647357 1 1 1
          1 0.994325 1 1 1 1 0.999988 1 0.995277 1 1 1
          1 1 1 1 1 1 1 1 1 1 1 1
          1 1 1 1 1 1 1 1 1 1 1 1
          1 1 1 1 1 1 1 1 1 0.770479 1 1
          1 1 1 1 1 1 1 1 1 1 1 1
          1 1 1 1 1 1 1 1 1 1 1 1
          1 1 1 1 1 1 1 1 1 1 0.999847 1
          1 1 1 1 1 1 1 1 0.625581 0.999986 1 1
          1 1 1 0.730948 1 1 1 1 1 1 1 1
          1 1 1 0.822557 1 1 1 1 1 1 1 1
          1 1 1 1 1 1 1 1 1 1 1 1
          1 1 1 1 1 1 1 1 1 1 1 1
          1 1 1 1 1 1 1 1 0.676949 1 1 1
          1 1 1 1 1 1 1 1 1 1 1 1
          1 1 1 1 1 1 1 1 1 1 1 1
          1 1 1 1 1 1 1 1 1 1 1 1
          1 1 1 1 1 1 1 0.973524 1 1 1 1
          1 1 1 1 1 1 0.5 0.5 1 1 1 1
          1 1 1 1 1 1 1 1 1 1 1 1
          1 1 1 1 1 1 1 1 0.743348 0.5 0.674246 1
          1 1 1 1 1 1 1 1 1 1 1 1
          1 1 1 1 1 1 1 1 1 1 1 1
          1 1 1 1 0.98483 1 0.758808 1 1 1 1 1
          1 1 1 1 1 1 1 1 1 1 1 1
          1 1 1 1 1 1 1 0.727915 0.5 1 1 1
          1 1 1 0.999997 1 1 1 0.663356 1 1 1 0.5
          1 0.996901 1 1 1 1 0.734544 1 1 1 1 1
          1 1 1 1 1 1 1 1 1 1 1 1
          1 1 1 1 1 1 1 1 1 1 1 1
          1 1 1 1 1 1 1 1 1 1 0.689549 1
          1 1 1 1 1 1 1 1 1 1 1 1
          1 1 1 1 1 1 1 1 0.624912 0.5 0.651755 1
          1 1 0.5 0.683909 1 1 1 1 0.605253 1 1 1
          1 1 1 1 1 0.5 1 1 1 0.714013 0.957436 0.871511
          0.999322 1 1 1 1 1 1 0.845893 1 0.5 1 1
          1 1 1 1 1 1 1 1 1 1 1 1
          1 1 1 1 1 1 1 1 1 1 1 1
          1 1 1 1 1 0.951098 0.861681 1 1 1 1 1
          1 1 1 1 1 1 1 1 1 1 1 0.5
          1 1 1 1 1 1 1 1 1 1 1 1
          1 1 1 1 1 1 1 0.5 0.678478 1 1 0.99919
          0.977558 1 1 0.5 0.598157 1 1 0.5 0.587882 0.5 1 1
          1 1 1 1 0.5 1 1 1 1 1 1 1
          1 1 1 1 0.706787 1 1 1 1 1 1 0.768798
          0.598373 1 1 1 1 1 1 1 1 1 1 1
          0.898026 1 1 1 1 1 1 1 1 1 1 1
          1 1 1 1 1 1 1 1 1 1 1 1
          1 1 1 1 1 1 1 1 0.999958 1 1 0.627123
          1 1 1
        </DataArray>
        <DataArray type="Float32" Name="p_aq" NumberOfComponents="1" format="ascii">
          163211 165814 163622 116066 123422 118844 186468 180516 180412 146983 149109 147444
          149639 167056 122813 164526 162865 167368 162981 142749 142564 140919 106730 111303
          111904 134766 131469 134196 137977 140081 138599 163235 158851 158348 126538 127589
          128405 160869 163737 160994 103732 108121 106386 150449 148443 149911 147659 136602
          138177 135416 144638 142810 144912 169187 171860 169589 183099 181419 179626 146551
          137862 136895 138920 179209 181373 195085 166841 152556 143578 146402 134713 133789
          131884 163054 164522 161976 147482 149139 162898 165968 180948 133630 131312 130625
          152057 158079 160367 160988 128825 129301 131574 151369 151351 141220 139928 142933
          114127 119657 119155 153018 141970 144074 145112 152265 153516 154644 118845 119410
          122416 144150 141409 143665 141368 140713 161181 142098 139867 140089 149787 151239
          148964 149168 141204 139688 138930 148386 186903 191755 156788 155432 157694 140191
          138070 138032 135863 181591 186323 182098 141522 146134 158078 157469 159006 161942
          129604 158696 173483 169290 169868 156003 177839 175162 134673 132705 134327 155328
          156748 154061 157934 163815 167390 156876 159223 137439 158081 159771 152375 165850
          167406 144698 163409 139850 156952 112948 107114 126008 122460 127361 148442 147115
          151320 157776 155796 155730 169827 172294 172211 132675 159448 161973 160225 120578
          123075 123763 141733 184020 139200 151630 154937 153816 174356 176727 176985 136604
          138189 138992 160994 160741 163136 127318 129279 152915 149679 106786 109275 105589
          135177 136662 150380 145961 144396 122738 181426 176149 177503 167372 170875 167651
          167824 144266 145706 148699 153422 145646 172060 158448 154250 150759 173393 176142
          176614 164728 166142 160276 154114 196562 200000 191448 164086 162896 166172 128200
          129352 130339 126163 125373 122199 188980 162751 156881 159201 157652 141033 138749
          138095 122327 126205 185471 181534 186455 153387 133775 135353 133088 176840 121257
          122019 123748 189299 187378 194866 144328 162436 162659 128561 131161 129250 134603
          158947 186128 193471 185099 130182 141703 143700 143285 143370 175701 122289 133530
          135678 135014 142153 144422 143778 187954 131998 132683 129999 146145 146650 144146
          145261 164086 169322 165305 135637 136479 183510 156771 178814 132950 131576 131811
          138435 139659 139244 142484 147342 132813 130219 165952 164852 163848 139672 142024
          140151 146692 148083 162207 147248 149740 150701 170227 200000 200000 196808 127878
          126380 125247 127634 130609 130280 197250 146753 157685 168725 165956 135557 184229
          186338 183469 198044 200000 200000 142681 147163 140662 142641 144815 143848 130824
          168846 166324 106536 110192 105521 127477 128918 143964 139665 137726 151555 120286
          116224 115063 113252 134613 141152 167599 156027 158207 121269 118957 116162 152571
          149562 150413 118999 116590 141956 146244 144657 143997 129938 179483 181064 178703
          148272 112578 108568 113837 138116 138288 140390 124199 196551 140842 139885 138553
          179387 182156 177544 175431 173974 169723 182733 182457 184957 172527 167162 171649
          164522 112508 111677 112782 133503 135812 122691 158854 156065 163905 163190 100000
          100000 154616 140796 124533 137777 136235 165767 169920 148108 141441 139482 136605
          171712 111593 172542 133591 113679 116646 122194 123208 120737 192721 132074 131502
          145031 152396 133558 124522 126586 122351 127423 125093 136787 138579 152575 170387
          121887 124840 127194 140661 152170 124835 138659 136019 136940 105872 144721 133818
          135541 132318 129198 120184 117509 145824 169472 167872 118607 123347 181615 140057
          127267 146941 108535 169516 129267 136121 151174 141911 198254 176801 171318 128577
          154099 131433 148148 192702 167504 166389 113923 115479 113300 141627 161491 161245
          163652 159914 137618 189856 147920 178492 174905 176371 174058 144582 148491 147202
          153943 155892 151113 170397 173973 169277 142291 153284 155072 119618 173147 122451
          160743 158410 155614 136185 171760 170965 177289 126185 126129 122525 170078 159985
          156024 159465 134736 135420 132708 175236 171929 173796 195028 132784 145557 145278
          155857 145019 117512 121281 155965 154306 135194 132362 135413 137327 138958 117910
          145389 143339 136104 126387 159456 161540 126393 155888 177111 153621 134126 131872
          158087 162240 164975 174620 177985 146451 136394 158635 159309 158515 142367 163001
          148179 147699 155836 133701 133866 124413 134049 182360 158506 110783 167194 155234
          166071 127079 124949 123977 129697 129799 200000 200000 142811 142451 139915 141436
          127564 171775 152082 150889 153871 143213 146773 137455 154124 132752 135235 147004
          137441 157588 160229 165353 160746 146137 141439 128706 192688 200000 196376 174083
          131252 132886 130937 106426 112088 129451 124108 132748 131426 126443 168635 129504
          100000 130618 150441 179014 111121 109162 111982 135300 136086 169795 100000 143595
          147855 158784 176356 129630 181934 100000 192475 152241 152401 150280 165275 133791
          142285 161336 136963 136314 147166 141677 126607 136895 133294 124559 100000 118349
          171433 149854 152553 140509 170888 120160 154524 196469 200000 177767 122280 144456
          159971 159713 149533 179669 173039 173593 150473 197575 117674 129756 122117 200000
          114590 182593 136234 137810 157550 160623 195103 140230 134573 139608 173389 182081
          142533 140479 157111 150870 173271 158365 137274 141939 143704 147061 123494 120900
          123220 146201 117659 119838 116027 117128 108496 113586 110053 152015 130948 132575
          168379 178600 123382 117717 118718 170650 131691 129818 148646 146392 197744 134136
          115245 117899 139069 176035 127481 125823 125137 134899 149721 130618 131445 116279
          115901 118435 134857 152692 136655 132257 130580 168078 198205 200000 196597 139376
          100000 136656 200000 196558 120982 121712 138395 110614 198711 154178 141455 173538
          138136 131479 112497 107720 160187 200000 149544 148195 160486 196308 183101 187155
          177758 125054 125583 157246 100000 129188 100000 188773 138080 200000 133368 134053
          131669 136934 150701 161272 150476 173184 154305 152172 154685 135811 117419 155496
          150111 132469 138006 137756 180159 175568 137664 121377 134183 132442 151530 132704
          127433 128947 161734 100000 125992 187091 189026 172878 115207 155630 156828 155789
          129445 177358 132982 175967 125976 143682 149023 147712 153644 166137 153887 200000
          124450 136005 146231 114439 117386 141453 151491 151951 153538 146805 174827 144075
          136272 138675 131725 161853 128116 126509 159810 200000 197070 157739 129140 175557
          183646 129697 143064 200000 198616 112464 112891 200000 199019 200000 179975 177913
          150042 155959 139403 145251 200000 137000 127718 134927 139919 159569 154036 169523
          167572 100000 133234 123990 194482 166805 150246 160135 133650 149950 161831 191758
          198716 148033 153219 154815 119830 164923 131035 145019 156250 139733 163585 165398
          188463 146776 165888 148252 177731 113825 120742 138612 172495 160504 124967 146013
          129134 164110 127489 128951 134565 125509 115440 145791 117100 150956 173585 125494
          159756 163471 128288 156169 144109 140039 142153 148035 177957 105683 118784 197570
          163557 167524 138340
        </DataArray>
        <DataArray type="Float32" Name="rho_aq" NumberOfComponents="1" format="ascii">
          1000 1000 1000 1000 1000 1000 1000 1000 1000 1000 1000 1000
          1000 1000 1000 1000 1000 1000 1000 1000 1000 1000 1000 1000
          1000 1000 1000 1000 1000 1000 1000 1000 1000 1000 1000 1000
          1000 1000 1000 1000 1000 1000 1000 1000 1000 1000 1000 1000
          1000 1000 1000 1000 1000 1000 1000 1000 1000 1000 1000 1000
          1000 1000 1000 1000 1000 1000 1000 1000 1000 1000 1000 1000
          1000 1000 1000 1000 1000 1000 1000 1000 1000 1000 1000 1000
          1000 1000 1000 1000 1000 1000 1000 1000 1000 1000 1000 1000
          1000 1000 1000 1000 1000 1000 1000 1000 1000 1000 1000 1000
          1000 1000 1000 1000 1000 1000 1000 1000 1000 1000 1000 1000
          1000 1000 1000 1000 1000 1000 1000 1000 1000 1000 1000 1000
          1000 1000 1000 1000 1000 1000 1000 1000 1000 1000 1000 1000
          1000 1000 1000 1000 1000 1000 1000 1000 1000 1000 1000 1000
          1000 1000 1000 1000 1000 1000 1000 1000 1000 1000 1000 1000
          1000 1000 1000 1000 1000 1000 1000 1000 1000 1000 1000 1000
          1000 1000 1000 1000 1000 1000 1000 1000 1000 1000 1000 1000
          1000 1000 1000 1000 1000 1000 1000 1000 1000 1000 1000 1000
          1000 1000 1000 1000 1000 1000 1000 1000 1000 1000 1000 1000
          1000 1000 1000 1000 1000 1000 1000 1000 1000 1000 1000 1000
          1000 1000 1000 1000 1000 1000 1000 1000 1000 1000 1000 1000
          1000 1000 1000 1000 1000 1000 1000 1000 1000 1000 1000 1000
          1000 1000 1000 1000 1000 1000 1000 1000 1000 1000 1000 1000
          1000 1000 1000 1000 1000 1000 1000 1000 1000 1000 1000 1000
          1000 1000 1000 1000 1000 1000 1000 1000 1000 1000 1000 1000
          1000 1000 1000 1000 1000 1000 1000 1000 1000 1000 1000 1000
          1000 1000 1000 1000 1000 1000 1000 1000 1000 1000 1000 1000
          1000 1000 1000 1000 1000 1000 1000 1000 1000 1000 1000 1000
          1000 1000 1000 1000 1000 1000 1000 1000 1000 1000 1000 1000
          1000 1000 1000 1000 1000 1000 1000 1000 1000 1000 1000 1000
          1000 1000 1000 1000 1000 1000 1000 1000 1000 1000 1000 1000
          1000 1000 1000 1000 1000 1000 1000 1000 1000 1000 1000 1000
          1000 1000 1000 1000 1000 1000 1000 1000 1000 1000 1000 1000
          1000 1000 1000 1000 1000 1000 1000 1000 1000 1000 1000 1000
          1000 1000 1000 1000 1000 1000 1000 1000 1000 1000 1000 1000
          1000 1000 1000 1000 1000 1000 1000 1000 1000 1000 1000 1000
          1000 1000 1000 1000 1000 1000 1000 1000 1000 1000 1000 1000
          1000 1000 1000 1000 1000 1000 1000 1000 1000 1000 1000 1000
          1000 1000 1000 1000 1000 1000 1000 1000 1000 1000 1000 1000
          1000 1000 1000 1000 1000 1000 1000 1000 1000 1000 1000 1000
          1000 1000 1000 1000 1000 1000 1000 1000 1000 1000 1000 1000
          1000 1000 1000 1000 1000 1000 1000 1000 1000 1000 1000 1000
          1000 1000 1000 1000 1000 1000 1000 1000 1000 1000 1000 1000
          1000 1000 1000 1000 1000 1000 1000 1000 1000 1000 1000 1000
          1000 1000 1000 1000 1000 1000 1000 1000 1000 1000 1000 1000
          1000 1000 1000 1000 1000 1000 1000 1000 1000 1000 1000 1000
          1000 1000 1000 1000 1000 1000 1000 1000 1000 1000 1000 1000
          1000 1000 1000 1000 1000 1000 1000 1000 1000 1000 1000 1000
          1000 1000 1000 1000 1000 1000 1000 1000 1000 1000 1000 1000
          1000 1000 1000 1000 1000 1000 1000 1000 1000 1000 1000 1000
          1000 1000 1000 1000 1000 1000 1000 1000 1000 1000 1000 1000
          1000 1000 1000 1000 1000 1000 1000 1000 1000 1000 1000 1000
          1000 1000 1000 1000 1000 1000 1000 1000 1000 1000 1000 1000
          1000 1000 1000 1000 1000 1000 1000 1000 1000 1000 1000 1000
          1000 1000 1000 1000 1000 1000 1000 1000 1000 1000 1000 1000
          1000 1000 1000 1000 1000 1000 1000 1000 1000 1000 1000 1000
          1000 1000 1000 1000 1000 1000 1000 1000 1000 1000 1000 1000
          1000 1000 1000 1000 1000 1000 1000 1000 1000 1000 1000 1000
          1000 1000 1000 1000 1000 1000 1000 1000 1000 1000 1000 1000
          1000 1000 1000 1000 1000 1000 1000 1000 1000 1000 1000 1000
          1000 1000 1000 1000 1000 1000 1000 1000 1000 1000 1000 1000
          1000 1000 1000 1000 1000 1000 1000 1000 1000 1000 1000 1000
          1000 1000 1000 1000 1000 1000 1000 1000 1000 1000 1000 1000
          1000 1000 1000 1000 1000 1000 1000 1000 1000 1000 1000 1000
          1000 1000 1000 1000 1000 1000 1000 1000 1000 1000 1000 1000
          1000 1000 1000 1000 1000 1000 1000 1000 1000 1000 1000 1000
          1000 1000 1000 1000 1000 1000 1000 1000 1000 1000 1000 1000
          1000 1000 1000 1000 1000 1000 1000 1000 1000 1000 1000 1000
          1000 1000 1000 1000 1000 1000 1000 1000 1000 1000 1000 1000
          1000 1000 1000 1000 1000 1000 1000 1000 1000 1000 1000 1000
          1000 1000 1000 1000 1000 1000 1000 1000 1000 1000 1000 1000
          1000 1000 1000 1000 1000 1000 1000 1000 1000 1000 1000 1000
          1000 1000 1000 1000 1000 1000 1000 1000 1000 1000 1000 1000
          1000 1000 1000 1000 1000 1000 1000 1000 1000 1000 1000 1000
          1000 1000 1000 1000 1000 1000 1000 1000 1000 1000 1000 1000
          1000 1000 1000 1000 1000 1000 1000 1000 1000 1000 1000 1000
          1000 1000 1000 1000 1000 1000 1000 1000 1000 1000 1000 1000
          1000 1000 1000 1000 1000 1000 1000 1000 1000 1000 1000 1000
          1000 1000 1000 1000 1000 1000 1000 1000 1000 1000 1000 1000
          1000 1000 1000 1000 1000 1000 1000 1000 1000 1000 1000 1000
          1000 1000 1000 1000 1000 1000 1000 1000 1000 1000 1000 1000
          1000 1000 1000 1000 1000 1000 1000 1000 1000 1000 1000 1000
          1000 1000 1000 1000 1000 1000 1000 1000 1000 1000 1000 1000
          1000 1000 1000 1000 1000 1000 1000 1000 1000 1000 1000 1000
          1000 1000 1000
        </DataArray>
        <DataArray type="Float32" Name="mob_aq" NumberOfComponents="1" format="ascii">
          1000 1000 1000 1000 1000 1000 709.38 999.471 967.754 1000 1000 1000
          1000 1000 1000 1000 1000 1000 1000 1000 1000 1000 1000 1000
          1000 1000 1000 1000 1000 1000 1000 1000 1000 1000 1000 1000
          1000 1000 1000 1000 1000 1000 1000 1000 1000 1000 1000 1000
          1000 1000 1000 1000 1000 1000 1000 1000 999.703 1000 1000 1000
          1000 1000 1000 959.633 869.475 255.169 1000 1000 1000 1000 1000 1000
          1000 1000 1000 1000 1000 1000 1000 1000 1000 1000 1000 1000
          1000 1000 1000 1000 1000 1000 1000 1000 1000 1000 1000 1000
          1000 1000 1000 1000 1000 1000 1000 1000 1000 1000 1000 1000
          1000 1000 1000 1000 1000 1000 1000 1000 1000 1000 1000 1000
          1000 1000 1000 1000 1000 1000 537.469 300.04 1000 1000 1000 1000
          1000 1000 1000 999.537 706.535 995.07 1000 1000 1000 1000 1000 1000
          1000 1000 1000 1000 1000 1000 999.987 999.986 1000 1000 1000 1000
          1000 1000 1000 1000 1000 1000 1000 1000 1000 1000 1000 1000
          1000 1000 1000 1000 1000 1000 1000 1000 1000 1000 1000 1000
          1000 1000 1000 1000 1000 1000 1000 1000 1000 1000 1000 1000
          1000 1000 1000 744.651 1000 1000 1000 1000 1000 1000 1000 1000
          1000 1000 1000 1000 1000 1000 1000 1000 1000 1000 1000 1000
          1000 1000 1000 1000 1000 1000 893.949 999.987 983.898 1000 1000 1000
          1000 1000 1000 1000 1000 1000 1000 1000 1000 1000 1000 1000
          1000 1000 1000 1000 1000 131.67 23.1923 289.855 1000 1000 1000 1000
          1000 1000 1000 1000 1000 356.99 1000 1000 1000 1000 1000 1000
          1000 1000 1000 921.999 999.562 667.008 1000 1000 1000 1000 997.075 1000
          1000 1000 498.909 754.013 154.054 1000 1000 1000 1000 1000 1000 1000
          1000 841.647 222.251 881.119 1000 1000 1000 1000 1000 1000 1000 1000
          1000 1000 1000 1000 1000 514.451 1000 1000 1000 1000 1000 1000
          1000 1000 1000 1000 1000 1000 994.037 1000 1000 1000 1000 1000
          1000 1000 1000 1000 1000 1000 1000 1000 1000 1000 1000 1000
          1000 1000 1000 1000 1000 1000 1000 1000 23.1923 23.1923 126.191 1000
          1000 1000 1000 1000 1000 175.444 1000 1000 1000 1000 1000 995.445
          837.231 999.925 76.5448 23.1923 23.1923 1000 1000 1000 1000 1000 1000 1000
          1000 1000 1000 1000 1000 1000 1000 1000 1000 1000 1000 1000
          1000 1000 1000 1000 1000 1000 1000 1000 1000 1000 1000 1000
          1000 1000 1000 1000 1000 1000 1000 1000 1000 1000 1000 1000
          1000 1000 1000 1000 1000 1000 1000 1000 105.521 1000 1000 1000
          1000 972.604 1000 1000 1000 1000 999.943 1000 977.158 1000 1000 1000
          1000 1000 1000 1000 1000 1000 1000 1000 1000 1000 1000 1000
          1000 1000 1000 1000 1000 1000 1000 1000 1000 1000 1000 1000
          1000 1000 1000 1000 1000 1000 1000 1000 1000 268.883 1000 1000
          1000 1000 1000 1000 1000 1000 1000 1000 1000 1000 1000 1000
          1000 1000 1000 1000 1000 1000 1000 1000 1000 1000 1000 1000
          1000 1000 1000 1000 1000 1000 1000 1000 1000 1000 999.255 1000
          1000 1000 1000 1000 1000 1000 1000 1000 87.1866 999.931 1000 1000
          1000 1000 1000 203.792 1000 1000 1000 1000 1000 1000 1000 1000
          1000 1000 1000 377.044 1000 1000 1000 1000 1000 1000 1000 1000
          1000 1000 1000 1000 1000 1000 1000 1000 1000 1000 1000 1000
          1000 1000 1000 1000 1000 1000 1000 1000 1000 1000 1000 1000
          1000 1000 1000 1000 1000 1000 1000 1000 134.894 1000 1000 1000
          1000 1000 1000 1000 1000 1000 1000 1000 1000 1000 1000 1000
          1000 1000 1000 1000 1000 1000 1000 1000 1000 1000 1000 1000
          1000 1000 1000 1000 1000 1000 1000 1000 1000 1000 1000 1000
          1000 1000 1000 1000 1000 1000 1000 876.97 1000 1000 1000 1000
          1000 1000 1000 1000 1000 1000 23.1923 23.1923 1000 1000 1000 1000
          1000 1000 1000 1000 1000 1000 1000 1000 1000 1000 1000 1000
          1000 1000 1000 1000 1000 1000 1000 1000 222.767 23.1923 131.983 1000
          1000 1000 1000 1000 1000 1000 1000 1000 1000 1000 1000 1000
          1000 1000 1000 1000 1000 1000 1000 1000 1000 1000 1000 1000
          1000 1000 1000 1000 928.029 1000 248.247 1000 1000 1000 1000 1000
          1000 1000 1000 1000 1000 1000 1000 1000 1000 1000 1000 1000
          1000 1000 1000 1000 1000 1000 1000 199.341 23.1923 1000 1000 1000
          1000 1000 1000 999.987 1000 1000 1000 120.729 1000 1000 1000 23.1923
          1000 984.97 1000 1000 1000 1000 209.164 1000 1000 1000 1000 1000
          1000 1000 1000 1000 1000 1000 1000 1000 1000 1000 1000 1000
          1000 1000 1000 1000 1000 1000 1000 1000 1000 1000 1000 1000
          1000 1000 1000 1000 1000 1000 1000 1000 1000 1000 149.103 1000
          1000 1000 1000 1000 1000 1000 1000 1000 1000 1000 1000 1000
          1000 1000 1000 1000 1000 1000 1000 1000 86.6642 23.1923 109.549 1000
          1000 1000 23.1923 142.611 1000 1000 1000 1000 72.3329 1000 1000 1000
          1000 1000 1000 1000 1000 23.1923 1000 1000 1000 179.867 807.986 505.757
          996.698 1000 1000 1000 1000 1000 1000 434.872 1000 23.1923 1000 1000
          1000 1000 1000 1000 1000 1000 1000 1000 1000 1000 1000 1000
          1000 1000 1000 1000 1000 1000 1000 1000 1000 1000 1000 1000
          1000 1000 1000 1000 1000 781.957 477.605 1000 1000 1000 1000 1000
          1000 1000 1000 1000 1000 1000 1000 1000 1000 1000 1000 23.1923
          1000 1000 1000 1000 1000 1000 1000 1000 1000 1000 1000 1000
          1000 1000 1000 1000 1000 1000 1000 23.1923 136.562 1000 1000 996.056
          894.941 1000 1000 23.1923 67.6241 1000 1000 23.1923 61.2183 23.1923 1000 1000
          1000 1000 1000 1000 23.1923 1000 1000 1000 1000 1000 1000 1000
          1000 1000 1000 1000 170.328 1000 1000 1000 1000 1000 1000 265.833
          67.7639 1000 1000 1000 1000 1000 1000 1000 1000 1000 1000 1000
          587.904 1000 1000 1000 1000 1000 1000 1000 1000 1000 1000 1000
          1000 1000 1000 1000 1000 1000 1000 1000 1000 1000 1000 1000
          1000 1000 1000 1000 1000 1000 1000 1000 999.793 1000 1000 88.3998
          1000 1000 1000
        </DataArray>
        <DataArray type="Float32" Name="S_napl" NumberOfComponents="1" format="ascii">
          0 0 -0 -0 -0 -0 0.0674532 0.000108513 0.00669191 0 0 0
          0 -0 -0 1.04866e-32 -0 2.81694e-32 -0 0 0 0 0 0
          0 -0 -0 -0 -0 -0 -0 -0 0 0 0 0
          0 0 -0 0 0 0 -0 -0 -0 -0 -0 -0
          -0 -0 -0 -0 -0 -0 -0 -0 6.08774e-05 1.21553e-10 2.89583e-14 -0
          0 0 0 0.0084036 0.0281769 0.237198 -0 -0 -0 -0 0 0
          0 0 0 0 -0 -0 0 0 3.97689e-10 -0 -0 -0
          -0 0 0 0 -0 -0 0 -0 0 0 0 0
          -0 -0 -0 0 -0 -0 -0 0 0 0 0 0
          0 0 0 -0 -0 -0 -0 0 -0 -0 0 0
          0 -0 -0 -0 -0 -0 0.117895 0.213112 -0 -0 -0 -0
          -0 -0 0 9.49432e-05 0.0682089 0.00101251 -0 -0 0 0 0 -0
          0 0 3.36383e-24 -0 -0 0 2.56276e-06 2.80523e-06 0 0 0 0
          0 0 0 -0 1.24629e-33 0 0 -0 -0 -0 0 -0
          -0 0 -0 0 0 -0 -0 -0 -0 -0 -0 -0
          0 0 0 0 0 0 0 -0 0 0 0 0
          0 0 -0 0.0582682 0 -0 -0 -0 -0 0 -0 -0
          -0 -0 0 0 0 -0 -0 -0 -0 0 0 0
          -0 0 -0 -0 -0 -0 0.0226629 2.68768e-06 0.00332113 -0 0 0
          0 0 0 0 0 0 0 0 0 0 1.27402e-24 3.94969e-25
          2.34367e-08 0 0 0 0 0.326047 0.5 0.218329 0 0 -0 -0
          -0 0 -0 -0 -0 0.186163 0 -0 -0 -0 0 0
          0 -0 -0 0.0164804 8.97708e-05 0.0789516 -0 -0 -0 -0 0.000600289 0
          0 0 0.130841 0.0558852 0.306273 -0 0 0 0 -0 -0 0
          0 0.0345901 0.256979 0.0255392 -0 0 0 0 0 2.21464e-18 -0 -0
          -0 -0 -0 -0 -0 0.125536 -0 -0 -0 0 0 -0
          0 -0 1.10554e-26 -0 -0 -0 0.00122508 -0 3.48151e-31 0 -0 -0
          -0 0 0 0 -0 0 0 0 0 0 -0 -0
          -0 0 0 0 0 0 0 0 0.5 0.5 0.331268 0
          0 0 -0 -0 -0 0.289301 0 0 0 0 -0 0.000935274
          0.0356223 1.5464e-05 0.388687 0.5 0.5 -0 0 -0 -0 0 0 -0
          -0 -0 0 0 0 0 0 0 -0 -0 0 -0
          0 0 0 -0 0 0 0 0 0 0 0 0
          -0 -0 0 0 -0 -0 -0 -0 -0 7.895e-31 5.43721e-16 0
          0 0 0 0 0 0 0 0 0.352643 -0 -0 -0
          1.67389e-08 0.00567481 4.40624e-13 1.9488e-38 0 4.79594e-11 1.17596e-05 2.88169e-08 0.00472322 2.35173e-11 7.53917e-34 1.4786e-16
          0 -0 0 -0 -0 -0 0 0 -0 0 0 0
          0 -0 0 -0 0 -0 0 2.49939e-33 0 -0 -0 -0
          2.56967e-11 0 1.93177e-23 -0 -0 0 0 0 0 0.229521 -0 0
          -0 0 -0 -0 -0 -0 -0 -0 0 0 0 -0
          0 0 0 -0 0 -0 -0 -0 -0 0 0 -0
          -0 -0 -0 -0 -0 0 0 0 0 -0 0.000152681 0
          -0 -0 -0 0 -0 0 -0 -0 0.374419 1.41528e-05 0 -0
          0 -0 -0 0.269052 0 0 0 0 0 0 0 0
          0 0 -0 0.177443 -0 4.51031e-13 0 -0 0 -0 -0 -0
          0 0 -0 1.72663e-18 7.14232e-08 2.52068e-23 0 0 0 0 1.84598e-24 -0
          -0 0 0 -0 0 0 -0 -0 -0 -0 0 -0
          0 0 -0 -0 -0 0 -0 -0 0.323051 -0 0 0
          0 -0 -0 -0 0 0 -0 -0 -0 -0 -0 -0
          -0 -0 0 0 -0 0 -0 -0 3.70809e-08 0 -0 -0
          0 0 0 0 1.01713e-13 -0 -0 0 0 0 -0 0
          -0 -0 0 -0 -0 -0 -0 0.026476 0 0 0 0
          -0 0 0 0 -0 -0 0.5 0.5 -0 -0 -0 -0
          -0 0 -0 0 0 -0 -0 0 -0 -0 -0 -0
          0 0 0 0 0 -0 0 0 0.256652 0.5 0.325754 2.65644e-18
          0 0 0 0 0 0 0 -0 0 -0 0 0
          0 -0 -0 1.90737e-10 0 0 0 0 0 0 0 -0
          0 0 1.21793e-38 -0 0.0151699 0 0.241192 -0 -0 -0 0 0
          0 -0 -0 -0 0 -0 -0 -0 -0 -0 0 0
          -0 -0 -0 0 1.70218e-18 -0 -0 0.272085 0.5 1.90265e-13 0 0
          0 0 -0 2.76573e-06 0 -0 -0 0.336644 -0 -0 0 0.5
          0 0.00309864 -0 0 0 0 0.265456 -0 0 -0 2.59858e-11 1.68132e-10
          -0 -0 0 0 -0 0 0 -0 -0 0 0 0
          0 -0 0 0 0 0 -0 -0 0 0 -0 -0
          0 8.00574e-14 0 0 0 -0 -0 0 -0 -0 0.310451 -0
          0 -0 -0 6.02346e-08 0 0 0 -0 0 -0 -0 0
          0 0 -0 0 -0 0 0 0 0.375088 0.5 0.348245 -0
          0 -0 0.5 0.316091 0 0 -0 0 0.394747 -0 -0 5.28984e-09
          0 0 -0 0 0 0.5 -0 0 0 0.285987 0.0425636 0.128489
          0.000677839 0 0 -0 0 -0 0 0.154107 -0 0.5 -0 -0
          -0 -0 -0 0 0 0 -0 -0 0 -0 -0 0
          0 -0 -0 -0 1.98159e-16 -0 -0 0 -0 -0 0 -0
          0 0 0 0 0 0.048902 0.138319 -0 0 0 0 0
          -0 0 -0 0 0 -0 -0 -0 -0 0 -0 0.5
          0 0 -0 -0 0 0 -0 -0 -0 0 -0 -0
          -0 -0 -0 0 0 0 0 0.5 0.321522 0 0 0.000809646
          0.0224416 0 -0 0.5 0.401843 0 0 0.5 0.412118 0.5 1.30394e-13 0
          0 0 0 -0 0.5 -0 0 -0 -0 0 0 -0
          0 0 0 0 0.293213 -0 -0 0 -0 0 0 0.231202
          0.401627 0 -0 -0 0 0 -0 -0 0 -0 0 0
          0.101974 -0 0 -0 0 0 0 -0 7.60683e-11 0 0 0
          0 0 0 0 -0 0 0 -0 0 -0 3.33053e-09 0
          0 0 -0 -0 -0 -0 -0 -0 4.25014e-05 0 0 0.372877
          0 -0 -0
        </DataArray>
        <DataArray type="Float32" Name="p_napl" NumberOfComponents="1" format="ascii">
          173211 175814 173622 126066 133422 128844 196907 190517 190453 156983 159109 157444
          159639 177056 132813 174526 172865 177368 172981 152749 152564 150919 116730 121303
          121904 144766 141469 144196 147977 150081 148599 173235 168851 168348 136538 137589
          138405 170869 173737 170994 113732 118121 116386 160449 158443 159911 157659 146602
          148177 145416 154638 152810 154912 179187 181860 179589 193099 191419 189626 156551
          147862 146895 148920 189260 191550 206947 176841 162556 153578 156402 144713 143789
          141884 173054 174522 171976 157482 159139 172898 175968 190948 143630 141312 140625
          162057 168079 170367 170988 138825 139301 141574 161369 161351 151220 149928 152933
          124127 129657 129155 163018 151970 154074 155112 162265 163516 164644 128845 129410
          132416 154150 151409 153665 151368 150713 171181 152098 149867 150089 159787 161239
          158964 159168 151204 149688 148930 158386 197710 203379 166788 165432 167694 150191
          148070 148032 145863 191592 196767 192104 151522 156134 168078 167469 169006 171942
          139604 168696 183483 179290 179868 166003 187839 185162 144673 142705 144327 165328
          166748 164061 167934 173815 177390 166876 169223 147439 168081 169771 162375 175850
          177406 154698 173409 149850 166952 122948 117114 136008 132460 137361 158442 157115
          161320 167776 165796 165730 179827 182294 182211 142675 169448 171973 170225 130578