<?xml version="1.0"?>
<VTKFile type="UnstructuredGrid" version="0.1" byte_order="LittleEndian">
  <UnstructuredGrid>
    <Piece NumberOfCells="1536" NumberOfPoints="6144">
      <PointData Scalars="S_aq">
        <DataArray type="Float32" Name="S_aq" NumberOfComponents="1" format="ascii">
          1 1 1 1 1 1 1 1 1 1 1 1
          1 1 1 1 1 1 1 1 1 1 1 1
          1 1 1 1 1 1 1 1 1 1 1 1
          1 1 1 1 1 1 1 1 1 1 1 1
          1 1 1 1 1 1 1 1 1 1 1 1
          1 1 1 1 1 1 1 1 1 1 1 1
          1 1 1 1 1 1 1 1 1 1 1 1
          1 1 1 1 1 1 1 1 1 1 1 1
          1 1 1 1 1 1 1 1 1 1 1 1
          1 1 1 1 1 1 1 1 1 1 1 1
          1 1 1 1 1 1 1 1 1 1 1 1
          1 1 1 1 1 1 1 1 1 1 1 1
          1 1 1 1 1 1 1 1 1 1 1 1
          1 1 1 1 1 1 1 1 1 1 1 1
          1 1 1 1 1 1 1 1 1 1 1 1
          1 1 1 1 1 1 1 1 1 1 1 1
          1 1 1 1 1 1 1 1 1 1 1 1
          1 1 1 1 1 1 1 1 1 1 1 1
          1 1 1 1 1 1 1 1 1 1 1 1
          1 1 1 1 1 1 1 1 1 1 1 1
          1 1 1 1 1 1 1 1 1 1 1 1
          1 1 1 1 1 1 1 1 1 1 1 1
          1 1 1 1 1 1 1 1 1 1 1 1
          1 1 1 1 1 1 1 1 1 1 1 1
          1 1 1 1 1 1 1 1 1 1 1 1
          1 1 1 1 1 1 1 1 1 1 1 1
          1 1 1 1 1 1 1 1 1 1 1 1
          1 1 1 1 1 1 1 1 1 1 1 1
          1 1 1 1 1 1 1 1 1 1 1 1
          1 1 1 1 1 1 1 1 1 1 1 1
          1 1 1 1 1 1 1 1 1 1 1 1
          1 1 1 1 1 1 1 1 1 1 1 1
          1 1 1 1 1 1 1 1 1 1 1 1
          1 1 1 1 1 1 1 1 1 1 1 1
          1 1 1 1 1 1 1 1 1 1 1 1
          1 1 1 1 1 1 1 1 1 1 1 1
          1 1 1 1 1 1 1 1 1 1 1 1
          1 1 1 1 1 1 1 1 1 1 1 1
          1 1 1 1 1 1 1 1 1 1 1 1
          1 1 1 1 1 1 1 1 1 1 1 1
          1 1 1 1 1 1 1 1 1 1 1 1
          1 1 1 1 1 1 1 1 1 1 1 1
          1 1 1 1 1 1 1 1 1 1 1 1
          1 1 1 1 1 1 1 1 1 1 1 1
          1 1 1 1 1 1 1 1 1 1 1 1
          1 1 1 1 1 1 1 1 1 1 1 1
          1 1 1 1 1 1 1 1 1 1 1 1
          1 1 1 1 1 1 1 1 1 1 1 1
          1 1 1 1 1 1 1 1 1 1 1 1
          1 1 1 1 1 1 1 1 1 1 1 1
          1 1 1 1 1 1 1 1 1 1 1 1
          1 1 1 1 1 1 1 1 1 1 1 1
          1 1 1 1 1 1 1 1 1 1 1 1
          1 1 1 1 1 1 1 1 1 1 1 1
          1 1 1 1 1 1 1 1 1 1 1 1
          1 1 1 1 1 1 1 1 1 1 1 1
          1 1 1 1 1 1 1 1 1 1 1 1
          1 1 1 1 1 1 1 1 1 1 1 1
          1 1 1 1 1 1 1 1 1 1 1 1
          1 1 1 1 1 1 1 1 1 1 1 1
          1 1 1 1 1 1 1 1 1 1 1 1
          1 1 1 1 1 1 1 1 1 1 1 1
          1 1 1 1 1 1 1 1 1 1 1 1
          1 1 1 1 1 1 1 1 1 1 1 1
          1 1 1 1 1 1 1 1 1 1 1 1
          1 1 1 1 1 1 1 1 1 1 1 1
          1 1 1 1 1 1 1 1 1 1 1 1
          1 1 1 1 1 1 1 1 1 1 1 1
          1 1 1 1 1 1 1 1 1 1 1 1
          1 1 1 1 1 1 1 1 1 1 1 1
          1 1 1 1 1 1 1 1 1 1 1 1
          1 1 1 1 1 1 1 1 1 1 1 1
          1 1 1 1 1 1 1 1 1 1 1 1
          1 1 1 1 1 1 1 1 1 1 1 1
          1 1 1 1 1 1 1 1 1 1 1 1
          1 1 1 1 1 1 1 1 1 1 1 1
          1 1 1 1 1 1 1 1 1 1 1 1
          1 1 1 1 1 1 1 1 1 1 1 1
          1 1 1 1 1 1 1 1 1 1 1 1
          1 1 1 1 1 1 1 1 1 1 1 1
          1 1 1 1 1 1 1 1 1 1 1 1
          1 1 1 1 1 1 1 1 1 1 1 1
          1 1 1 1 1 1 1 1 1 1 1 1
          1 1 1 1 1 1 1 1 1 1 1 1
          1 1 1 1 1 1 1 1 1 1 1 1
          1 1 1 1 1 1 1 1 1 1 1 1
          1 1 1 1 1 1 1 1 1 1 1 1
          1 1 1 1 1 1 1 1 1 1 1 1
          1 1 1 1 1 1 1 1 1 1 1 1
          1 1 1 1 1 1 1 1 1 1 1 1
          1 1 1 1 1 1 1 1 1 1 1 1
          1 1 1 1 1 1 1 1 1 1 1 1
          1 1 1 1 1 1 1 1 1 1 1 1
          1 1 1 1 1 1 1 1 1 1 1 1
          1 1 1 1 1 1 1 1 1 1 1 1
          1 1 1 1 1 1 1 1 1 1 1 1
          1 1 1 1 1 1 1 1 1 1 1 1
          1 1 1 1 1 1 1 1 1 1 1 1
          1 1 1 1 1 1 1 1 1 1 1 1
          1 1 1 1 1 1 1 1 1 1 1 1
          1 1 1 1 1 1 1 1 1 1 1 1
          1 1 1 1 1 1 1 1 1 1 1 1
          1 1 1 1 1 1 1 1 1 1 1 1
          1 1 1 1 1 1 1 1 1 1 1 1
          1 1 1 1 1 1 1 1 1 1 1 1
          1 1 1 1 1 1 1 1 1 1 1 1
          1 1 1 1 1 1 1 1 1 1 1 1
          1 1 1 1 1 1 1 1 1 1 1 1
          1 1 1 1 1 1 1 1 1 1 1 1
          1 1 1 1 1 1 1 1 1 1 1 1
          1 1 1 1 1 1 1 1 1 1 1 1
          1 1 1 1 1 1 1 1 1 1 1 1
          1 1 1 1 1 1 1 1 1 1 1 1
          1 1 1 1 1 1 1 1 1 1 1 1
          1 1 1 1 1 1 1 1 1 1 1 1
          1 1 1 1 1 1 1 1 1 1 1 1
          1 1 1 1 1 1 1 1 1 1 1 1
          1 1 1 1 1 1 1 1 1 1 1 1
          1 1 1 1 1 1 1 1 1 1 1 1
          1 1 1 1 1 1 1 1 1 1 1 1
          1 1 1 1 1 1 1 1 1 1 1 1
          1 1 1 1 1 1 1 1 1 1 1 1
          1 1 1 1 1 1 1 1 1 1 1 1
          1 1 1 1 1 1 1 1 1 1 1 1
          1 1 1 1 1 1 1 1 1 1 1 1
          1 1 1 1 1 1 1 1 1 1 1 1
          1 1 1 1 1 1 1 1 1 1 1 1
          1 1 1 1 1 1 1 1 1 1 1 1
          1 1 1 1 1 1 1 1 1 1 1 1
          1 1 1 1 1 1 1 1 1 1 1 1
          1 1 1 1 1 1 1 1 1 1 1 1
          1 1 1 1 1 1 1 1 1 1 1 1
          1 1 1 1 1 1 1 1 1 1 1 1
          1 1 1 1 1 1 1 1 1 1 1 1
          1 1 1 1 1 1 1 1 1 1 1 1
          1 1 1 1 1 1 1 1 1 1 1 1
          1 1 1 1 1 1 1 1 1 1 1 1
          1 1 1 1 1 1 1 1 1 1 1 1
          1 1 1 1 1 1 1 1 1 1 1 1
          1 1 1 1 1 1 1 1 1 1 1 1
          1 1 1 1 1 1 1 1 1 1 1 1
          1 1 1 1 1 1 1 1 1 1 1 1
          1 1 1 1 1 1 1 1 1 1 1 1
          1 1 1 1 1 1 1 1 1 1 1 1
          1 1 1 1 1 1 1 1 1 1 1 1
          1 1 1 1 1 1 1 1 1 1 1 1
          1 1 1 1 1 1 1 1 1 1 1 1
          1 1 1 1 1 1 1 1 1 1 1 1
          1 1 1 1 1 1 1 1 1 1 1 1
          1 1 1 1 1 1 1 1 1 1 1 1
          1 1 1 1 1 1 1 1 1 1 1 1
          1 1 1 1 1 1 1 1 1 1 1 1
          1 1 1 1 1 1 1 1 1 1 1 1
          1 1 1 1 1 1 1 1 1 1 1 1
          1 1 1 1 1 1 1 1 1 1 1 1
          1 1 1 1 1 1 1 1 1 1 1 1
          1 1 1 1 1 1 1 1 1 1 1 1
          1 1 1 1 1 1 1 1 1 1 1 1
          1 1 1 1 1 1 1 1 1 1 1 1
          1 1 1 1 1 1 1 1 1 1 1 1
          1 1 1 1 1 1 1 1 1 1 1 1
          1 1 1 1 1 1 1 1 1 1 1 1
          1 1 1 1 1 1 1 1 1 1 1 1
          1 1 1 1 1 1 1 1 1 1 1 1
          1 1 1 1 1 1 1 1 1 1 1 1
          1 1 1 1 1 1 1 1 1 1 1 1
          1 1 1 1 1 1 1 1 1 1 1 1
          1 1 1 1 1 1 1 1 1 1 1 1
          1 1 1 1 1 1 1 1 1 1 1 1
          1 1 1 1 1 1 1 1 1 1 1 1
          1 1 1 1 1 1 1 1 1 1 1 0.999986
          1 1 0.999986 0.999997 1 1 0.999997 1 1 1 1 1
          1 1 1 1 1 1 1 1 1 1 1 1
          1 1 1 1 1 1 1 1 1 1 1 1
          1 1 1 1 1 1 1 1 1 1 1 1
          1 1 1 1 1 1 1 1 1 1 1 1
          1 1 1 1 1 1 1 1 1 1 1 1
          1 1 1 1 1 1 1 1 1 1 1 1
          1 1 1 1 1 1 1 1 1 1 1 1
          1 1 1 1 1 1 1 1 1 1 1 1
          1 1 1 1 1 1 1 1 1 1 1 1
          1 1 1 1 1 1 1 1 1 1 1 1
          1 1 1 1 1 1 1 1 1 1 1 1
          1 1 1 1 1 1 1 1 1 1 1 1
          1 1 1 1 1 1 1 1 1 1 1 1
          1 1 1 1 1 1 1 1 1 1 1 1
          1 1 1 1 1 1 1 0.999945 1 0.999986 0.999945 0.999012
          0.999986 0.999997 0.999012 0.999546 0.999997 1 0.999546 0.999993 1 1 0.999993 1
          1 1 1 1 1 1 1 1 1 1 1 1
          1 1 1 1 1 1 1 1 1 1 1 1
          1 1 1 1 1 1 1 1 1 1 1 1
          1 1 1 1 1 1 1 1 1 1 1 1
          1 1 1 1 1 1 1 1 1 1 1 1
          1 1 1 1 1 1 1 1 1 1 1 1
          1 1 1 1 1 1 1 1 1 1 1 1
          1 1 1 1 1 1 1 1 1 1 1 1
          1 1 1 1 1 1 1 1 1 1 1 1
          1 1 1 1 1 1 1 1 1 1 1 1
          1 1 1 1 1 1 1 1 1 1 1 1
          1 1 1 1 1 1 1 1 1 1 1 1
          1 1 1 1 1 1 1 1 1 1 1 1
          1 1 1 1 1 1 1 1 1 1 1 1
          1 1 1 1 1 0.999945 1 0.998104 0.999945 0.999012 0.998104 0.992512
          0.999012 0.999546 0.992512 0.994862 0.999546 0.999993 0.994862 0.999331 0.999993 1 0.999331 0.999997
          1 1 0.999997 1 1 1 1 1 1 1 1 1
          1 1 1 1 1 1 1 1 1 1 1 1
          1 1 1 1 1 1 1 1 1 1 1 1
          1 1 1 1 1 1 1 1 1 1 1 1
          1 1 1 1 1 1 1 1 1 1 1 1
          1 1 1 1 1 1 1 1 1 1 1 1
          1 1 1 1 1 1 1 1 1 1 1 1
          1 1 1 1 1 1 1 1 1 1 1 1
          1 1 1 1 1 1 1 1 1 1 1 1
          1 1 1 1 1 1 1 1 1 1 1 1
          1 1 1 1 1 1 1 1 1 1 1 1
          1 1 1 1 1 1 1 1 1 1 1 1
          1 1 1 1 1 1 1 1 1 1 1 1
          1 1 1 1 1 1 1 1 1 1 1 1
          1 1 1 1 1 0.998104 1 0.989543 0.998104 0.992512 0.989543 0.977722
          0.992512 0.994862 0.977722 0.982461 0.994862 0.999331 0.982461 0.994656 0.999331 0.999997 0.994656 0.999728
          0.999997 1 0.999728 1 1 1 1 1 1 1 1 1
          1 1 1 1 1 1 1 1 1 1 1 1
          1 1 1 1 1 1 1 1 1 1 1 1
          1 1 1 1 1 1 1 1 1 1 1 1
          1 1 1 1 1 1 1 1 1 1 1 1
          1 1 1 1 1 1 1 1 1 1 1 1
          1 1 1 1 1 1 1 1 1 1 1 1
          1 1 1 1 1 1 1 1 1 1 1 1
          1 1 1 1 1 1 1 1 1 1 1 1
          1 1 1 1 1 1 1 1 1 1 1 1
          1 1 1 1 1 1 1 1 1 1 1 1
          1 1 1 1 1 1 1 1 1 1 1 1
          1 1 1 1 1 1 1 1 1 1 1 1
          1 1 1 1 1 1 1 1 1 1 1 1
          1 1 1 1 1 0.989543 1 0.973777 0.989543 0.977722 0.973777 0.956594
          0.977722 0.982461 0.956594 0.964433 0.982461 0.994656 0.964433 0.985259 0.994656 0.999728 0.985259 0.998025
          0.999728 1 0.998025 0.999978 1 1 0.999978 1 1 1 1 1
          1 1 1 1 1 1 1 1 1 1 1 1
          1 1 1 1 1 1 1 1 1 1 1 1
          1 1 1 1 1 1 1 1 1 1 1 1
          1 1 1 1 1 1 1 1 1 1 1 1
          1 1 1 1 1 1 1 1 1 1 1 1
          1 1 1 1 1 1 1 1 1 1 1 1
          1 1 1 1 1 1 1 1 1 1 1 1
          1 1 1 1 1 1 1 1 1 1 1 1
          1 1 1 1 1 1 1 1 1 1 1 1
          1 1 1 1 1 1 1 1 1 1 1 1
          1 1 1 1 1 1 1 1 1 1 1 1
          1 1 1 1 1 1 1 1 1 1 1 1
          1 1 1 1 1 1 1 1 1 1 1 1
          1 1 1 1 1 0.973777 1 0.953716 0.973777 0.956594 0.953716 0.931226
          0.956594 0.964433 0.931226 0.944945 0.964433 0.985259 0.944945 0.974849 0.985259 0.998025 0.974849 0.9954
          0.998025 0.999978 0.9954 0.999866 0.999978 1 0.999866 1 1 1 1 1
          1 1 1 1 1 1 1 1 1 1 1 1
          1 1 1 1 1 1 1 1 1 1 1 1
          1 1 1 1 1 1 1 1 1 1 1 1
          1 1 1 1 1 1 1 1 1 1 1 1
          1 1 1 1 1 1 1 1 1 1 1 1
          1 1 1 1 1 1 1 1 1 1 1 1
          1 1 1 1 1 1 1 1 1 1 1 1
          1 1 1 1 1 1 1 1 1 1 1 1
          1 1 1 1 1 1 1 1 1 1 1 1
          1 1 1 1 1 1 1 1 1 1 1 1
          1 1 1 1 1 1 1 1 1 1 1 1
          1 1 1 1 1 1 1 1 1 1 1 1
          1 1 1 1 1 1 1 1 1 1 1 1
          1 1 1 1 1 0.999467 1 0.999348 0.953716 0.931226 0.894126 0.900946
          0.931226 0.944945 0.900946 0.928966 0.944945 0.974849 0.928966 0.967956 0.974849 0.9954 0.967956 0.993874
          0.9954 0.999866 0.993874 0.999765 0.999866 1 0.999765 1 1 1 1 1
          1 1 1 1 1 1 1 1 1 1 1 1
          1 1 1 1 1 1 1 1 1 1 1 1
          1 1 1 1 1 1 1 1 1 1 1 1
          1 1 1 1 1 1 1 1 1 1 1 1
          1 1 1 1 1 1 1 1 1 1 1 1
          1 1 1 1 1 1 1 1 1 1 1 1
          1 1 1 1 1 1 1 1 1 1 1 1
          1 1 1 1 1 1 1 1 1 1 1 1
          1 1 1 1 1 1 1 1 1 1 1 1
          1 1 1 1 1 1 1 1 1 1 1 1
          1 1 1 1 1 1 1 1 1 1 1 1
          1 1 1 1 1 1 1 1 1 1 1 1
          1 1 1 1 1 1 1 1 1 1 1 1
          1 1 1 1 1 0.999348 1 0.999303 0.894126 0.900946 0.862849 0.883272
          0.900946 0.928966 0.883272 0.922316 0.928966 0.967956 0.922316 0.967213 0.967956 0.993874 0.967213 0.994212
          0.993874 0.999765 0.994212 0.999808 0.999765 1 0.999808 1 1 1 1 1
          1 1 1 1 1 1 1 1 1 1 1 1
          1 1 1 1 1 1 1 1 1 1 1 1
          1 1 1 1 1 1 1 1 1 1 1 1
          1 1 1 1 1 1 1 1 1 1 1 1
          1 1 1 1 1 1 1 1 1 1 1 1
          1 1 1 1 1 1 1 1 1 1 1 1
          1 1 1 1 1 1 1 1 1 1 1 1
          1 1 1 1 1 1 1 1 1 1 1 1
          1 1 1 1 1 1 1 1 1 1 1 1
          1 1 1 1 1 1 1 1 1 1 1 1
          1 1 1 1 1 1 1 1 1 1 1 1
          1 1 1 1 1 1 1 1 1 1 1 1
          1 1 1 1 1 1 1 1 1 1 1 1
          1 1 1 1 1 0.999303 1 0.999278 0.862849 0.883272 0.84392 0.874606
          0.883272 0.922316 0.874606 0.921834 0.922316 0.967213 0.921834 0.969732 0.967213 0.994212 0.969732 0.995237
          0.994212 0.999808 0.995237 0.999887 0.999808 1 0.999887 1 1 1 1 1
          1 1 1 1 1 1 1 1 1 1 1 1
          1 1 1 1 1 1 1 1 1 1 1 1
          1 1 1 1 1 1 1 1 1 1 1 1
          1 1 1 1 1 1 1 1 1 1 1 1
          1 1 1 1 1 1 1 1 1 1 1 1
          1 1 1 1 1 1 1 1 1 1 1 1
          1 1 1 1 1 1 1 1 1 1 1 1
          1 1 1 1 1 1 1 1 1 1 1 1
          1 1 1 1 1 1 1 1 1 1 1 1
          1 1 1 1 1 1 1 1 1 1 1 1
          1 1 1 1 1 1 1 1 1 1 1 1
          1 1 1 1 1 1 1 1 1 1 1 1
          1 1 1 1 1 1 1 1 1 1 1 1
          1 1 1 1 1 0.999278 1 0.999259 0.84392 0.874606 0.828763 0.871262
          0.874606 0.921834 0.871262 0.925123 0.921834 0.969732 0.925123 0.973474 0.969732 0.995237 0.973474 0.996291
          0.995237 0.999887 0.996291 0.999941 0.999887 1 0.999941 1 1 1 1 1
          1 1 1 1 1 1 1 1 1 1 1 1
          1 1 1 1 1 1 1 1 1 1 1 1
          1 1 1 1 1 1 1 1 1 1 1 1
          1 1 1 1 1 1 1 1 1 1 1 1
          1 1 1 1 1 1 1 1 1 1 1 1
          1 1 1 1 1 1 1 1 1 1 1 1
          1 1 1 1 1 1 1 1 1 1 1 1
          1 1 1 1 1 1 1 1 1 1 1 1
          1 1 1 1 1 1 1 1 1 1 1 1
          1 1 1 1 1 1 1 1 1 1 1 1
          1 1 1 1 1 1 1 1 1 1 1 1
          1 1 1 1 1 1 1 1 1 1 1 1
          1 1 1 1 1 1 1 1 1 1 1 1
          1 1 1 1 1 0.999259 1 0.999242 0.828763 0.871262 0.814455 0.871941
          0.871262 0.925123 0.871941 0.931218 0.925123 0.973474 0.931218 0.977758 0.973474 0.996291 0.977758 0.997266
          0.996291 0.999941 0.997266 0.999973 0.999941 1 0.999973 1 1 1 1 1
          1 1 1 1 1 1 1 1 1 1 1 1
          1 1 1 1 1 1 1 1 1 1 1 1
          1 1 1 1 1 1 1 1 1 1 1 1
          1 1 1 1 1 1 1 1 1 1 1 1
          1 1 1 1 1 1 1 1 1 1 1 1
          1 1 1 1 1 1 1 1 1 1 1 1
          1 1 1 1 1 1 1 1 1 1 1 1
          1 1 1 1 1 1 1 1 1 1 1 1
          1 1 1 1 1 1 1 1 1 1 1 1
          1 1 1 1 1 1 1 1 1 1 1 1
          1 1 1 1 1 1 1 1 1 1 1 1
          1 1 1 1 1 1 1 1 1 1 1 1
          1 1 1 1 1 1 1 1 1 1 1 1
          1 1 1 1 1 0.999242 1 0.999225 0.814455 0.871941 0.799603 0.876629
          0.871941 0.931218 0.876629 0.939899 0.931218 0.977758 0.939899 0.982422 0.977758 0.997266 0.982422 0.998174
          0.997266 0.999973 0.998174 0.99999 0.999973 1 0.99999 1 1 1 1 1
          1 1 1 1 1 1 1 1 1 1 1 1
          1 1 1 1 1 1 1 1 1 1 1 1
          1 1 1 1 1 1 1 1 1 1 1 1
          1 1 1 1 1 1 1 1 1 1 1 1
          1 1 1 1 1 1 1 1 1 1 1 1
          1 1 1 1 1 1 1 1 1 1 1 1
          1 1 1 1 1 1 1 1 1 1 1 1
          1 1 1 1 1 1 1 1 1 1 1 1
          1 1 1 1 1 1 1 1 1 1 1 0.999999
          1 1 0.999999 0.999999 1 1 0.999999 0.999999 1 1 0.999999 0.999999
          1 1 0.999999 0.999999 1 1 0.999999 0.999999 1 1 0.999999 0.999998
          1 1 0.999998 0.999998 1 1 0.999998 0.999999 1 1 0.999999 0.999999
          1 1 0.999999 0.999999 1 1 0.999999 0.999999 1 1 0.999999 0.999999
          1 1 0.999999 0.999999 1 0.999225 0.999999 0.999206 0.799603 0.876629 0.783204 0.886704
          0.876629 0.939899 0.886704 0.951561 0.939899 0.982422 0.951561 0.9875 0.982422 0.998174 0.9875 0.99902
          0.998174 0.99999 0.99902 0.999998 0.99999 1 0.999998 1 1 1 1 1
          1 1 1 1 1 1 1 1 1 1 1 1
          1 1 1 1 1 1 1 1 1 1 1 1
          1 1 1 1 1 1 1 1 1 1 1 1
          1 1 1 1 1 1 1 1 1 1 1 1
          1 1 1 1 1 1 1 1 1 1 1 1
          1 1 1 1 1 1 1 1 1 1 1 1
          1 1 1 1 1 1 1 1 1 1 1 1
          1 1 1 1 1 1 1 0.999731 1 1 0.999731 0.99946
          1 1 0.99946 0.999257 1 1 0.999257 0.999122 1 0.999999 0.999122 0.999019
          0.999999 0.999999 0.999019 0.998934 0.999999 0.999999 0.998934 0.998866 0.999999 0.999999 0.998866 0.998815
          0.999999 0.999999 0.998815 0.998777 0.999999 0.999999 0.998777 0.99875 0.999999 0.999998 0.99875 0.998731
          0.999998 0.999998 0.998731 0.998721 0.999998 0.999999 0.998721 0.99872 0.999999 0.999999 0.99872 0.998729
          0.999999 0.999999 0.998729 0.998748 0.999999 0.999999 0.998748 0.998752 0.999999 0.999999 0.998752 0.998786
          0.999999 0.999999 0.998786 0.998875 0.999999 0.999206 0.998875 0.999186 0.783204 0.886704 0.764332 0.907993
          0.886704 0.951561 0.907993 0.967856 0.951561 0.9875 0.967856 0.99344 0.9875 0.99902 0.99344 0.99976
          0.99902 0.999998 0.99976 1 0.999998 1 1 1 1 1 1 1
          1 1 1 1 1 1 1 1 1 1 1 1
          1 1 1 1 1 1 1 1 1 1 1 1
          1 1 1 1 1 1 1 1 1 1 1 1
          1 1 1 1 1 1 1 1 1 1 1 1
          1 1 1 1 1 1 1 1 1 1 1 1
          1 1 1 1 1 1 1 1 1 1 1 1
          1 1 1 1 1 1 1 1 1 1 1 1
          1 1 1 1 1 0.995211 1 0.999941 0.995211 0.951038 0.999941 0.994612
          0.951038 0.826759 0.994612 0.958941 0.826759 0.703671 0.958941 0.937546 0.703671 0.602806 0.937546 0.923012
          0.602806 0.52358 0.923012 0.911909 0.52358 0.46598 0.911909 0.902404 0.46598 0.42615 0.902404 0.893842
          0.42615 0.398921 0.893842 0.886283 0.398921 0.380428 0.886283 0.881082 0.380428 0.368477 0.881082 0.883326
          0.368477 0.362236 0.883326 0.897337 0.362236 0.361599 0.897337 0.921862 0.361599 0.366844 0.921862 0.953648
          0.366844 0.379225 0.953648 0.983849 0.379225 0.381867 0.983849 0.998199 0.381867 0.404754 0.998199 0.99999
          0.404754 0.472958 0.99999 1 0.472958 0.764332 1 1 0.764332 0.907993 1 1
          0.907993 0.967856 1 1 0.967856 0.99344 1 1 0.99344 0.99976 1 1
          0.99976 1 1 1 1 1 1 1 1 1 1 1
          1 1 1 1 1 1 1 1 1 1 1 1
          1 1 1 1 1 1 1 1 1 1 1 1
          1 1 1 1 1 1 1 1 1 1 1 1
          1 1 1 1 1 1 1 1 1 1 1 1
          1 1 1 1 1 1 1 1 1 1 1 1
          1 1 1 1 1 1 1 1 1 1 1 1
          1 1 1 1 1 1 1 1 1 1 1 1
          1 1 1 1 1 0.999941 1 0.999911 0.999941 0.994612 0.999911 0.99434
          0.994612 0.958941 0.99434 0.959692 0.958941 0.937546 0.959692 0.941406 0.937546 0.923012 0.941406 0.93191
          0.923012 0.911909 0.93191 0.927171 0.911909 0.902404 0.927171 0.924911 0.902404 0.893842 0.924911 0.923851
          0.893842 0.886283 0.923851 0.923418 0.886283 0.881082 0.923418 0.924138 0.881082 0.883326 0.924138 0.930334
          0.883326 0.897337 0.930334 0.944333 0.897337 0.921862 0.944333 0.962561 0.921862 0.953648 0.962561 0.981984
          0.953648 0.983849 0.981984 0.996 0.983849 0.998199 0.996 0.999901 0.998199 0.99999 0.999901 1
          0.99999 1 1 1 1 1 1 1 1 1 1 1
          1 1 1 1 1 1 1 1 1 1 1 1
          1 1 1 1 1 1 1 1 1 1 1 1
          1 1 1 1 1 1 1 1 1 1 1 1
          1 1 1 1 1 1 1 1 1 1 1 1
          1 1 1 1 1 1 1 1 1 1 1 1
          1 1 1 1 1 1 1 1 1 1 1 1
          1 1 1 1 1 1 1 1 1 1 1 1
          1 1 1 1 1 1 1 1 1 1 1 1
          1 1 1 1 1 1 1 1 1 1 1 1
          1 1 1 1 1 0.999911 1 0.999816 0.999911 0.99434 0.999816 0.993706
          0.99434 0.959692 0.993706 0.957772 0.959692 0.941406 0.957772 0.939234 0.941406 0.93191 0.939234 0.930596
          0.93191 0.927171 0.930596 0.926779 0.927171 0.924911 0.926779 0.925218 0.924911 0.923851 0.925218 0.924629
          0.923851 0.923418 0.924629 0.924502 0.923418 0.924138 0.924502 0.925462 0.924138 0.930334 0.925462 0.932855
          0.930334 0.944333 0.932855 0.948698 0.944333 0.962561 0.948698 0.967343 0.962561 0.981984 0.967343 0.985207
          0.981984 0.996 0.985207 0.996937 0.996 0.999901 0.996937 0.999946 0.999901 1 0.999946 1
          1 1 1 1 1 1 1 1 1 1 1 1
          1 1 1 1 1 1 1 1 1 1 1 1
          1 1 1 1 1 1 1 1 1 1 1 1
          1 1 1 1 1 1 1 1 1 1 1 1
          1 1 1 1 1 1 1 1 1 1 1 1
          1 1 1 1 1 1 1 1 1 1 1 1
          1 1 1 1 1 1 1 1 1 1 1 1
          1 1 1 1 1 1 1 1 1 1 1 1
          1 1 1 1 1 1 1 1 1 1 1 1
          1 1 1 1 1 1 1 1 1 1 1 1
          1 1 1 1 1 0.999816 1 0.999661 0.999816 0.993706 0.999661 0.993076
          0.993706 0.957772 0.993076 0.955766 0.957772 0.939234 0.955766 0.936787 0.939234 0.930596 0.936787 0.929021
          0.930596 0.926779 0.929021 0.925987 0.926779 0.925218 0.925987 0.924889 0.925218 0.924629 0.924889 0.924522
          0.924629 0.924502 0.924522 0.924479 0.924502 0.925462 0.924479 0.925489 0.925462 0.932855 0.925489 0.934296
          0.932855 0.948698 0.934296 0.952468 0.948698 0.967343 0.952468 0.971639 0.967343 0.985207 0.971639 0.98796
          0.985207 0.996937 0.98796 0.997783 0.996937 0.999946 0.997783 0.999974 0.999946 1 0.999974 1
          1 1 1 1 1 1 1 1 1 1 1 1
          1 1 1 1 1 1 1 1 1 1 1 1
          1 1 1 1 1 1 1 1 1 1 1 1
          1 1 1 1 1 1 1 1 1 1 1 1
          1 1 1 1 1 1 1 1 1 1 1 1
          1 1 1 1 1 1 1 1 1 1 1 1
          1 1 1 1 1 1 1 1 1 1 1 1
          1 1 1 1 1 1 1 1 1 1 1 1
          1 1 1 1 1 1 1 1 1 1 1 1
          1 1 1 1 1 1 1 1 1 1 1 1
          1 1 1 1 1 0.999661 1 0.999456 0.999661 0.993076 0.999456 0.992579
          0.993076 0.955766 0.992579 0.953746 0.955766 0.936787 0.953746 0.934254 0.936787 0.929021 0.934254 0.927572
          0.929021 0.925987 0.927572 0.925337 0.925987 0.924889 0.925337 0.924637 0.924889 0.924522 0.924637 0.924433
          0.924522 0.924479 0.924433 0.924434 0.924479 0.925489 0.924434 0.925429 0.925489 0.934296 0.925429 0.935986
          0.934296 0.952468 0.935986 0.956964 0.952468 0.971639 0.956964 0.97634 0.971639 0.98796 0.97634 0.990689
          0.98796 0.997783 0.990689 0.998589 0.997783 0.999974 0.998589 0.999991 0.999974 1 0.999991 1
          1 1 1 1 1 1 1 1 1 1 1 1
          1 1 1 1 1 1 1 1 1 1 1 1
          1 1 1 1 1 1 1 1 1 1 1 1
          1 1 1 1 1 1 1 1 1 1 1 1
          1 1 1 1 1 1 1 1 1 1 1 1
          1 1 1 1 1 1 1 1 1 1 1 1
          1 1 1 1 1 1 1 1 1 1 1 1
          1 1 1 1 1 1 1 1 1 1 1 1
          1 1 1 1 1 1 1 1 1 1 1 1
          1 1 1 1 1 1 1 1 1 1 1 1
          1 1 1 1 1 0.999456 1 0.999251 0.999456 0.992579 0.999251 0.992309
          0.992579 0.953746 0.992309 0.951717 0.953746 0.934254 0.951717 0.931627 0.934254 0.927572 0.931627 0.9263
          0.927572 0.925337 0.9263 0.924854 0.925337 0.924637 0.924854 0.924476 0.924637 0.924433 0.924476 0.924382
          0.924433 0.924434 0.924382 0.9244 0.924434 0.925429 0.9244 0.925296 0.925429 0.935986 0.925296 0.938053
          0.935986 0.956964 0.938053 0.962548 0.956964 0.97634 0.962548 0.981529 0.97634 0.990689 0.981529 0.993337
          0.990689 0.998589 0.993337 0.999291 0.998589 0.999991 0.999291 0.999998 0.999991 1 0.999998 1
          1 1 1 1 1 1 1 1 1 1 1 1
          1 1 1 1 1 1 1 1 1 1 1 1
          1 1 1 1 1 1 1 1 1 1 1 1
          1 1 1 1 1 1 1 1 1 1 1 1
          1 1 1 1 1 1 1 1 1 1 1 1
          1 1 1 1 1 1 1 1 1 1 1 1
          1 1 1 1 1 1 1 1 1 1 1 1
          1 1 1 1 1 1 1 1 1 1 1 1
          1 1 1 1 1 1 1 1 1 1 1 1
          1 1 1 1 1 1 1 1 1 1 1 1
          1 1 1 1 1 0.999251 1 0.999169 0.999251 0.992309 0.999169 0.992374
          0.992309 0.951717 0.992374 0.949658 0.951717 0.931627 0.949658 0.928884 0.931627 0.9263 0.928884 0.925264
          0.9263 0.924854 0.925264 0.924538 0.924854 0.924476 0.924538 0.924388 0.924476 0.924382 0.924388 0.924358
          0.924382 0.9244 0.924358 0.924374 0.9244 0.925296 0.924374 0.925053 0.925296 0.938053 0.925053 0.940617
          0.938053 0.962548 0.940617 0.969937 0.962548 0.981529 0.969937 0.987293 0.981529 0.993337 0.987293 0.996018
          0.993337 0.999291 0.996018 0.99979 0.999291 0.999998 0.99979 1 0.999998 1 1 1
          1 1 1 1 1 1 1 1 1 1 1 1
          1 1 1 1 1 1 1 1 1 1 1 1
          1 1 1 1 1 1 1 1 1 1 1 1
          1 1 1 1 1 1 1 1 1 1 1 1
          1 1 1 1 1 1 1 1 1 1 1 1
          1 1 1 1 1 1 1 1 1 1 1 1
          1 1 1 1 1 1 1 1 1 1 1 1
          1 1 1 1 1 1 1 1 1 1 1 1
          1 1 1 1 1 1 1 1 1 1 1 1
          1 1 1 1 1 1 1 1 1 1 1 1
          1 1 1 1 1 0.999169 1 0.999461 0.999169 0.992374 0.999461 0.993937
          0.992374 0.949658 0.993937 0.947354 0.949658 0.928884 0.947354 0.925989 0.928884 0.925264 0.925989 0.924537
          0.925264 0.924538 0.924537 0.924375 0.924538 0.924388 0.924375 0.924352 0.924388 0.924358 0.924352 0.924349
          0.924358 0.924374 0.924349 0.924356 0.924374 0.925053 0.924356 0.924645 0.925053 0.940617 0.924645 0.943796
          0.940617 0.969937 0.943796 0.981594 0.969937 0.987293 0.981594 0.994349 0.987293 0.996018 0.994349 0.999011
          0.996018 0.99979 0.999011 0.999991 0.99979 1 0.999991 1 1 1 1 1
          1 1 1 1 1 1 1 1 1 1 1 1
          1 1 1 1 1 1 1 1 1 1 1 1
          1 1 1 1 1 1 1 1 1 1 1 1
          1 1 1 1 1 1 1 1 1 1 1 1
          1 1 1 1 1 1 1 1 1 1 1 1
          1 1 1 1 1 1 1 1 1 1 1 1
        </DataArray>
        <DataArray type="Float32" Name="p_aq" NumberOfComponents="1" format="ascii">
          153955 152691 152269 151339 152691 151816 151339 150521 151816 151095 150521 149822
          151095 150472 149822 149212 150472 149920 149212 148667 149920 149423 148667 148175
          149423 148970 148175 147726 148970 148553 147726 147312 148553 148166 147312 146927
          148166 147804 146927 146567 147804 147463 146567 146228 147463 147140 146228 145906
          147140 146833 145906 145600 146833 146538 145600 145306 146538 146254 145306 145023
          146254 145980 145023 144750 145980 145713 144750 144484 145713 145454 144484 144225
          145454 145200 144225 143971 145200 144951 143971 143723 144951 144707 143723 143479
          144707 144467 143479 143239 144467 144230 143239 143002 144230 143997 143002 142769
          143997 143767 142769 142539 143767 143539 142539 142312 143539 143315 142312 142087
          143315 143093 142087 141865 143093 142874 141865 141647 142874 142659 141647 141431
          142659 142446 141431 141218 142446 142236 141218 141008 142236 142029 141008 140801
          142029 141826 140801 140598 141826 141625 140598 140397 141625 141428 140397 140200
          141428 141233 140200 140006 141233 141042 140006 139814 141042 140853 139814 139625
          140853 140667 139625 139439 140667 140483 139439 139256 140483 140301 139256 139074
          140301 140122 139074 138895 140122 139943 138895 138716 139943 139766 138716 138540
          139766 139590 138540 138364 139590 139415 138364 138189 139415 139240 138189 138014
          152269 151339 150583 149823 151339 150521 149823 149110 150521 149822 149110 148465
          149822 149212 148465 147886 149212 148667 147886 147362 148667 148175 147362 146885
          148175 147726 146885 146447 147726 147312 146447 146041 147312 146927 146041 145664
          146927 146567 145664 145309 146567 146228 145309 144975 146228 145906 144975 144658
          145906 145600 144658 144355 145600 145306 144355 144064 145306 145023 144064 143783
          145023 144750 143783 143512 144750 144484 143512 143248 144484 144225 143248 142990
          144225 143971 142990 142738 143971 143723 142738 142490 143723 143479 142490 142247
          143479 143239 142247 142007 143239 143002 142007 141771 143002 142769 141771 141538
          142769 142539 141538 141308 142539 142312 141308 141081 142312 142087 141081 140857
          142087 141865 140857 140635 141865 141647 140635 140416 141647 141431 140416 140200
          141431 141218 140200 139987 141218 141008 139987 139777 141008 140801 139777 139570
          140801 140598 139570 139367 140598 140397 139367 139166 140397 140200 139166 138969
          140200 140006 138969 138775 140006 139814 138775 138584 139814 139625 138584 138395
          139625 139439 138395 138210 139439 139256 138210 138026 139256 139074 138026 137845
          139074 138895 137845 137666 138895 138716 137666 137488 138716 138540 137488 137312
          138540 138364 137312 137137 138364 138189 137137 136962 138189 138014 136962 136788
          150583 149823 148897 148248 149823 149110 148248 147625 149110 148465 147625 147043
          148465 147886 147043 146506 147886 147362 146506 146012 147362 146885 146012 145557
          146885 146447 145557 145136 146447 146041 145136 144744 146041 145664 144744 144377
          145664 145309 144377 144032 145309 144975 144032 143706 144975 144658 143706 143395
          144658 144355 143395 143097 144355 144064 143097 142811 144064 143783 142811 142535
          143783 143512 142535 142266 143512 143248 142266 142005 143248 142990 142005 141749
          142990 142738 141749 141499 142738 142490 141499 141253 142490 142247 141253 141011
          142247 142007 141011 140773 142007 141771 140773 140537 141771 141538 140537 140305
          141538 141308 140305 140075 141308 141081 140075 139848 141081 140857 139848 139623
          140857 140635 139623 139402 140635 140416 139402 139183 140416 140200 139183 138966
          140200 139987 138966 138753 139987 139777 138753 138543 139777 139570 138543 138336
          139570 139367 138336 138133 139367 139166 138133 137932 139166 138969 137932 137735
          138969 138775 137735 137541 138775 138584 137541 137350 138584 138395 137350 137163
          138395 138210 137163 136977 138210 138026 136977 136795 138026 137845 136795 136614
          137845 137666 136614 136436 137666 137488 136436 136259 137488 137312 136259 136083
          137312 137137 136083 135909 137137 136962 135909 135735 136962 136788 135735 135561
          148897 148248 147211 146646 148248 147625 146646 146096 147625 147043 146096 145573
          147043 146506 145573 145081 146506 146012 145081 144622 146012 145557 144622 144194
          145557 145136 144194 143795 145136 144744 143795 143421 144744 144377 143421 143069
          144377 144032 143069 142736 144032 143706 142736 142420 143706 143395 142420 142118
          143395 143097 142118 141829 143097 142811 141829 141549 142811 142535 141549 141278
          142535 142266 141278 141014 142266 142005 141014 140756 142005 141749 140756 140504
          141749 141499 140504 140256 141499 141253 140256 140012 141253 141011 140012 139772
          141011 140773 139772 139535 140773 140537 139535 139300 140537 140305 139300 139068
          140305 140075 139068 138839 140075 139848 138839 138612 139848 139623 138612 138387
          139623 139402 138387 138165 139402 139183 138165 137946 139183 138966 137946 137730
          138966 138753 137730 137516 138753 138543 137516 137306 138543 138336 137306 137099
          138336 138133 137099 136895 138133 137932 136895 136695 137932 137735 136695 136498
          137735 137541 136498 136304 137541 137350 136304 136114 137350 137163 136114 135927
          137163 136977 135927 135743 136977 136795 135743 135561 136795 136614 135561 135381
          136614 136436 135381 135204 136436 136259 135204 135028 136259 136083 135028 134854