<?xml version="1.0"?>
<VTKFile type="UnstructuredGrid" version="0.1" byte_order="LittleEndian">
  <UnstructuredGrid>
    <Piece NumberOfCells="1000" NumberOfPoints="1331">
      <CellData Scalars="wetting pressure">
        <DataArray type="Float32" Name="wetting pressure" NumberOfComponents="1" format="ascii">
          265546 270751 272321 271367 268375 263505 256701 247724 236070 220666 265552 270772
          272363 271439 268485 263657 256872 247881 236177 220703 265562 270804 272428 271553
          268667 263933 257198 248189 236387 220776 265569 270829 272481 271651 268809 264249
          257620 248629 236674 220869 265568 270830 272488 271670 268818 264219 257902 249133
          236925 220935 265557 270796 272428 271583 268732 264180 257562 248577 236639 220856
          265538 270735 272318 271411 268508 263771 257050 248066 236305 220747 265516 270666
          272192 271214 268225 263383 256614 247668 236037 220654 265498 270608 272087 271053
          268001 263103 256315 247403 235857 220591 265487 270575 272029 270965 267882 262959
          256164 247271 235768 220560 261995 264557 264995 263526 260336 255480 248895 240438
          229906 217126 262003 264583 265047 263618 260482 255682 249115 240634 230038 217172
          262015 264623 265130 263771 260743 256089 249569 241045 230312 217264 262024 264655
          265203 263914 260959 256673 250270 241720 230756 217398 262024 264659 265223 263983
          261199 256747 250571 242596 231436 217530 262012 264620 265148 263845 260877 256575
          250241 241679 230723 217386 261990 264551 265016 263626 260584 255926 249427 240925
          230230 217235 261965 264471 264868 263382 260209 255397 248849 240414 229892 217120
          261944 264405 264747 263191 259936 255050 248482 240095 229679 217047 261932 264368
          264680 263089 259795 254879 248305 239942 229577 217011 260243 260463 259526 257316
          253818 248985 242741 235032 225859 215392 260253 260496 259595 257444 254028 249269
          243040 235287 226025 215448 260268 260549 259710 257669 254449 249895 243697 235846
          226384 215566 260281 260594 259817 257897 254875 250833 244865 236841 226995 215745
          260282 260604 259854 258028 255355 251145 245402 238161 227978 215931 260268 260557
          259759 257828 254817 250796 244889 236822 226969 215734 260242 260471 259588 257516
          254294 249747 243575 235735 226303 215536 260212 260374 259399 257187 253734 248965
          242759 235053 225869 215393 260187 260294 259249 256942 253369 248503 242282 234651
          225607 215304 260173 260250 259167 256814 253190 248286 242060 234463 225484 215261
          259126 257491 255259 252269 248424 243616 237756 230835 222940 214294 259139 257534
          255349 252437 248705 243987 238130 231145 223137 214360 259158 257602 255499 252741
          249302 244833 238968 231826 223560 214497 259174 257662 255643 253059 249954 246086
          240482 233028 224266 214703 259177 257676 255694 253226 250518 246480 241146 234518
          225326 214908 259160 257621 255579 252984 249890 246029 240748 233064 224251 214694
          259128 257516 255364 252575 249138 244685 238895 231731 223481 214467 259092 257397
          255129 252150 248378 243653 237832 230894 222967 214300 259062 257300 254944 251842
          247911 243066 237235 230405 222657 214195 259045 257246 254845 251684 247689 242797
          236964 230180 222511 214145 258262 255075 251661 247911 243714 238930 233456 227305
          220575 213448 258277 255126 251770 248114 244052 239368 233888 227654 220794 213521
          258300 255209 251952 248484 244776 240366 234842 228409 221253 213669 258320 255282
          252126 248866 245571 241804 236517 229696 221983 213883 258324 255300 252186 249052
          246147 242205 237248 231235 222981 214081 258304 255236 252055 248782 245495 241716
          236995 229774 221974 213874 258267 255112 251801 248297 244593 240203 234796 228316
          221168 213636 258224 254972 251520 247788 243682 238991 233558 227374 220604 213454
          258189 254856 251300 247421 243125 238300 232864 226817 220254 213336 258169 254793
          251181 247233 242860 237983 232547 226558 220088 213280 257470 252834 248289 243799
          239255 234494 229405 224004 218388 212676 257488 252895 248416 244033 239639 234984
          229881 224384 218624 212754 257515 252991 248627 244453 240442 236074 230904 225183
          219103 212909 257539 253076 248825 244878 241303 237584 232622 226484 219821 213119
          257543 253098 248892 245075 241884 237994 233365 228007 220701 213299 257521 253025
          248746 244785 241221 237505 232908 226516 219799 213107 257478 252883 248457 244242
          240234 235882 230794 225053 219000 212870 257428 252720 248133 243662 239216 234551
          229491 224058 218406 212678 257387 252585 247876 243237 238580 233773 228725 223447
          218024 212550 257363 252510 247738 243018 238273 233409 228368 223157 217840 212487
          256613 250443 244736 239507 234629 229900 225190 220539 216063 211844 256634 250514
          244884 239778 235067 230452 225722 220959 216321 211929 256666 250626 245127 240253
          235952 231635 226825 221814 216828 212092 256694 250724 245350 240721 236860 233189
          228570 223130 217538 212301 256699 250748 245425 240930 237452 233619 229317 224636
          218296 212462 256674 250667 245263 240618 236771 233117 228577 223097 217498 212285
          256625 250505 244936 240016 235717 231409 226627 221637 216702 212046 256568 250317
          244565 239358 234586 229954 225262 220580 216071 211841 256519 250160 244266 238866
          233856 229071 224410 219903 215650 211701 256492 250074 244105 238609 233498 228652
          224002 219575 215442 211630 255511 247518 240556 234595 229418 224733 220388 216479
          213226 210772 255535 247602 240734 234924 229953 225405 221026 216976 213525 210870
          255573 247735 241021 235488 230994 226779 222305 217960 214099 211053 255605 247849
          241281 236024 231996 228430 224163 219381 214853 211277 255612 247878 241369 236258
          232628 228908 224956 220917 215528 211428 255584 247787 241186 235911 231901 228353
          224179 219349 214813 211260 255528 247601 240812 235228 230735 226529 222086 217767
          213962 211004 255462 247384 240379 234457 229416 224847 220509 216551 213245 210773
          255406 247202 240028 233868 228536 223786 219496 215756 212758 210611 255374 247100
          239836 233561 228102 223277 219009 215369 212516 210530 253776 243479 235196 228573
          223178 218558 214511 211269 209288 209073 253804 243579 235415 228998 223913 219488
          215364 211906 209658 209191 253849 243736 235765 229713 225292 221330 217076 213189
          210373 209413 253886 243870 236076 230366 226527 223195 219259 214998 211300 209683
          253894 243907 236183 230651 227281 223790 220141 216510 212000 209848 253863 243804
          235975 230248 226428 223088 219599 215059 211281 209669 253800 243593 235540 229436
          225022 221073 216908 213016 210239 209363 253725 243343 235031 228491 223336 218890
          214812 211452 209358 209086 253661 243133 234614 227764 222188 217489 213509 210462
          208770 208894 253625 243016 234388 227389 221637 216840 212901 209991 208482 208799
          250237 237327 227958 220900 215430 210879 206980 204160 203217 205561 250269 237440
          228217 221449 216571 212359 208178 204984 203667 205701 250318 237617 228631 222369
          218648 215479 211012 206819 204583 205971 250359 237769 228993 223177 220392 217439
          213915 210111 205894 206317 250369 237812 229121 223538 221461 218365 214796 211221
          206940 206538 250336 237700 228888 223056 220294 217354 213870 210312 205907 206309
          250268 237469 228398 222086 218384 215235 210841 206675 204458 205923 250186 237194
          227817 220926 216011 211784 207608 204515 203356 205592 250117 236962 227342 220036
          214364 209724 205897 203294 202664 205371 250078 236834 227087 219594 213671 208896
          205157 202742 202336 205264
        </DataArray>
        <DataArray type="Float32" Name="nonwetting pressure" NumberOfComponents="1" format="ascii">
          265546 270751 272321 271367 268375 263505 256701 247724 236070 220666 265552 270772
          272363 271439 268485 263657 256872 247881 236177 220703 265562 270804 272428 271553
          268667 263933 257198 248189 236387 220776 265569 270829 272481 271651 268822 264249
          257620 248629 236674 220869 265568 270830 272488 271670 269226 264363 257960 249133
          236925 220935 265557 270796 272428 271583 268748 264180 257562 248577 236639 220856
          265538 270735 272318 271411 268508 263771 257050 248066 236305 220747 265516 270666
          272192 271214 268225 263383 256614 247668 236037 220654 265498 270608 272087 271053
          268001 263103 256315 247403 235857 220591 265487 270575 272029 270965 267882 262959
          256164 247271 235768 220560 261995 264557 264995 263526 260336 255480 248895 240438
          229906 217126 262003 264583 265047 263618 260482 255682 249115 240634 230038 217172
          262015 264623 265130 263771 260743 256089 249569 241045 230312 217264 262024 264655
          265203 263914 261025 256700 250270 241720 230756 217398 262024 264659 265223 263983
          261883 257085 250751 242677 231436 217530 262012 264620 265148 263845 260950 256610
          250241 241679 230723 217386 261990 264551 265016 263626 260584 255926 249427 240925
          230230 217235 261965 264471 264868 263382 260209 255397 248849 240414 229892 217120
          261944 264405 264747 263191 259936 255050 248482 240095 229679 217047 261932 264368
          264680 263089 259795 254879 248305 239942 229577 217011 260243 260463 259526 257316
          253818 248985 242741 235032 225859 215392 260253 260496 259595 257444 254028 249269
          243040 235287 226025 215448 260268 260549 259710 257669 254449 249895 243697 235846
          226384 215566 260281 260594 259817 257897 255012 250915 244865 236841 226995 215745
          260282 260604 259854 258028 256153 251589 245661 238289 227978 215931 260268 260557
          259759 257828 254961 250885 244889 236822 226969 215734 260242 260471 259588 257516
          254294 249747 243575 235735 226303 215536 260212 260374 259399 257187 253734 248965
          242759 235053 225869 215393 260187 260294 259249 256942 253369 248503 242282 234651
          225607 215304 260173 260250 259167 256814 253190 248286 242060 234463 225484 215261
          259126 257491 255259 252269 248424 243616 237756 230835 222940 214294 259139 257534
          255349 252437 248705 243987 238130 231145 223137 214360 259158 257602 255499 252741
          249302 244833 238968 231826 223560 214497 259174 257662 255643 253059 250132 246208
          240482 233028 224266 214703 259177 257676 255694 253226 251344 246956 241430 234659
          225326 214908 259160 257621 255579 252984 250074 246158 240748 233064 224251 214694
          259128 257516 255364 252575 249138 244685 238895 231731 223481 214467 259092 257397
          255129 252150 248378 243653 237832 230894 222967 214300 259062 257300 254944 251842
          247911 243066 237235 230405 222657 214195 259045 257246 254845 251684 247689 242797
          236964 230180 222511 214145 258262 255075 251661 247911 243714 238930 233456 227305
          220575 213448 258277 255126 251770 248114 244052 239368 233888 227654 220794 213521
          258300 255209 251952 248484 244776 240366 234842 228409 221253 213669 258320 255282
          252126 248866 245759 241938 236517 229696 221983 213883 258324 255300 252186 249052
          246973 242685 237534 231370 222981 214081 258304 255236 252055 248782 245690 241859
          237003 229774 221974 213874 258267 255112 251801 248297 244593 240203 234796 228316
          221168 213636 258224 254972 251520 247788 243682 238991 233558 227374 220604 213454
          258189 254856 251300 247421 243125 238300 232864 226817 220254 213336 258169 254793
          251181 247233 242860 237983 232547 226558 220088 213280 257470 252834 248289 243799
          239255 234494 229405 224004 218388 212676 257488 252895 248416 244033 239639 234984
          229881 224384 218624 212754 257515 252991 248627 244453 240442 236074 230904 225183
          219103 212909 257539 253076 248825 244878 241487 237720 232622 226484 219821 213119
          257543 253098 248892 245075 242702 238472 233644 228127 220701 213299 257521 253025
          248746 244785 241412 237649 232909 226516 219799 213107 257478 252883 248457 244242
          240234 235882 230794 225053 219000 212870 257428 252720 248133 243662 239216 234551
          229491 224058 218406 212678 257387 252585 247876 243237 238580 233773 228725 223447
          218024 212550 257363 252510 247738 243018 238273 233409 228368 223157 217840 212487
          256613 250443 244736 239507 234629 229900 225190 220539 216063 211844 256634 250514
          244884 239778 235067 230452 225722 220959 216321 211929 256666 250626 245127 240253
          235952 231635 226825 221814 216828 212092 256694 250724 245350 240721 237039 233325
          228570 223130 217538 212301 256699 250748 245425 240930 238264 234095 229588 224737
          218296 212462 256674 250667 245263 240618 236958 233260 228577 223097 217498 212285
          256625 250505 244936 240016 235717 231409 226627 221637 216702 212046 256568 250317
          244565 239358 234586 229954 225262 220580 216071 211841 256519 250160 244266 238866
          233856 229071 224410 219903 215650 211701 256492 250074 244105 238609 233498 228652
          224002 219575 215442 211630 255511 247518 240556 234595 229418 224733 220388 216479
          213226 210772 255535 247602 240734 234924 229953 225405 221026 216976 213525 210870
          255573 247735 241021 235488 230994 226779 222305 217960 214099 211053 255605 247849
          241281 236024 232174 228567 224163 219381 214853 211277 255612 247878 241369 236258
          233443 229384 225220 220994 215528 211428 255584 247787 241186 235911 232087 228497
          224179 219349 214813 211260 255528 247601 240812 235228 230735 226529 222086 217767
          213962 211004 255462 247384 240379 234457 229416 224847 220509 216551 213245 210773
          255406 247202 240028 233868 228536 223786 219496 215756 212758 210611 255374 247100
          239836 233561 228102 223277 219009 215369 212516 210530 253776 243479 235196 228573
          223178 218558 214511 211269 209288 209073 253804 243579 235415 228998 223913 219488
          215364 211906 209658 209191 253849 243736 235765 229713 225292 221330 217076 213189
          210373 209413 253886 243870 236076 230366 226724 223344 219259 214998 211300 209683
          253894 243907 236183 230651 228134 224283 220408 216576 212000 209848 253863 243804
          235975 230248 226633 223247 219606 215059 211281 209669 253800 243593 235540 229436
          225022 221073 216908 213016 210239 209363 253725 243343 235031 228491 223336 218890
          214812 211452 209358 209086 253661 243133 234614 227764 222188 217489 213509 210462
          208770 208894 253625 243016 234388 227389 221637 216840 212901 209991 208482 208799
          250237 237327 227958 220900 215430 210879 206980 204160 203217 205561 250269 237440
          228217 221449 216571 212359 208178 204984 203667 205701 250318 237617 228631 222369
          218815 215620 211012 206819 204583 205971 250359 237769 228993 223177 220973 217934
          214187 210122 205894 206317 250369 237812 229121 223538 222832 219302 215414 211503
          206940 206538 250336 237700 228888 223056 220887 217860 214151 210331 205907 206309
          250268 237469 228398 222086 218565 215392 210841 206675 204458 205923 250186 237194
          227817 220926 216011 211784 207608 204515 203356 205592 250117 236962 227342 220036
          214364 209724 205897 203294 202664 205371 250078 236834 227087 219594 213671 208896
          205157 202742 202336 205264
        </DataArray>
        <DataArray type="Float32" Name="wetting saturation" NumberOfComponents="1" format="ascii">
          1 1 1 1 1 1 1 1 1 1 1 1
          1 1 1 1 1 1 1 1 1 1 1 1
          1 1 1 1 1 1 1 1 1 1 0.998728 1
          1 1 1 1 1 1 1 1 0.95928 0.985587 0.994214 1
          1 1 1 1 1 1 0.998468 1 1 1 1 1
          1 1 1 1 1 1 1 1 1 1 1 1
          1 1 1 1 1 1 1 1 1 1 1 1
          1 1 1 1 1 1 1 1 1 1 1 1
          1 1 1 1 1 1 1 1 1 1 1 1
          1 1 1 1 1 1 1 1 1 1 1 1
          1 1 1 1 1 1 1 1 1 1 1 1
          1 1 0.993354 0.997259 1 1 1 1 1 1 1 1
          0.931559 0.966176 0.98198 0.991932 1 1 1 1 1 1 0.992685 0.996505
          1 1 1 1 1 1 1 1 1 1 1 1
          1 1 1 1 1 1 1 1 1 1 1 1
          1 1 1 1 1 1 1 1 1 1 1 1
          1 1 1 1 1 1 1 1 1 1 1 1
          1 1 1 1 1 1 1 1 1 1 1 1
          1 1 1 1 1 1 1 1 1 1 1 1
          1 1 1 1 1 1 0.986257 0.991795 1 1 1 1
          1 1 1 1 0.920147 0.955587 0.974126 0.987239 1 1 1 1
          1 1 0.985573 0.991109 1 1 1 1 1 1 1 1
          1 1 1 1 1 1 1 1 1 1 1 1
          1 1 1 1 1 1 1 1 1 1 1 1
          1 1 1 1 1 1 1 1 1 1 1 1
          1 1 1 1 1 1 1 1 1 1 1 1
          1 1 1 1 1 1 1 1 1 1 1 1
          1 1 1 1 1 1 1 1 1 1 0.982221 0.987865
          1 1 1 1 1 1 1 1 0.917381 0.952476 0.971568 0.98589
          1 1 1 1 1 1 0.981541 0.987147 0.999988 1 1 1
          1 1 1 1 1 1 1 1 1 1 1 1
          1 1 1 1 1 1 1 1 1 1 1 1
          1 1 1 1 1 1 1 1 1 1 1 1
          1 1 1 1 1 1 1 1 1 1 1 1
          1 1 1 1 1 1 1 1 1 1 1 1
          1 1 1 1 1 1 1 1 1 1 1 1
          1 1 0.981271 0.986593 1 1 1 1 1 1 1 1
          0.917441 0.95204 0.971438 0.986527 1 1 1 1 1 1 0.980562 0.985695
          0.999174 1 1 1 1 1 1 1 1 1 1 1
          1 1 1 1 1 1 1 1 1 1 1 1
          1 1 1 1 1 1 1 1 1 1 1 1
          1 1 1 1 1 1 1 1 1 1 1 1
          1 1 1 1 1 1 1 1 1 1 1 1
          1 1 1 1 1 1 1 1 1 1 1 1
          1 1 1 1 1 1 0.981582 0.986399 1 1 1 1
          1 1 1 1 0.918194 0.952216 0.972108 0.987996 1 1 1 1
          1 1 0.980841 0.985583 0.999884 1 1 1 1 1 1 1
          1 1 1 1 1 1 1 1 1 1 1 1
          1 1 1 1 1 1 1 1 1 1 1 1
          1 1 1 1 1 1 1 1 1 1 1 1
          1 1 1 1 1 1 1 1 1 1 1 1
          1 1 1 1 1 1 1 1 1 1 1 1
          1 1 1 1 1 1 1 1 1 1 0.982105 0.986453
          1 1 1 1 1 1 1 1 0.918787 0.952423 0.97293 0.98992
          1 1 1 1 1 1 0.98133 0.985721 1 1 1 1
          1 1 1 1 1 1 1 1 1 1 1 1
          1 1 1 1 1 1 1 1 1 1 1 1
          1 1 1 1 1 1 1 1 1 1 1 1
          1 1 1 1 1 1 1 1 1 1 1 1
          1 1 1 1 1 1 1 1 1 1 1 1
          1 1 1 1 1 1 1 1 1 1 1 1
          1 1 0.982182 0.986319 1 1 1 1 1 1 1 1
          0.918525 0.95242 0.973678 0.992294 1 1 1 1 1 1 0.981381 0.985569
          1 1 1 1 1 1 1 1 1 1 1 1
          1 1 1 1 1 1 1 1 1 1 1 1
          1 1 1 1 1 1 1 1 1 1 1 1
          1 1 1 1 1 1 1 1 1 1 1 1
          1 1 1 1 1 1 1 1 1 1 1 1
          1 1 1 1 1 1 1 1 1 1 1 1
          1 1 1 1 1 1 0.980272 0.985018 1 1 1 1
          1 1 1 1 0.91469 0.950634 0.973237 0.993462 1 1 1 1
          1 1 0.979455 0.984041 0.99929 1 1 1 1 1 1 1
          1 1 1 1 1 1 1 1 1 1 1 1
          1 1 1 1 1 1 1 1 1 1 1 1
          1 1 1 1 1 1 1 1 1 1 1 1
          1 1 1 1 1 1 1 1 1 1 1 1
          1 1 1 1 1 1 1 1 1 1 1 1
          0.98332 0.985951 1 1 1 1 1 1 1 1 0.941906 0.9505
          0.972763 0.998915 1 1 1 1 1 1 0.862848 0.906237 0.938125 0.971807
          1 1 1 1 1 1 0.940692 0.949383 0.971916 0.998082 1 1
          1 1 1 1 0.981932 0.98433 1 1 1 1 1 1
          1 1 1 1 1 1 1 1 1 1 1 1
          1 1 1 1 1 1 1 1 1 1 1 1
          1 1 1 1
        </DataArray>
        <DataArray type="Float32" Name="C^w from cellData" NumberOfComponents="1" format="ascii">
          199.956 199.956 199.956 199.956 199.956 199.956 199.955 199.954 199.953 199.952 199.956 199.956
          199.956 199.956 199.956 199.956 199.955 199.954 199.953 199.952 199.956 199.956 199.956 199.956
          199.953 199.956 199.955 199.954 199.953 199.952 199.956 199.956 199.956 199.942 199.327 199.667
          199.926 199.954 199.953 199.952 199.956 199.956 199.956 199.846 191.622 196.792 198.101 199.318
          199.953 199.952 199.956 199.956 199.956 199.94 199.264 199.617 199.921 199.954 199.953 199.952
          199.956 199.956 199.956 199.956 199.948 199.956 199.955 199.954 199.953 199.952 199.956 199.956
          199.956 199.956 199.956 199.956 199.955 199.954 199.953 199.952 199.956 199.956 199.957 199.956
          199.956 199.956 199.955 199.954 199.953 199.952 199.956 199.956 199.957 199.956 199.956 199.956
          199.955 199.954 199.953 199.952 199.956 199.956 199.956 199.956 199.955 199.955 199.954 199.954
          199.953 199.951 199.956 199.956 199.956 199.956 199.955 199.955 199.954 199.954 199.953 199.951
          199.956 199.956 199.956 199.956 199.84 199.95 199.954 199.954 199.953 199.951 199.956 199.956
          199.956 199.926 198.231 198.927 199.668 199.92 199.953 199.951 199.956 199.956 199.956 199.751
          186.474 192.953 195.961 197.563 199.558 199.951 199.956 199.956 199.956 199.926 198.122 198.787
          199.614 199.918 199.953 199.951 199.956 199.956 199.956 199.956 199.805 199.945 199.954 199.954
          199.953 199.951 199.956 199.956 199.956 199.956 199.955 199.955 199.954 199.954 199.953 199.951
          199.956 199.956 199.956 199.956 199.955 199.955 199.954 199.954 199.953 199.951 199.956 199.956
          199.956 199.956 199.955 199.955 199.954 199.954 199.953 199.951 199.955 199.955 199.955 199.955
          199.955 199.954 199.954 199.953 199.952 199.951 199.955 199.955 199.955 199.955 199.955 199.954
          199.954 199.953 199.952 199.951 199.955 199.955 199.955 199.955 199.639 199.865 199.954 199.953
          199.952 199.951 199.955 199.955 199.955 199.926 196.84 197.622 199.17 199.836 199.952 199.951
          199.955 199.955 199.955 199.776 184.237 190.982 194.237 196.291 199.119 199.951 199.955 199.955
          199.955 199.924 196.69 197.453 199.133 199.831 199.952 199.951 199.955 199.955 199.955 199.955
          199.603 199.841 199.954 199.953 199.952 199.951 199.955 199.955 199.955 199.955 199.955 199.954
          199.954 199.953 199.952 199.951 199.955 199.955 199.955 199.955 199.955 199.954 199.954 199.953
          199.952 199.951 199.955 199.955 199.955 199.955 199.955 199.954 199.954 199.953 199.952 199.951
          199.955 199.955 199.955 199.955 199.954 199.954 199.953 199.953 199.952 199.951 199.955 199.955
          199.955 199.955 199.954 199.954 199.953 199.953 199.952 199.951 199.955 199.955 199.955 199.954
          199.539 199.763 199.953 199.953 199.952 199.951 199.955 199.955 199.955 199.922 195.981 196.685
          199 199.806 199.952 199.951 199.955 199.955 199.955 199.807 183.634 190.375 193.64 195.984
          199.13 199.951 199.955 199.955 199.955 199.922 195.825 196.546 198.901 199.801 199.952 199.951
          199.955 199.955 199.955 199.954 199.505 199.725 199.953 199.953 199.952 199.951 199.955 199.955
          199.955 199.955 199.954 199.954 199.953 199.953 199.952 199.951 199.955 199.955 199.955 199.955
          199.954 199.954 199.953 199.953 199.952 199.951 199.955 199.955 199.955 199.955 199.954 199.954
          199.953 199.953 199.952 199.951 199.955 199.955 199.955 199.954 199.954 199.953 199.953 199.952
          199.952 199.951 199.955 199.955 199.955 199.954 199.954 199.953 199.953 199.952 199.952 199.951
          199.955 199.955 199.955 199.954 199.501 199.713 199.953 199.952 199.952 199.951 199.955 199.955
          199.954 199.919 195.764 196.396 198.971 199.825 199.952 199.951 199.955 199.955 199.954 199.872
          183.618 190.281 193.596 196.22 199.316 199.951 199.955 199.955 199.954 199.919 195.599 196.273
          198.78 199.819 199.952 199.951 199.955 199.955 199.955 199.954 199.466 199.666 199.952 199.952
          199.952 199.951 199.955 199.955 199.955 199.954 199.954 199.953 199.953 199.952 199.952 199.951
          199.955 199.955 199.955 199.954 199.954 199.953 199.953 199.952 199.952 199.951 199.955 199.955
          199.955 199.954 199.954 199.953 199.953 199.952 199.952 199.951 199.955 199.955 199.954 199.954
          199.953 199.953 199.952 199.952 199.951 199.951 199.955 199.955 199.954 199.954 199.953 199.953
          199.952 199.952 199.951 199.951 199.955 199.955 199.954 199.954 199.493 199.698 199.952 199.952
          199.952 199.951 199.955 199.955 199.954 199.914 195.819 196.369 198.993 199.862 199.952 199.951
          199.955 199.955 199.954 199.874 183.776 190.312 193.714 196.686 199.551 199.951 199.955 199.955
          199.954 199.914 195.645 196.215 198.88 199.858 199.952 199.951 199.955 199.955 199.954 199.954
          199.455 199.645 199.952 199.952 199.952 199.951 199.955 199.955 199.954 199.954 199.953 199.953
          199.952 199.952 199.951 199.951 199.955 199.955 199.954 199.954 199.953 199.953 199.952 199.952
          199.951 199.951 199.955 199.955 199.954 199.954 199.953 199.953 199.952 199.952 199.951 199.951
          199.955 199.954 199.954 199.953 199.953 199.952 199.952 199.952 199.951 199.951 199.955 199.954
          199.954 199.953 199.953 199.952 199.952 199.952 199.951 199.951 199.955 199.954 199.954 199.953
          199.489 199.689 199.952 199.952 199.951 199.951 199.955 199.954 199.954 199.91 195.923 196.403
          199.027 199.897 199.951 199.951 199.955 199.954 199.954 199.914 183.943 190.359 193.846 197.244
          199.738 199.951 199.955 199.954 199.954 199.91 195.74 196.219 198.991 199.894 199.951 199.951
          199.955 199.954 199.954 199.953 199.449 199.632 199.952 199.952 199.951 199.951 199.955 199.954
          199.954 199.953 199.953 199.952 199.952 199.952 199.951 199.951 199.955 199.954 199.954 199.953
          199.953 199.952 199.952 199.952 199.951 199.951 199.955 199.954 199.954 199.953 199.953 199.952
          199.952 199.952 199.951 199.951 199.955 199.954 199.953 199.953 199.952 199.952 199.952 199.951
          199.951 199.951 199.955 199.954 199.953 199.953 199.952 199.952 199.952 199.951 199.951 199.951
          199.955 199.954 199.953 199.953 199.468 199.658 199.952 199.951 199.951 199.951 199.955 199.954
          199.953 199.906 195.929 196.387 199.05 199.924 199.951 199.951 199.955 199.954 199.953 199.901
          183.977 190.378 193.964 197.793 199.859 199.951 199.955 199.954 199.953 199.907 195.738 196.198
          199.013 199.923 199.951 199.951 199.955 199.954 199.953 199.953 199.427 199.6 199.952 199.951
          199.951 199.951 199.955 199.954 199.953 199.953 199.952 199.952 199.952 199.951 199.951 199.951
          199.955 199.954 199.953 199.953 199.952 199.952 199.951 199.951 199.951 199.951 199.955 199.954
          199.953 199.953 199.952 199.952 199.951 199.951 199.951 199.951 199.955 199.954 199.953 199.952
          199.952 199.951 199.951 199.951 199.951 199.951 199.955 199.954 199.953 199.952 199.952 199.951
          199.951 199.951 199.951 199.951 199.955 199.954 199.953 199.952 199.4 199.556 199.951 199.951
          199.951 199.951 199.955 199.954 199.953 199.907 195.501 196.084 199.018 199.931 199.951 199.951
          199.955 199.954 199.953 199.914 183.288 190.056 193.858 198.074 199.898 199.951 199.955 199.954
          199.953 199.907 195.304 195.926 198.831 199.928 199.951 199.951 199.955 199.954 199.953 199.952
          199.361 199.497 199.95 199.951 199.951 199.951 199.955 199.954 199.953 199.952 199.952 199.951
          199.951 199.951 199.951 199.951 199.955 199.954 199.953 199.952 199.952 199.951 199.951 199.951
          199.951 199.951 199.955 199.954 199.953 199.952 199.952 199.951 199.951 199.951 199.951 199.951
          199.955 199.953 199.952 199.952 199.951 199.951 199.95 199.95 199.95 199.95 199.955 199.953
          199.952 199.952 199.586 199.764 199.95 199.95 199.95 199.95 199.955 199.953 199.952 199.929
          196.059 196.362 198.981 199.949 199.95 199.95 199.955 199.953 199.952 199.914 188.115 189.766
          193.232 198.459 199.949 199.95 199.955 199.953 199.952 199.893 172.877 181.43 187.417 193.025
          199.056 199.95 199.955 199.953 199.952 199.914 187.885 189.561 193.076 198.305 199.948 199.95
          199.955 199.953 199.952 199.929 195.737 195.922 198.867 199.949 199.95 199.95 199.955 199.953
          199.952 199.952 199.482 199.683 199.95 199.95 199.95 199.95 199.955 199.953 199.952 199.952
          199.951 199.951 199.95 199.95 199.95 199.95 199.955 199.953 199.952 199.952 199.951 199.95
          199.95 199.95 199.95 199.95
        </DataArray>
        <DataArray type="Float32" Name="C^n from cellData" NumberOfComponents="1" format="ascii">
          0 0 0 3.48997e-15 6.38369e-11 4.54376e-12 1.40452e-13 2.55889e-15 8.10092e-18 0 0 0
          5.39721e-16 8.60919e-12 1.12165e-07 9.65353e-09 3.73825e-10 7.68502e-12 1.10977e-13 1.41338e-15 7.50853e-18 1.04385e-14 9.68615e-13 7.81735e-09
          9.01607e-05 7.92695e-06 4.67345e-07 1.0927e-08 1.58233e-10 2.09096e-12 2.82597e-13 1.39653e-11 1.03472e-09 3.67314e-06 0.0166256 0.00358992
          0.000411534 1.15356e-05 1.58336e-07 1.93682e-09 6.10471e-10 2.46056e-08 1.39706e-06 0.00142598 0.0420026 0.0246394 0.018695 0.00771817
          0.000129063 1.62867e-06 4.81061e-13 2.50964e-11 1.875e-09 4.82135e-06 0.0167866 0.00437281 0.000480029 1.29998e-05 1.78053e-07 2.17478e-09
          2.17931e-16 2.22861e-14 2.17636e-12 1.22111e-08 0.000153253 1.11617e-05 6.30952e-07 1.42174e-08 2.02809e-10 2.65142e-12 0 2.4961e-18
          1.66163e-15 1.79316e-11 2.07905e-07 1.66099e-08 6.26441e-10 1.24688e-11 1.76049e-13 2.11015e-15 0 0 0 1.31506e-14
          1.8221e-10 1.27719e-11 3.82873e-13 6.85528e-15 2.02032e-17 0 0 0 0 0 6.49614e-14 3.72798e-15
          6.14321e-17 0 0 0 0 0 0 1.05149e-14 6.60416e-10 3.45992e-11 1.07122e-12 1.60942e-14
          4.007e-17 0 0 0 5.70508e-16 2.3248e-11 1.58223e-06 8.59849e-08 3.62114e-09 6.81542e-11 6.78956e-13 4.8103e-15