<?xml version="1.0"?>
<VTKFile type="UnstructuredGrid" version="0.1" byte_order="LittleEndian">
  <UnstructuredGrid>
    <Piece NumberOfCells="1600" NumberOfPoints="1681">
      <CellData Scalars="rank" Vectors="velocity">
        <DataArray type="Float32" Name="velocity" NumberOfComponents="3" format="ascii">
          3.67692e-06 -3.67692e-06 0 3.0358e-05 -1.05006e-05 0 1.05006e-05 -3.0358e-05 0 8.57251e-05 -8.57251e-05 0
          8.03699e-05 -1.63549e-05 0 0.00014966 -2.12016e-05 0 0.000234425 -2.50622e-05 0 0.000226466 -0.000132431 0
          0.000421395 -0.00017074 0 0.000659837 -0.000201041 0 1.63549e-05 -8.03699e-05 0 2.12016e-05 -0.00014966 0
          0.000132431 -0.000226466 0 0.00017074 -0.000421395 0 2.50622e-05 -0.000234425 0 0.000201041 -0.000659837 0
          0.000349248 -0.000349248 0 0.000649424 -0.000449746 0 0.000449746 -0.000649424 0 0.000835897 -0.000835897 0
          0.00101656 -0.000529111 0 0.00130813 -0.000983057 0 0.000529111 -0.00101656 0 0.000983057 -0.00130813 0
          0.00153814 -0.00153814 0 0.000331095 -2.79777e-05 0 0.00043633 -2.99978e-05 0 0.000931765 -0.000223769 0
          0.00122779 -0.000239385 0 0.00054702 -3.11772e-05 0 0.000660278 -3.15736e-05 0 0.000773441 -3.12465e-05 0
          0.00153917 -0.000248362 0 0.00185777 -0.000251178 0 0.00217611 -0.000248318 0 0.00143524 -0.000588553 0
          0.00184664 -0.00109321 0 0.00189103 -0.000629317 0 0.00243285 -0.00116868 0 0.00217109 -0.00171024 0
          0.00286011 -0.00182812 0 0.00237044 -0.000652665 0 0.00286099 -0.000659868 0 0.00304945 -0.00121185 0
          0.00368038 -0.00122507 0 0.00335113 -0.000652208 0 0.00431079 -0.00121073 0 0.00358483 -0.00189548 0
          0.00432638 -0.00191603 0 0.00506733 -0.00189351 0 2.79777e-05 -0.000331095 0 0.000223769 -0.000931765 0
          2.99978e-05 -0.00043633 0 0.000239385 -0.00122779 0 0.000588553 -0.00143524 0 0.00109321 -0.00184664 0
          0.00171024 -0.00217109 0 0.000629317 -0.00189103 0 0.00116868 -0.00243285 0 0.00182812 -0.00286011 0
          3.11772e-05 -0.00054702 0 3.15736e-05 -0.000660278 0 0.000248362 -0.00153917 0 0.000251178 -0.00185777 0
          3.12465e-05 -0.000773441 0 0.000248318 -0.00217611 0 0.000652665 -0.00237044 0 0.00121185 -0.00304945 0
          0.000659868 -0.00286099 0 0.00122507 -0.00368038 0 0.00189548 -0.00358483 0 0.00191603 -0.00432638 0
          0.000652208 -0.00335113 0 0.00121073 -0.00431079 0 0.00189351 -0.00506733 0 0.00241381 -0.00241381 0
          0.00317967 -0.00258001 0 0.00258001 -0.00317967 0 0.00339845 -0.00339845 0 0.00398522 -0.00267492 0
          0.00480947 -0.00270382 0 0.00563305 -0.00267196 0 0.0042593 -0.00352336 0 0.00514012 -0.00356132 0
          0.00602023 -0.00351928 0 0.00267492 -0.00398522 0 0.00270382 -0.00480947 0 0.00352336 -0.0042593 0
          0.00356132 -0.00514012 0 0.00267196 -0.00563305 0 0.00351928 -0.00602023 0 0.00441574 -0.00441574 0
          0.00532882 -0.00446323 0 0.00446323 -0.00532882 0 0.00538606 -0.00538606 0 0.00624115 -0.00441048 0
          0.00630812 -0.00532234 0 0.00441048 -0.00624115 0 0.00532234 -0.00630812 0 0.00623345 -0.00623345 0
          0.00088407 -3.02566e-05 0 0.000989948 -2.86655e-05 0 0.00248732 -0.000240271 0 0.00278517 -0.000227526 0
          0.00108908 -2.65353e-05 0 0.0011797 -2.39288e-05 0 0.00126024 -2.09086e-05 0 0.00306405 -0.000210574 0
          0.00331896 -0.00018991 0 0.00354556 -0.000166024 0 0.00383031 -0.000630967 0 0.00492709 -0.00117122 0
          0.00428892 -0.000597435 0 0.00551695 -0.00110893 0 0.00579171 -0.00183165 0 0.00648499 -0.00173419 0
          0.00471832 -0.000552899 0 0.00511082 -0.000498652 0 0.00606923 -0.00102625 0 0.00657407 -0.000925567 0
          0.00545972 -0.000435985 0 0.00702282 -0.000809289 0 0.00713412 -0.00160487 0 0.00772748 -0.00144744 0
          0.00825493 -0.00126563 0 0.00132939 -1.75379e-05 0 0.00138604 -1.38801e-05 0 0.00374009 -0.000139413 0
          0.00389945 -0.00011057 0 0.0014293 -9.99839e-06 0 0.0014585 -5.95631e-06 0 0.0014732 -1.81733e-06 0
          0.00402113 -7.99895e-05 0 0.00410329 -4.81665e-05 0 0.00414465 -1.5596e-05 0 0.00575925 -0.000366193 0
          0.00740807 -0.000679809 0 0.00600462 -0.000290567 0 0.00772366 -0.000539523 0 0.00870774 -0.0010632 0
          0.00907867 -0.000843892 0 0.00619199 -0.000210403 0 0.00631848 -0.000126993 0 0.00796465 -0.000390831 0
          0.00812734 -0.000236131 0 0.00638217 -4.16339e-05 0 0.00820925 -7.78192e-05 0 0.00936192 -0.00061145 0
          0.00955312 -0.000369623 0 0.00964939 -0.000122158 0 0.00643821 -0.00258461 0 0.00720881 -0.00244705 0
          0.00688064 -0.00340418 0 0.00770413 -0.00322297 0 0.00793032 -0.00226456 0 0.00858986 -0.00204242 0
          0.00917612 -0.00178591 0 0.00847516 -0.00298261 0 0.00917996 -0.00269004 0 0.00980646 -0.00235222 0
          0.00713307 -0.00426619 0 0.00720956 -0.00514818 0 0.00798671 -0.00403906 0 0.0080723 -0.00487407 0
          0.00712417 -0.00602943 0 0.00797665 -0.00570839 0 0.00878598 -0.00373782 0 0.00951658 -0.00337118 0
          0.00888009 -0.00451055 0 0.00961848 -0.00406811 0 0.010166 -0.00294785 0 0.0102748 -0.00355729 0
          0.00877483 -0.00528263 0 0.00950444 -0.00476446 0 0.010153 -0.00416621 0 0.00967943 -0.00150032 0
          0.0100917 -0.00119092 0 0.0103443 -0.00197611 0 0.0107849 -0.00156867 0 0.0104065 -0.000863013 0
          0.0106191 -0.000521869 0 0.0107261 -0.000172776 0 0.0111213 -0.00113685 0 0.0113484 -0.000687616 0
          0.0114627 -0.000227916 0 0.0107235 -0.00247655 0 0.0108383 -0.00298858 0 0.0111803 -0.00196599 0
          0.0112999 -0.00237251 0 0.0107097 -0.00350019 0 0.0111658 -0.0027787 0 0.011529 -0.00142489 0
          0.0117644 -0.000861965 0 0.0116523 -0.0017196 0 0.0118902 -0.00104037 0 0.0118829 -0.000285939 0
          0.01201 -0.000345322 0 0.0115141 -0.00201408 0 0.0117491 -0.00121863 0 0.0118674 -0.000404662 0
          3.02566e-05 -0.00088407 0 0.000240271 -0.00248732 0 2.86655e-05 -0.000989948 0 0.000227526 -0.00278517 0
          0.000630967 -0.00383031 0 0.00117122 -0.00492709 0 0.00183165 -0.00579171 0 0.000597435 -0.00428892 0
          0.00110893 -0.00551695 0 0.00173419 -0.00648499 0 2.65353e-05 -0.00108908 0 2.39288e-05 -0.0011797 0
          0.000210574 -0.00306405 0 0.00018991 -0.00331896 0 2.09086e-05 -0.00126024 0 0.000166024 -0.00354556 0
          0.000552899 -0.00471832 0 0.00102625 -0.00606923 0 0.000498652 -0.00511082 0 0.000925567 -0.00657407 0
          0.00160487 -0.00713412 0 0.00144744 -0.00772748 0 0.000435985 -0.00545972 0 0.000809289 -0.00702282 0
          0.00126563 -0.00825493 0 0.00258461 -0.00643821 0 0.00340418 -0.00688064 0 0.00244705 -0.00720881 0
          0.00322297 -0.00770413 0 0.00426619 -0.00713307 0 0.00514818 -0.00720956 0 0.00602943 -0.00712417 0
          0.00403906 -0.00798671 0 0.00487407 -0.0080723 0 0.00570839 -0.00797665 0 0.00226456 -0.00793032 0
          0.00204242 -0.00858986 0 0.00298261 -0.00847516 0 0.00269004 -0.00917996 0 0.00178591 -0.00917612 0
          0.00235222 -0.00980646 0 0.00373782 -0.00878598 0 0.00451055 -0.00888009 0 0.00337118 -0.00951658 0
          0.00406811 -0.00961848 0 0.00528263 -0.00877483 0 0.00476446 -0.00950444 0 0.00294785 -0.010166 0
          0.00355729 -0.0102748 0 0.00416621 -0.010153 0 1.75379e-05 -0.00132939 0 0.000139413 -0.00374009 0
          1.38801e-05 -0.00138604 0 0.00011057 -0.00389945 0 0.000366193 -0.00575925 0 0.000679809 -0.00740807 0
          0.0010632 -0.00870774 0 0.000290567 -0.00600462 0 0.000539523 -0.00772366 0 0.000843892 -0.00907867 0
          9.99839e-06 -0.0014293 0 5.95631e-06 -0.0014585 0 7.99895e-05 -0.00402113 0 4.81665e-05 -0.00410329 0
          1.81733e-06 -0.0014732 0 1.5596e-05 -0.00414465 0 0.000210403 -0.00619199 0 0.000390831 -0.00796465 0
          0.000126993 -0.00631848 0 0.000236131 -0.00812734 0 0.00061145 -0.00936192 0 0.000369623 -0.00955312 0
          4.16339e-05 -0.00638217 0 7.78192e-05 -0.00820925 0 0.000122158 -0.00964939 0 0.00150032 -0.00967943 0
          0.00197611 -0.0103443 0 0.00119092 -0.0100917 0 0.00156867 -0.0107849 0 0.00247655 -0.0107235 0
          0.00298858 -0.0108383 0 0.00350019 -0.0107097 0 0.00196599 -0.0111803 0 0.00237251 -0.0112999 0
          0.0027787 -0.0111658 0 0.000863013 -0.0104065 0 0.000521869 -0.0106191 0 0.00113685 -0.0111213 0
          0.000687616 -0.0113484 0 0.000172776 -0.0107261 0 0.000227916 -0.0114627 0 0.00142489 -0.011529 0
          0.0017196 -0.0116523 0 0.000861965 -0.0117644 0 0.00104037 -0.0118902 0 0.00201408 -0.0115141 0
          0.00121863 -0.0117491 0 0.000285939 -0.0118829 0 0.000345322 -0.01201 0 0.000404662 -0.0118674 0
          0.00689097 -0.00689097 0 0.00771551 -0.00652403 0 0.00652403 -0.00771551 0 0.00730465 -0.00730465 0
          0.00848754 -0.00603742 0 0.00919323 -0.00544522 0 0.00982052 -0.0047615 0 0.00803554 -0.00675981 0
          0.00870364 -0.00609675 0 0.0092975 -0.00533123 0 0.00603742 -0.00848754 0 0.00544522 -0.00919323 0
          0.00675981 -0.00803554 0 0.00609675 -0.00870364 0 0.0047615 -0.00982052 0 0.00533123 -0.0092975 0
          0.00743618 -0.00743618 0 0.00805443 -0.00670677 0 0.00670677 -0.00805443 0 0.00726437 -0.00726437 0
          0.00860398 -0.00586466 0 0.00776001 -0.00635225 0 0.00586466 -0.00860398 0 0.00635225 -0.00776001 0
          0.00678565 -0.00678565 0 0.010359 -0.00400034 0 0.0108002 -0.0031758 0 0.00980732 -0.00447901 0
          0.0102249 -0.00355583 0 0.011137 -0.00230196 0 0.0113643 -0.00139289 0 0.0114787 -0.000462673 0
          0.0105438 -0.00257747 0 0.010759 -0.00155967 0 0.0108673 -0.000518185 0 0.00907575 -0.00492718 0
          0.00818549 -0.00533683 0 0.00946219 -0.00391165 0 0.00853401 -0.00423688 0 0.0071577 -0.00570095 0
          0.00746244 -0.00452596 0 0.00975725 -0.00283542 0 0.00995638 -0.0017158 0 0.00880011 -0.00307119 0
          0.00897968 -0.00185851 0 0.0100566 -0.000570145 0 0.00907001 -0.000617619 0 0.0076951 -0.00328073 0
          0.0078521 -0.00198533 0 0.00793106 -0.000659787 0 0.00400034 -0.010359 0 0.00447901 -0.00980732 0
          0.0031758 -0.0108002 0 0.00355583 -0.0102249 0 0.00492718 -0.00907575 0 0.00533683 -0.00818549 0
          0.00570095 -0.0071577 0 0.00391165 -0.00946219 0 0.00423688 -0.00853401 0 0.00452596 -0.00746244 0
          0.00230196 -0.011137 0 0.00139289 -0.0113643 0 0.00257747 -0.0105438 0 0.00155967 -0.010759 0
          0.000462673 -0.0114787 0 0.000518185 -0.0108673 0 0.00283542 -0.00975725 0 0.00307119 -0.00880011 0
          0.0017158 -0.00995638 0 0.00185851 -0.00897968 0 0.00328073 -0.0076951 0 0.00198533 -0.0078521 0
          0.000570145 -0.0100566 0 0.000617619 -0.00907001 0 0.000659787 -0.00793106 0 0.00601352 -0.00601352 0
          0.00626953 -0.0047741 0 0.0047741 -0.00626953 0 0.00497733 -0.00497733 0 0.00646498 -0.0034606 0
          0.00659685 -0.00209417 0 0.00666314 -0.000695949 0 0.00513247 -0.0036079 0 0.00523712 -0.00218328 0
          0.0052897 -0.00072552 0 0.0034606 -0.00646498 0 0.00209417 -0.00659685 0 0.0036079 -0.00513247 0
          0.00218328 -0.00523712 0 0.000695949 -0.00666314 0 0.00072552 -0.0052897 0 0.00372032 -0.00372032 0
          0.00379613 -0.00225126 0 0.00225126 -0.00379613 0 0.00229706 -0.00229706 0 0.00383417 -0.000748033 0
          0.00231999 -0.000763135 0 0.000748033 -0.00383417 0 0.000763135 -0.00231999 0 0.000770594 -0.000770594 0
          0.00147319 2.35501e-06 0 0.00145846 6.49719e-06 0 0.00414461 1.7227e-05 0 0.00410316 4.98077e-05 0
          0.00142923 1.05457e-05 0 0.00138594 1.44371e-05 0 0.00132926 1.81079e-05 0 0.00402092 8.1651e-05 0
          0.00389914 0.000112262 0 0.00373969 0.000141147 0 0.0063821 4.43817e-05 0 0.00820915 8.17043e-05 0
          0.00631827 0.000129759 0 0.00812704 0.000240042 0 0.00964926 0.000127197 0 0.00955273 0.000374697 0
          0.00619163 0.000213204 0 0.0060041 0.000293422 0 0.00796414 0.000394795 0 0.00772293 0.000543566 0
          0.00575856 0.00036912 0 0.0074071 0.000683957 0 0.00936126 0.000616593 0 0.00907773 0.00084914 0
          0.00870649 0.00106859 0 0.00126008 2.14949e-05 0 0.00117949 2.45349e-05 0 0.00354504 0.00016781 0
          0.00331832 0.000191758 0 0.00108882 2.7165e-05 0 0.000989637 2.93225e-05 0 0.000883694 3.09453e-05 0
          0.00306326 0.000212499 0 0.00278422 0.000229538 0 0.00248617 0.000242385 0 0.00545884 0.000439005 0
          0.00702158 0.000813572 0 0.00510973 0.000501783 0 0.00657254 0.000930015 0 0.00825334 0.0012712 0
          0.00772553 0.00145323 0 0.00471699 0.000556164 0 0.00428731 0.000600856 0 0.00606736 0.00103089 0
          0.0055147 0.0011138 0 0.00382838 0.000634571 0 0.0049244 0.00117637 0 0.00713175 0.00161093 0
          0.00648214 0.00174056 0 0.0057883 0.00183838 0 0.0107259 0.00017898 0 0.0106186 0.000528116 0
          0.0114626 0.000235288 0 0.0113479 0.000695041 0 0.0104058 0.000869347 0 0.0100906 0.00119739 0
          0.00967792 0.00150696 0 0.0111204 0.00114438 0 0.0107836 0.00157636 0 0.0103426 0.00198402 0
          0.0118827 0.000294477 0 0.0120097 0.000355018 0 0.0117638 0.000870566 0 0.0118896 0.00105013 0
          0.0118672 0.000415498 0 0.0117484 0.00122954 0 0.011528 0.00143361 0 0.0111788 0.0019749 0
          0.0116512 0.00172951 0 0.0112983 0.00238264 0 0.0107216 0.00248571 0 0.0108362 0.00299899 0
          0.0115128 0.00202515 0 0.0111641 0.00279002 0 0.0107075 0.00351182 0 0.00917421 0.00179279 0
          0.00858751 0.00204957 0 0.00980426 0.0023604 0 0.00917726 0.00269855 0 0.00792748 0.00227204 0
          0.0072054 0.00245492 0 0.00643417 0.00259294 0 0.00847191 0.00299152 0 0.00770025 0.00323236 0
          0.00687606 0.00341411 0 0.0101636 0.00295734 0 0.0102722 0.00356806 0 0.00951358 0.00338106 0
          0.00961522 0.00407934 0 0.0101501 0.00417826 0 0.00950098 0.00477701 0 0.00878237 0.00374817 0
          0.00798243 0.00404996 0 0.00887619 0.0045223 0 0.0080677 0.00488645 0 0.00712804 0.00427771 0
          0.00720418 0.00516126 0 0.00877071 0.00529576 0 0.00797181 0.00572221 0 0.00711854 0.00604404 0
          0.000772989 3.19718e-05 0 0.000659735 3.23415e-05 0 0.00217473 0.000250552 0 0.00185611 0.00025355 0
          0.000546369 3.19957e-05 0 0.000435548 3.08783e-05 0 0.000330153 2.89389e-05 0 0.00153718 0.000250898 0
          0.00122541 0.000242124 0 0.000928894 0.000226767 0 0.00334882 0.000656023 0 0.00430757 0.00121619 0
          0.00285822 0.000663931 0 0.00367654 0.00123089 0 0.00506329 0.00190066 0 0.00432159 0.00192366 0
          0.00236713 0.000657022 0 0.00188706 0.000634033 0 0.00304489 0.0012181 0 0.00242741 0.00117546 0
          0.00143047 0.000593724 0 0.00184013 0.00110064 0 0.00357915 0.00190368 0 0.00285338 0.00183701 0
          0.00216312 0.00171995 0 0.000233287 2.61378e-05 0 0.000148275 2.2462e-05 0 0.000656354 0.000204401 0
          0.000417121 0.000174666 0 7.86546e-05 1.7973e-05 0 2.81578e-05 1.31972e-05 0 1.08655e-06 1.36524e-05 0
          0.000221104 0.000137402 0 7.86826e-05 9.31873e-05 0 1.10449e-06 4.33107e-05 0 0.00101078 0.000534899 0
          0.00130031 0.000991331 0 0.000642355 0.000456449 0 0.000826468 0.000845334 0 0.00152868 0.00154887 0
          0.000971828 0.00132016 0 0.000340482 0.000357464 0 0.000121482 0.000237304 0 0.000438348 0.000660524 0
          0.000157065 0.000434822 0 3.03477e-06 9.51335e-05 0 5.13061e-06 0.000165991 0 0.000515834 0.00103024 0
          0.000185491 0.00067551 0 7.12858e-06 0.000252277 0 0.00562828 0.00268081 0 0.00480385 0.00271328 0
          0.00601484 0.00352984 0 0.00513382 0.0035726 0 0.00397861 0.00268509 0 0.0031719 0.002591 0
          0.00240469 0.00242577 0 0.00425194 0.00353547 0 0.00338988 0.00341152 0 0.00257005 0.00319383 0
          0.00623528 0.00442273 0 0.00630188 0.00533624 0 0.00532199 0.00447631 0 0.00537885 0.00540088 0
          0.00622695 0.00624895 0 0.00531488 0.00632464 0 0.00440783 0.00442976 0 0.00351423 0.00427438 0
          0.00445494 0.00534469 0 0.00355183 0.00515715 0 0.00266442 0.0040015 0 0.00269301 0.00482777 0
          0.00440197 0.00625879 0 0.00350961 0.00603911 0 0.00266103 0.00565329 0 0.00169955 0.00218421 0
          0.00108071 0.00186111 0 0.00181659 0.00287551 0 0.00115538 0.00244964 0 0.000574027 0.0014513 0
          0.000207032 0.000949542 0 8.91523e-06 0.00035055 0 0.000614055 0.00190934 0 0.000222014 0.00124763 0
          1.03964e-05 0.000457538 0 0.00188344 0.00360242 0 0.00190375 0.00434607 0 0.00119811 0.00306847 0
          0.00121119 0.00370152 0 0.00188121 0.00508902 0 0.00119694 0.00433399 0 0.000637076 0.00239093 0
          0.000230787 0.00156109 0 0.000644266 0.00288362 0 0.000233727 0.0018818 0 1.14937e-05 0.000570153 0
          1.21482e-05 0.0006855 0 0.000636824 0.00337586 0 0.000231227 0.00220229 0 1.23215e-05 0.000800888 0
          0.0114785 0.000474625 0 0.0113635 0.00140493 0 0.010867 0.000531222 0 0.0107582 0.0015728 0
          0.0111357 0.00231417 0 0.0107983 0.00318827 0 0.0103566 0.00401317 0 0.0105424 0.00259079 0
          0.010223 0.00356944 0 0.00980484 0.004493 0 0.0100563 0.00058423 0 0.00906973 0.000632709 0
          0.00995556 0.00172999 0 0.00897884 0.0018737 0 0.00793077 0.000675834 0 0.00785124 0.00200149 0
          0.00975586 0.00284981 0 0.00946023 0.00392635 0 0.00879869 0.0030866 0 0.00853201 0.00425262 0
          0.0090732 0.00494228 0 0.0081829 0.005353 0 0.00769366 0.00329712 0 0.00746041 0.00454268 0
          0.00715507 0.00571813 0 0.00981753 0.00477478 0 0.00918962 0.00545905 0 0.00929441 0.00534571 0
          0.00869991 0.00611181 0 0.00848325 0.00605189 0 0.0077105 0.00653925 0 0.00688516 0.00690704 0
          0.00803113 0.00677556 0 0.00729951 0.00732121 0 0.00651812 0.00773299 0 0.00860081 0.00588028 0
          0.00775679 0.00636897 0 0.00805062 0.00672302 0 0.00726051 0.00728175 0 0.0067824 0.0068034 0
          0.00634836 0.00777846 0 0.00743169 0.00745316 0 0.00675461 0.00805338 0 0.00670224 0.00807258 0
          0.00609152 0.00872269 0 0.00603146 0.00850635 0 0.00543925 0.00921331 0 0.00586011 0.00862324 0
          0.00532599 0.0093177 0 0.00475555 0.00984178 0 0.00666285 0.000712901 0 0.00659598 0.00211124 0
          0.00528941 0.000743322 0 0.00523624 0.0022012 0 0.00646352 0.00347791 0 0.00626748 0.00479176 0
          0.00601086 0.00603165 0 0.005131 0.00362607 0 0.00497527 0.00499587 0 0.00477143 0.00628856 0
          0.00383388 0.000766625 0 0.00231969 0.000782459 0 0.00379524 0.00226998 0 0.00229617 0.00231652 0
          0.000770292 0.000790588 0 0.00076223 0.00234012 0 0.00371884 0.00373929 0 0.00360582 0.00515182 0
          0.00224976 0.00381584 0 0.00218118 0.00525722 0 0.00345792 0.00648483 0 0.00209147 0.00661747 0
          0.000746523 0.00385456 0 0.000723406 0.00531049 0 0.000693229 0.00668446 0 0.00569768 0.00717643 0
          0.00533293 0.00820495 0 0.00452268 0.00748209 0 0.00423297 0.0085544 0 0.00492262 0.00909605 0
          0.00447378 0.00982859 0 0.00399442 0.0103814 0 0.0039071 0.00948345 0 0.00355063 0.0102472 0
          0.00316993 0.0108236 0 0.00327744 0.00771559 0 0.00198202 0.00787337 0 0.00306727 0.00882136 0
          0.00185459 0.00900174 0 0.00065646 0.00795304 0 0.000613683 0.00909279 0 0.00283088 0.0097794 0
          0.00257229 0.010567 0 0.00171127 0.00997935 0 0.00155451 0.010783 0 0.00229613 0.0111613 0
          0.0013871 0.0113895 0 0.0005656 0.0100803 0 0.000513028 0.0108921 0 0.000456904 0.0115047 0
          0.00602277 0.00714121 0 0.00514058 0.00722769 0 0.00570164 0.00799516 0 0.00486643 0.00809197 0
          0.00425758 0.00715241 0 0.00339447 0.0069013 0 0.00257372 0.00646029 0 0.00403045 0.00800765 0
          0.00321333 0.00772646 0 0.0024363 0.00723265 0 0.00527586 0.00879474 0 0.00475772 0.00952566 0
          0.00450292 0.00890121 0 0.00406055 0.00964097 0 0.00415952 0.0101754 0 0.00354981 0.0102986 0
          0.00372928 0.00880844 0 0.0029731 0.00849909 0 0.00336276 0.00954047 0 0.00268071 0.00920538 0
          0.00225403 0.00795582 0 0.00203215 0.00861693 0 0.00293957 0.0101912 0 0.0023431 0.00983328 0
          0.00177592 0.00920465 0 0.00181948 0.00581532 0 0.00115768 0.00495229 0 0.00172226 0.00651043 0
          0.00109575 0.00554406 0 0.000615964 0.00385711 0 0.000223699 0.00251567 0 1.19939e-05 0.000913836 0
          0.000582914 0.00431773 0 0.000211573 0.00281568 0 1.11627e-05 0.00102208 0 0.00159326 0.0071613 0
          0.00143617 0.00775632 0 0.00101348 0.00609818 0 0.000913254 0.00660477 0 0.00125472 0.00828531 0
          0.000797429 0.00705517 0 0.000538919 0.00474909 0 0.000195292 0.00309668 0 0.000485233 0.00514348 0
          0.000175311 0.00335366 0 9.83995e-06 0.00112358 0 8.04993e-06 0.0012165 0 0.000423123 0.00549417 0
          0.000152096 0.00358223 0 5.82763e-06 0.00129927 0 0.00349356 0.0107334 0 0.00298122 0.0108633 0
          0.00277215 0.0111905 0 0.00236526 0.011326 0 0.00246842 0.01075 0 0.0019672 0.0103724 0
          0.0014906 0.00970933 0 0.00195801 0.0112079 0 0.00155997 0.0108142 0 0.00118147 0.0101229 0
          0.0020076 0.0115397 0 0.0012122 0.0117757 0 0.00171245 0.0116794 0 0.00103331 0.0119183 0
          0.00039828 0.0118948 0 0.000338327 0.0120388 0 0.00141706 0.0115577 0 0.00112834 0.0111517 0
          0.000854259 0.0117941 0 0.000679262 0.0113799 0 0.000853797 0.0104389 0 0.000512863 0.0106524 0
          0.00027833 0.0119134 0 0.000219696 0.0114951 0 0.000163946 0.0107604 0 0.00105265 0.00873957 0
          0.000668385 0.00744197 0 0.000833667 0.00911183 0 0.000528507 0.00775899 0 0.000353862 0.00579537 0
          0.000126123 0.0037786 0 3.21676e-06 0.00137049 0 0.00027873 0.00604228 0 9.78729e-05 0.00393966 0
          2.68179e-07 0.00142903 0 0.000601525 0.0093963 0 0.000359962 0.0095886 0 0.000380183 0.00800127 0
          0.000225808 0.00816512 0 0.00011272 0.00968585 0 6.77772e-05 0.00824805 0 0.000199013 0.00623105 0
          6.78334e-05 0.00406287 0 0.000116003 0.00635878 0 3.64962e-05 0.00414636 0 -2.9616e-06 0.00147398 0
          -6.41172e-06 0.00150465 0 3.09914e-05 0.00642354 0 4.35617e-06 0.00418887 0 -1.00183e-05 0.00152057 0
          -2.35501e-06 -0.00147319 0 -1.7227e-05 -0.00414461 0 -6.49719e-06 -0.00145846 0 -4.98077e-05 -0.00410316 0
          -4.43817e-05 -0.0063821 0 -8.17043e-05 -0.00820915 0 -0.000127197 -0.00964926 0 -0.000129759 -0.00631827 0
          -0.000240042 -0.00812704 0 -0.000374697 -0.00955273 0 -1.05457e-05 -0.00142923 0 -1.44371e-05 -0.00138594 0
          -8.1651e-05 -0.00402092 0 -0.000112262 -0.00389914 0 -1.81079e-05 -0.00132926 0 -0.000141147 -0.00373969 0
          -0.000213204 -0.00619163 0 -0.000394795 -0.00796414 0 -0.000293422 -0.0060041 0 -0.000543566 -0.00772293 0
          -0.000616593 -0.00936126 0 -0.00084914 -0.00907773 0 -0.00036912 -0.00575856 0 -0.000683957 -0.0074071 0
          -0.00106859 -0.00870649 0 -0.00017898 -0.0107259 0 -0.000235288 -0.0114626 0 -0.000528116 -0.0106186 0
          -0.000695041 -0.0113479 0 -0.000294477 -0.0118827 0 -0.000355018 -0.0120097 0 -0.000415498 -0.0118672 0
          -0.000870566 -0.0117638 0 -0.00105013 -0.0118896 0 -0.00122954 -0.0117484 0 -0.000869347 -0.0104058 0
          -0.00119739 -0.0100906 0 -0.00114438 -0.0111204 0 -0.00157636 -0.0107836 0 -0.00150696 -0.00967792 0
          -0.00198402 -0.0103426 0 -0.00143361 -0.011528 0 -0.00172951 -0.0116512 0 -0.0019749 -0.0111788 0
          -0.00238264 -0.0112983 0 -0.00202515 -0.0115128 0 -0.00279002 -0.0111641 0 -0.00248571 -0.0107216 0
          -0.00299899 -0.0108362 0 -0.00351182 -0.0107075 0 -2.14949e-05 -0.00126008 0 -0.00016781 -0.00354504 0
          -2.45349e-05 -0.00117949 0 -0.000191758 -0.00331832 0 -0.000439005 -0.00545884 0 -0.000813572 -0.00702158 0
          -0.0012712 -0.00825334 0 -0.000501783 -0.00510973 0 -0.000930015 -0.00657254 0 -0.00145323 -0.00772553 0
          -2.7165e-05 -0.00108882 0 -2.93225e-05 -0.000989637 0 -0.000212499 -0.00306326 0 -0.000229538 -0.00278422 0
          -3.09453e-05 -0.000883694 0 -0.000242385 -0.00248617 0 -0.000556164 -0.00471699 0 -0.00103089 -0.00606736 0
          -0.000600856 -0.00428731 0 -0.0011138 -0.0055147 0 -0.00161093 -0.00713175 0 -0.00174056 -0.00648214 0
          -0.000634571 -0.00382838 0 -0.00117637 -0.0049244 0 -0.00183838 -0.0057883 0 -0.00179279 -0.00917421 0
          -0.0023604 -0.00980426 0 -0.00204957 -0.00858751 0 -0.00269855 -0.00917726 0 -0.00295734 -0.0101636 0
          -0.00356806 -0.0102722 0 -0.00417826 -0.0101501 0 -0.00338106 -0.00951358 0 -0.00407934 -0.00961522 0
          -0.00477701 -0.00950098 0 -0.00227204 -0.00792748 0 -0.00245492 -0.0072054 0 -0.00299152 -0.00847191 0
          -0.00323236 -0.00770025 0 -0.00259294 -0.00643417 0 -0.00341411 -0.00687606 0 -0.00374817 -0.00878237 0
          -0.0045223 -0.00887619 0 -0.00404996 -0.00798243 0 -0.00488645 -0.0080677 0 -0.00529576 -0.00877071 0
          -0.00572221 -0.00797181 0 -0.00427771 -0.00712804 0 -0.00516126 -0.00720418 0 -0.00604404 -0.00711854 0
          -0.000474625 -0.0114785 0 -0.000531222 -0.010867 0 -0.00140493 -0.0113635 0 -0.0015728 -0.0107582 0
          -0.00058423 -0.0100563 0 -0.000632709 -0.00906973 0 -0.000675834 -0.00793077 0 -0.00172999 -0.00995556 0
          -0.0018737 -0.00897884 0 -0.00200149 -0.00785124 0 -0.00231417 -0.0111357 0 -0.00318827 -0.0107983 0
          -0.00259079 -0.0105424 0 -0.00356944 -0.010223 0 -0.00401317 -0.0103566 0 -0.004493 -0.00980484 0
          -0.00284981 -0.00975586 0 -0.0030866 -0.00879869 0 -0.00392635 -0.00946023 0 -0.00425262 -0.00853201 0
          -0.00329712 -0.00769366 0 -0.00454268 -0.00746041 0 -0.00494228 -0.0090732 0 -0.005353 -0.0081829 0
          -0.00571813 -0.00715507 0 -0.000712901 -0.00666285 0 -0.000743322 -0.00528941 0 -0.00211124 -0.00659598 0
          -0.0022012 -0.00523624 0 -0.000766625 -0.00383388 0 -0.000782459 -0.00231969 0 -0.000790588 -0.000770292 0
          -0.00226998 -0.00379524 0 -0.00231652 -0.00229617 0 -0.00234012 -0.00076223 0 -0.00347791 -0.00646352 0
          -0.00479176 -0.00626748 0 -0.00362607 -0.005131 0 -0.00499587 -0.00497527 0 -0.00603165 -0.00601086 0
          -0.00628856 -0.00477143 0 -0.00373929 -0.00371884 0 -0.00381584 -0.00224976 0 -0.00515182 -0.00360582 0
          -0.00525722 -0.00218118 0 -0.00385456 -0.000746523 0 -0.00531049 -0.000723406 0 -0.00648483 -0.00345792 0
          -0.00661747 -0.00209147 0 -0.00668446 -0.000693229 0 -0.00477478 -0.00981753 0 -0.00534571 -0.00929441 0
          -0.00545905 -0.00918962 0 -0.00611181 -0.00869991 0 -0.00588028 -0.00860081 0 -0.00636897 -0.00775679 0
          -0.0068034 -0.0067824 0 -0.00672302 -0.00805062 0 -0.00728175 -0.00726051 0 -0.00777846 -0.00634836 0
          -0.00605189 -0.00848325 0 -0.00653925 -0.0077105 0 -0.00677556 -0.00803113 0 -0.00732121 -0.00729951 0
          -0.00690704 -0.00688516 0 -0.00773299 -0.00651812 0 -0.00745316 -0.00743169 0 -0.00807258 -0.00670224 0
          -0.00805338 -0.00675461 0 -0.00872269 -0.00609152 0 -0.00862324 -0.00586011 0 -0.0093177 -0.00532599 0
          -0.00850635 -0.00603146 0 -0.00921331 -0.00543925 0 -0.00984178 -0.00475555 0 -0.00717643 -0.00569768 0
          -0.00748209 -0.00452268 0 -0.00820495 -0.00533293 0 -0.0085544 -0.00423297 0 -0.00771559 -0.00327744 0
          -0.00787337 -0.00198202 0 -0.00795304 -0.00065646 0 -0.00882136 -0.00306727 0 -0.00900174 -0.00185459 0
          -0.00909279 -0.000613683 0 -0.00909605 -0.00492262 0 -0.00982859 -0.00447378 0 -0.00948345 -0.0039071 0
          -0.0102472 -0.00355063 0 -0.0103814 -0.00399442 0 -0.0108236 -0.00316993 0 -0.0097794 -0.00283088 0
          -0.00997935 -0.00171127 0 -0.010567 -0.00257229 0 -0.010783 -0.00155451 0 -0.0100803 -0.0005656 0
          -0.0108921 -0.000513028 0 -0.0111613 -0.00229613 0 -0.0113895 -0.0013871 0 -0.0115047 -0.000456904 0
          -3.19718e-05 -0.000772989 0 -0.000250552 -0.00217473 0 -3.23415e-05 -0.000659735 0 -0.00025355 -0.00185611 0
          -0.000656023 -0.00334882 0 -0.00121619 -0.00430757 0 -0.00190066 -0.00506329 0 -0.000663931 -0.00285822 0
          -0.00123089 -0.00367654 0 -0.00192366 -0.00432159 0 -3.19957e-05 -0.000546369 0 -3.08783e-05 -0.000435548 0
          -0.000250898 -0.00153718 0 -0.000242124 -0.00122541 0 -2.89389e-05 -0.000330153 0 -0.000226767 -0.000928894 0
          -0.000657022 -0.00236713 0 -0.0012181 -0.00304489 0 -0.000634033 -0.00188706 0 -0.00117546 -0.00242741 0
          -0.00190368 -0.00357915 0 -0.00183701 -0.00285338 0 -0.000593724 -0.00143047 0 -0.00110064 -0.00184013 0
          -0.00171995 -0.00216312 0 -0.00268081 -0.00562828 0 -0.00352984 -0.00601484 0 -0.00271328 -0.00480385 0
          -0.0035726 -0.00513382 0 -0.00442273 -0.00623528 0 -0.00533624 -0.00630188 0 -0.00624895 -0.00622695 0
          -0.00447631 -0.00532199 0 -0.00540088 -0.00537885 0 -0.00632464 -0.00531488 0 -0.00268509 -0.00397861 0
          -0.002591 -0.0031719 0 -0.00353547 -0.00425194 0 -0.00341152 -0.00338988 0 -0.00242577 -0.00240469 0
          -0.00319383 -0.00257005 0 -0.00442976 -0.00440783 0 -0.00534469 -0.00445494 0 -0.00427438 -0.00351423 0
          -0.00515715 -0.00355183 0 -0.00625879 -0.00440197 0 -0.00603911 -0.00350961 0 -0.0040015 -0.00266442 0
          -0.00482777 -0.00269301 0 -0.00565329 -0.00266103 0 -2.61378e-05 -0.000233287 0 -0.000204401 -0.000656354 0
          -2.2462e-05 -0.000148275 0 -0.000174666 -0.000417121 0 -0.000534899 -0.00101078 0 -0.000991331 -0.00130031 0
          -0.00154887 -0.00152868 0 -0.000456449 -0.000642355 0 -0.000845334 -0.000826468 0 -0.00132016 -0.000971828 0
          -1.7973e-05 -7.86546e-05 0 -1.31972e-05 -2.81578e-05 0 -0.000137402 -0.000221104 0 -9.31873e-05 -7.86826e-05 0
          -1.36524e-05 -1.08655e-06 0 -4.33107e-05 -1.10449e-06 0 -0.000357464 -0.000340482 0 -0.000660524 -0.000438348 0
          -0.000237304 -0.000121482 0 -0.000434822 -0.000157065 0 -0.00103024 -0.000515834 0 -0.00067551 -0.000185491 0
          -9.51335e-05 -3.03477e-06 0 -0.000165991 -5.13061e-06 0 -0.000252277 -7.12858e-06 0 -0.00218421 -0.00169955 0