<?xml version="1.0"?>
<VTKFile type="UnstructuredGrid" version="0.1" byte_order="LittleEndian">
  <UnstructuredGrid>
    <Piece NumberOfCells="22420" NumberOfPoints="11415">
      <PointData Vectors="d">
        <DataArray type="Float64" Name="d" NumberOfComponents="3" format="ascii">
          0 0 0 0.00687963916613253 0.0257541548435405 0 0 0 0 0 0 0
          0.0132885319732244 0.0508931871964656 0 0.00669374023995631 0.025474018317336 0 0.0067045069828027 0.0252414444595041 0 0 0 0
          0 0 0 0.019285560679542 0.0753806579991435 0 0.0130289045409944 0.0503226451048495 0 0.0129027935374956 0.049782697775738 0
          0.0248319896203711 0.0993028075146399 0 0.0189015919464596 0.0745118667381207 0 0.00650708705984661 0.0249181307909959 0 0.00653049522653944 0.0246470725014226 0
          0.0126254734915076 0.0491401857429973 0 0.0124924175018508 0.0485243882500855 0 0.0186447310909895 0.0736625650378505 0 0 0 0
          0 0 0 0.00631069911341392 0.0242758836933603 0 0.0063436586009828 0.0239603338735466 0 0 0 0
          0 0 0 0.0299170407486242 0.122721607582193 0 0.0243089738148834 0.0981287355555222 0 0.0238836090125139 0.0969605303515124 0
          0.0345578441174945 0.145725301933135 0 0.0292395938372722 0.121250983205566 0 0.0286189803683188 0.119771147614113 0 0.0233049761967476 0.0956356878384357 0
          0.0228113720937922 0.0943046507313642 0 0.0387418519069528 0.168383275753805 0 0.0336951408267861 0.143969893141353 0 0.0328706668469376 0.142197843195257 0
          0.0425810875781139 0.190795888306768 0 0.0377241770782988 0.166386893473348 0 0.0278561610525387 0.118120107288433 0 0.018225023743126 0.0726790799363162 0
          0.0179375885744076 0.0717086009215277 0 0.0121824838624383 0.047786699670898 0 0.0120264608937294 0.0470699861358349 0 0.0174564163329477 0.0705764485144509 0
          0.00608902431778089 0.0235252890112419 0 0.00612705439661272 0.0231484279568298 0 0.0116585053934432 0.0461977141761158 0 0.0114454700563407 0.0453347056763614 0
          0.0171010845481176 0.0694449528075802 0 0.0165107296451386 0.0681072841199452 0 0.0215114290182079 0.0912450417210163 0 0.0221355245404513 0.0927876000245313 0
          0.0160134609999318 0.0667469472008157 0 0.0206644278554297 0.0894747618391266 0 0.0197950758682967 0.0876469038119629 0 0.0271288606457555 0.116446393621492 0
          0.0319082413816444 0.140255668946868 0 0.0309338416284703 0.13827720771055 0 0.0366803645362 0.164359872636467 0 0.0262263352693366 0.114578504845657 0
          0.0253058933370696 0.112665060915026 0 0 0 0 0 0 0 0.00581412552985238 0.0226143435572562 0
          0.00584713874527387 0.0221389663327301 0 0 0 0 0 0 0 0.0109712533612444 0.0442539598548311 0
          0.0106227456421828 0.0431556566857967 0 0.0152220213737366 0.0651092448364258 0 0.00542517012756913 0.0214278344714615 0 0.00541999187407426 0.020766848255936 0
          0.00993570641480824 0.041721077232302 0 0.00922572679619969 0.0401983798327349 0 0.0144303404562426 0.0634045869987992 0 0 0 0
          0 0 0 0.00475996803951282 0.0196799891182445 0 0.00460210838140674 0.0185973866613481 0 0 0 0
          0.00643337817617002 0.023988622491782 0 0.0127772257983331 0.0482504648402015 0 0.0130414722396032 0.0495942881133511 0 0.0190892041671884 0.072397283153227 0
          0.0191865492651675 0.073565783175121 0 0.0253689684445514 0.0967648213624988 0 0.0192543340818309 0.0745143881359054 0 0.0251927244589771 0.0983669993225686 0
          0.0253097667194892 0.0976031990939564 0 0.0250465933389698 0.0988872864281703 0 0.0317104749135662 0.121090953670409 0 0.0314234291803475 0.121805528518571 0
          0.0380313898772398 0.145518372277447 0 0.0376270706939197 0.146027181287242 0 0.0370989556375637 0.146396032461556 0 0.0444804814339073 0.170022902915898 0
          0.0409607916227482 0.158014354931733 0 0.0438139800245533 0.17038503163963 0 0.0510300151263668 0.194608976729162 0 0.0473346505881664 0.182474688436114 0
          0.0311492839734805 0.122277908083067 0 0.0307864453199299 0.122648545419349 0 0.0304084164254186 0.122752445684069 0 0.0359733051855032 0.146483804554447 0
          0.0365825070784535 0.146493735758928 0 0.042370759036673 0.170559952912258 0 0.0416390033384948 0.170318036085218 0 0.0473189106100643 0.194406035759168 0
          0.043173302898998 0.170543222392586 0 0.0492619284013546 0.194908941378805 0 0.0501027097786638 0.194777331827031 0 0.0482883672846549 0.194674391645098 0
          0.0353267287393565 0.146174965840176 0 0.0407269095401551 0.169915623020516 0 0.0398415586907115 0.16924308612786 0 0.0451443128139071 0.193049842847253 0
          0.046236639888208 0.193753555063246 0 0.0439011138857677 0.191964830984025 0 0.048692546400259 0.217588486505298 0 0.0500325182460785 0.218763915918189 0
          0.0548751909620862 0.244571634359652 0 0.0515412705109631 0.219911425463767 0 0.0564391756080499 0.245787675694243 0 0.058097721610677 0.24697989487293 0
          0.0527346658469675 0.220661298283042 0 0.0613101029313012 0.271752578059033 0 0.0630485040021089 0.273002333310738 0 0.0679595712665912 0.299091546162156 0
          0.0541304467040856 0.221389040776701 0 0.0552197014157651 0.221711665642269 0 0.0611265621890811 0.248565941844026 0 0.0565056379061751 0.222015292495825 0
          0.0595501293527318 0.247781711335846 0 0.0649367924961384 0.274231068593844 0 0.0699273736595366 0.300373885590169 0 0.0720489217402045 0.301639658138536 0
          0.0666088271896918 0.275066955802392 0 0.0684394881010922 0.275880555035518 0 0.0739764891428859 0.302507723778624 0 0.0760650042598025 0.30336190727425 0
          0.0624910784859307 0.248938185096713 0 0.0640017661534723 0.249300575823102 0 0.0575334533171081 0.221906876849739 0 0.0700502092041406 0.276272086382329 0
          0.0748781284816318 0.326563236662028 0 0.0770882934651973 0.327875888694068 0 0.0820825291210381 0.354167917721796 0 0.0794722965538865 0.329169101720529 0
          0.0845590238364834 0.355515758670671 0 0.0872264677847122 0.35685641464562 0 0.0816647363748487 0.330045632113078 0 0.0895986543433438 0.38186122188409 0
          0.0923512545734392 0.383242875630675 0 0.0974168435475692 0.409782511430001 0 0 0 0 0.00751035788453413 0.0259455643800368 0
          0 0 0 0 0 0 0.0147531294323719 0.0514583237348809 0 0.00739483108159067 0.0258589544328029 0
          0.00735956276331201 0.0258025186978636 0 0 0 0 0 0 0 0.0217166599535673 0.0765206970672116 0
          0.0145532506979176 0.0512787537188183 0 0.0144190133713629 0.0511267721791353 0 0.0283556665876687 0.101122158130732 0 0.0214068034377049 0.076224349221699 0
          0.00723187033432756 0.0256897226846077 0 0.00720463508853452 0.0256049753200622 0 0.014211153968269 0.0509056367079308 0 0.0140746520503067 0.0507147456058043 0
          0.0211847159838189 0.0759495927885206 0 0 0 0 0 0 0 0.00706274779504327 0.0254570780382282 0
          0.00703804773120177 0.025329057719809 0 0 0 0 0.0346397456673527 0.125240700464824 0 0.027933111519838 0.100686954099926 0
          0.0276056812409658 0.100270667603802 0 0.0405319725932113 0.148863585154183 0 0.0340923295070652 0.124642758714472 0 0.0336539722559254 0.124058459484359 0
          0.0271779641555691 0.0997556616942137 0 0.0268508967688774 0.0992609886816766 0 0.0460027786367481 0.171981669018928 0 0.0398530318510275 0.148082518323168 0
          0.0392897755930669 0.147311053608803 0 0.0451840696513635 0.171000474416605 0 0.0330978296205549 0.123363174762069 0 0.0208647754269861 0.0755927178254091 0
          0.0206577327418685 0.0752559207106711 0 0.0138671510142886 0.0504635573055019 0 0.0137415316411157 0.0502534403746691 0 0.0203257476901348 0.0748291768326934 0
          0.00690250255771541 0.0250268375304757 0 0.0134143554520644 0.0496836615822252 0 0.0201328119461098 0.0744133113168466 0 0.0260955399487323 0.0981048714667741 0
          0.0264236736926176 0.0986695018133039 0 0.0196227563238577 0.073442990990197 0 0.0326701999726779 0.122680674590098 0 0.0386007406744222 0.146410567717718 0
          0.0321010532500808 0.121881959801166 0 0 0 0 0.00675327758844446 0.0247198608934452 0 0 0 0
          0.0130743643104851 0.0490183825862634 0 0.00661083828211584 0.0243563413102628 0 0 0 0 0.103184538595483 0.347911437569988 0
          0.0957760553627829 0.328761536275395 0 0.0969077047566673 0.326580883584417 0 0.0906307583914608 0.305335731648542 0 0.0885848840362009 0.309554139770963 0
          0.0896486558589115 0.307467881027761 0 0.0835216124563549 0.286302175777744 0 0.084300007191912 0.283959797753569 0 0.0779684254377532 0.26266600780228 0
          0.0816986831030496 0.290356004905024 0 0.0826237845406014 0.288345181110777 0 0.0766556370677313 0.267237759643868 0 0.0750628825621082 0.271158260362891 0
          0.075875850932722 0.26921343588302 0 0.0773368312524234 0.264968022517259 0 0.0711503151726853 0.243726939796621 0 0.0706146399941997 0.245959016240617 0
          0.0645701797738966 0.224757733256135 0 0.0700479479815523 0.248165383619637 0 0.0715858949368583 0.241221718429767 0 0.0652016361026232 0.219840040230638 0
          0.0649043496413434 0.22231008199063 0 0.0586577319550633 0.200956769203576 0 0.0587709196658708 0.198291762293244 0 0.0523374400215498 0.176779026646425 0
          0.0686912934138178 0.251973953347331 0 0.0693777184450524 0.25008259756436 0 0.06368547072472 0.22909069703435 0 0.0625690190902922 0.232809017654713 0
          0.0631317652094893 0.23096162154611 0 0.0575643946841599 0.210027715871133 0 0.0579009117318646 0.207910181734048 0 0.0521113250117862 0.186787743564695 0
          0.0566889773729193 0.213689803114957 0 0.0571246419886312 0.211867300862209 0 0.0516719774353506 0.190986695346384 0 0.0513497511260149 0.192806182880602 0
          0.0518933691782134 0.188894586839552 0 0.064139261435386 0.22693543822439 0 0.0582265132028496 0.20577475846863 0 0.0584542667353307 0.203374184448324 0
          0.0523370100555571 0.182039782811705 0 0.0522311037816632 0.184420191671058 0 0.0523508995404578 0.17941537562525 0 0.0460455733017302 0.157904772092511 0
          0.046146860331266 0.160508059578983 0 0.0399575244935956 0.138992695852495 0 0.04623352087927 0.163104988131928 0 0.0401493800552652 0.141580120397704 0
          0.0403380589771242 0.144165944621571 0 0.0462262641505457 0.165462473038762 0 0.0340653196331414 0.120059569586899 0 0.0343473408196123 0.122648317271582 0
          0.0462168413899467 0.16781147594252 0 0.0461055855716944 0.169902568380202 0 0.0404303471974686 0.146516872826621 0 0.0458614926690284 0.155081665998647 0
          0.0393817142473261 0.133387236277519 0 0.0396784819047299 0.136190029443225 0 0.0333156877185658 0.114468583797433 0 0.0328628665060114 0.111487134958456 0
          0.0263390248688074 0.0895520028154215 0 0.0336920994866231 0.117261112157136 0 0.0274300576301021 0.0955075104533047 0 0.027889309805437 0.0983090205511868 0
          0.0268887718047037 0.0925232588722119 0 0.0204696693040665 0.0705290293398808 0 0.0210884501129609 0.0735151115063784 0 0.0197787405039534 0.0673870773439002 0
          0.0132116844279505 0.0451433760657101 0 0.0139835163422123 0.0482868287151396 0 0.00661144622529606 0.0226403123208645 0 0.0085506423399835 0.0288695708988976 0
          0.0172982243921348 0.0574818101432422 0 0.0152411795957299 0.0512917249306028 0 0.0219139898462061 0.0736155339302375 0 0.0263286688943818 0.0858520460514919 0
          0.0240997467696879 0.0797206015256017 0 0.0308868210228813 0.101900645331424 0 0.0356585268311013 0.113982825676243 0 0.0332537192264696 0.107934818839733 0
          0.0285867338039332 0.0957132819157862 0 0.0352439690576726 0.117754205642769 0 0.0376809917223364 0.12386598130584 0 0.0444649598588413 0.145811132831906 0
          0.0401692646557034 0.129988769322812 0 0.0418910217269526 0.139593875665158 0 0.0485263327581248 0.161416040951742 0 0.0453101198193263 0.141876031329584 0
          0.0427225083210166 0.135932113517424 0 0.0497819940081381 0.15788451512335 0 0.055301420858863 0.169542778457713 0 0.0525261131683204 0.163719189384573 0
          0.0597420530605957 0.185593562060219 0 0.0568624203549733 0.179660662699123 0 0.0639418481142305 0.201472613643018 0 0.0656378430348543 0.196998191215009 0
          0.0626782338557348 0.191306940955389 0 0.0700598255623903 0.213128353200409 0 0.0763147688141403 0.224257867636598 0 0.0731828638000498 0.218710128187552 0
          0.0669826108951146 0.207312026759938 0 0.0471000288315249 0.151848168427024 0 0.05402516875057 0.173715383072617 0 0.0512461008457381 0.167567122339165 0
          0.0580208075800578 0.189337709890409 0 0.0609540956382705 0.19541181240868 0 0.0551427884482601 0.183059819464592 0 0.0617511692123242 0.204720062433353 0
          0.0647827686646498 0.210941343502906 0 0.0715415789435887 0.232589718873478 0 0.0678808389521053 0.217147809196994 0 0.0747997093629755 0.238734213606278 0
          0.078118736146864 0.244854677300163 0 0.0710292336392008 0.223131583144569 0 0.0817193629088597 0.260387159428482 0 0.0852031986645108 0.26644486420412 0
          0.0922925539143853 0.288124080252456 0 0.0742266599034503 0.229091725629838 0 0.0774683925528729 0.234815572597031 0 0.0848848639877175 0.256586788408302 0
          0.0807386782598437 0.240506627697942 0 0.0814811055910081 0.25073726378878 0 0.0887419567131037 0.272469032521411 0 0.0683322914485938 0.226222047743825 0
          0.0749085829337936 0.24776907024112 0 0.0782773259776645 0.254090543509966 0 0.0850126063812201 0.275661407569409 0 0.0886190375529182 0.281909137752887 0
          0.0814488077393087 0.269175492531199 0 0.0879868614712219 0.290649974298799 0 0.0917137119100428 0.297101678259477 0 0.0984164794917726 0.318634307601004 0
          0.0955218358508678 0.303519750136909 0 0.0944782156850699 0.311999730034929 0 0.10096857450657 0.333432620612076 0 0.103337459325969 0.356831966538827 0
          0.1032482658845 0.365621529089409 0 0.0959348063368963 0.337508024054587 0 0.102886163276213 0.373818161332072 0 0.0960720330010186 0.346208364056974 0
          0.102268086365373 0.381867468969611 0 0.0888952223810953 0.318191685421892 0 0.0890940136847942 0.326775347470009 0 0.0957044595135463 0.354234362740553 0
          0.0820928851099443 0.298884305171478 0 0.101392136765565 0.38929219440258 0 0.0953428339061328 0.362210451311021 0 0.100278397149595 0.396579509901883 0
          0.0944739292446805 0.369484315584039 0 0.0886149911926779 0.342558243589893 0 0.0989469635626639 0.403237995383014 0 0.0936481873570904 0.376710166862261 0
          0.0888991664288401 0.334694277163072 0 0.0824291139788271 0.307364234476497 0 0.0755734217349878 0.27958966008698 0 0.0760225133054568 0.287974373270995 0
          0.0823364094819432 0.315181240465607 0 0.0822071210698663 0.322948725137431 0 0.0760646166637458 0.295694966522425 0 0.0879459306188427 0.349734930681844 0
          0.0693091718349867 0.26032047866011 0 0.0698843790628363 0.268625347101299 0 0.0633031788177287 0.241077980132185 0 0.174242460419246 0.63840431329254 0
          0.16331786288782 0.608963539505189 0 0.166858570443323 0.602557551221417 0 0.152567779498522 0.5798463941113 0 0.156047731716529 0.573441322743268 0
          0.158960441889581 0.566539876956119 0 0.142481358635279 0.550968423109733 0 0.145411593506219 0.544605256677932 0 0.132561501504952 0.522356663739838 0
          0.148274871083373 0.537727910320048 0 0.137773858113264 0.509149122397072 0 0.135424723598875 0.515974640916156 0 0.150590185305208 0.530379648932988 0
          0.140047185886554 0.501844566919605 0 0.14179494856758 0.494095549792875 0 0.123295848562121 0.493918764550743 0 0.125608145839978 0.487568580830116 0
          0.114185885818713 0.465705209613542 0 0.116424368613328 0.459312979103195 0 0.118213879140538 0.452539827379739 0 0.105734707261632 0.437605570524646 0
          0.107401524746091 0.431224028038 0 0.127903800288432 0.480749397391921 0 0.129694573877146 0.473501594365356 0 0.131409901888105 0.46581458176668 0
          0.121224901478201 0.437689580740449 0 0.119950769577897 0.445307785279298 0 0.110384625167926 0.417258926933515 0 0.111641212729714 0.409699553819366 0
          0.109153226244623 0.424462442539099 0 0.132610812076496 0.457699857141237 0 0.122390347564058 0.429637644582672 0 0.123089982441025 0.421203502480066 0
          0.11236068030604 0.401694185893652 0 0.113057445943357 0.393356560222972 0 0.113231378537457 0.38459475458596 0 0.108211730203272 0.366221876448749 0
          0.176792444292966 0.633674008682426 0 0.179082573878933 0.62875366134998 0 0.168977234691944 0.597486110615038 0 0.170827565707776 0.59225135041858 0
          0.18126675620909 0.623530675388009 0 0.18318795918196 0.618117170264223 0 0.160662546493233 0.561169491916557 0 0.162105369731434 0.555643106959423 0
          0.151898855119532 0.524740785300529 0 0.172598687949002 0.586721375866141 0 0.1740941951607 0.581024864338786 0 0.163473998238724 0.549844602753893 0
          0.164577604065835 0.543887733282486 0 0.15295299947526 0.518951685424786 0 0.184993840229048 0.612422609280952 0 0.186536502129112 0.606538908081686 0
          0.175506582297409 0.575056578596789 0 0.176639170857016 0.568920087126363 0 0.187957262134941 0.600395276906201 0 0.189116332830115 0.594064900622716 0
          0.142727152151097 0.488213787621168 0 0.143412566799242 0.482188831709406 0 0.133188587751337 0.451603460727269 0 0.133519085587902 0.445367406975955 0
          0.144038126222408 0.475933506507226 0 0.144412903720067 0.469533213476783 0 0.12330423214067 0.414896313039209 0 0.118236732543264 0.396529691033932 0
          0.123346883268115 0.408463642820184 0 0.113124744720788 0.378124613833969 0 0.133787440993378 0.438920508756731 0 0.15394106303285 0.512912517019922 0
          0.154670712796608 0.506721750210595 0 0.165603216624645 0.537680094733063 0 0.16636138859337 0.531313461615753 0 0.15533134483075 0.500301105913287 0
          0.177686661725979 0.562534887915157 0 0.178452468717435 0.555981031769151 0 0.167039284571721 0.524717721944361 0 0.167449224315173 0.51796341571387 0
          0.15573273765994 0.493729157825291 0 0.156062605992138 0.486947887848387 0 0.144789562426145 0.456170962947102 0 0.144729681789955 0.462925343990544 0
          0.156133743894399 0.480016150138248 0 0.144792446698676 0.449228044342124 0 0.144543082469596 0.442142893125508 0 0.133851185010814 0.432328954428841 0
          0.128539895882623 0.420399597427002 0 0.123249874859664 0.401851477249316 0 0.128456476830402 0.413710760348354 0 0.123020525403066 0.39508515522565 0
          0.118125972331903 0.389994459195138 0 0.112869389286464 0.37151453390347 0 0.107934788257224 0.359723571572724 0 0.117865281280099 0.383310350653999 0
          0.133814465907117 0.425552275941928 0 0.133580201979729 0.418627207158709 0 0.128233694498651 0.406864713478653 0 0.190148910746299 0.587495392370394 0
          0.190922702620191 0.580742358555036 0 0.179132627517943 0.549201354424689 0 0.179530965127531 0.542253494559202 0 0.191566961274843 0.57377089004389 0
          0.191957123057341 0.566620083334013 0 0.167777834411969 0.511001588089358 0 0.167839613568472 0.50388256817696 0 0.156132959285234 0.472896860526952 0
          0.179844574816498 0.535102476240209 0 0.179877798673205 0.527784513702998 0 0.167820432190937 0.496577345268747 0 0.167537881880693 0.489117539154923 0
          0.155872933444966 0.465627542464306 0 0.192215447442901 0.559271034964059 0 0.19222672525747 0.551747830305527 0 0.179828915269743 0.520286201226833 0
          0.179502856823936 0.512622999750043 0 0.192100410186172 0.544045210310701 0 0.191725391432393 0.53616593836915 0 0.276726831768172 0.889549694635546 0
          0.262673273012372 0.856317537671501 0 0.269405855802539 0.845767341513752 0 0.248954800003183 0.823604713891466 0 0.259110094832353 0.834738903529596 0
          0.255560020889471 0.81330454299124 0 0.265296812147654 0.823805583009419 0 0.26113436694931 0.801807897466156 0 0.235585446929241 0.791526081763833 0
          0.245465817572446 0.802454890790586 0 0.24196533662405 0.781368519574143 0 0.222577997332127 0.759987055333133 0 0.232146465396408 0.770718611871873 0
          0.251455341491718 0.791635087426592 0 0.247349674365988 0.770068008279231 0 0.237917499965191 0.76005614327279 0 0.233860426971303 0.738813782690412 0
          0.228689684056801 0.749964035499055 0 0.256436425166663 0.77970153746704 0 0.251723185136533 0.757627347168512 0 0.242710368875368 0.748271204083629 0
          0.23807801460846 0.726602461771186 0 0.24653830878003 0.735466678662559 0 0.241343032912789 0.713341993974933 0 0.209876334940185 0.728887199407276 0
          0.219200805565298 0.739511179145465 0 0.212908067578089 0.724058071974665 0 0.215696936069979 0.718982047241947 0 0.203707532957434 0.713543787640744 0
          0.206621583135455 0.708753523689597 0 0.197584336056772 0.698316040939327 0 0.209387936239312 0.703688113063974 0 0.203113643480405 0.688510394794385 0
          0.200485145804766 0.693541165494114 0 0.21186478663802 0.698353121869237 0 0.205584468215377 0.68320046524619 0 0.207791510252818 0.67764471634742 0
          0.191631537844979 0.683181754047429 0 0.194378763348003 0.678443816575434 0 0.185709828787122 0.668164563820998 0 0.188438553669205 0.663427930845133 0
          0.190905052268561 0.65844587157565 0 0.179963086457797 0.653223925526233 0 0.182528309150395 0.648520241732216 0 0.196992674016381 0.673424791003535 0
          0.199335467829645 0.668154161915763 0 0.224717344229529 0.728985511166442 0 0.218284469962079 0.713603213944533 0 0.220630038824189 0.707984816337063 0
          0.214192519669096 0.692760410473184 0 0.229314610528442 0.717380296123921 0 0.222766720312354 0.702081844088839 0 0.224664420007123 0.695945888572767 0
          0.216235768408777 0.686905019559698 0 0.232976745208116 0.704738458848272 0 0.227789872177511 0.682931199251763 0 0.226341336942683 0.689547339000217 0
          0.219727676650785 0.674459954439935 0 0.221168467545486 0.667889566876357 0 0.214583426086334 0.652945666968332 0 0.218120982254472 0.680809606488236 0
          0.21161650057481 0.665772519070264 0 0.209833467418668 0.671827943357973 0 0.213226512462172 0.65947443681097 0 0.206761045518501 0.644578224575865 0
          0.205242477451997 0.650831496715634 0 0.198905187091958 0.635981460282525 0 0.203464777942829 0.656848768035551 0 0.208117099600077 0.638099552267141 0
          0.201688730714351 0.623336989195648 0 0.200421925078107 0.629771955006374 0 0.194120584377207 0.615048117160347 0 0.195384884377106 0.608660133725513 0
          0.201532530388817 0.662623281072356 0 0.195308411833473 0.64770085474867 0 0.193236286754699 0.653192783090298 0 0.187170703380785 0.638329351824787 0
          0.189232120075984 0.632860131594009 0 0.184979108984773 0.643546155475382 0 0.197234156177178 0.641957285691249 0 0.191039316651741 0.627155897893993 0
          0.192703895805993 0.621215406071009 0 0.235741882049827 0.691170522152707 0 0.22903105905461 0.6760629624801 0 0.230023927707646 0.668955919067277 0
          0.222341281959487 0.66107362051718 0 0.223336788973359 0.654047489325412 0 0.216691861192458 0.639214356146776 0 0.215762260889847 0.646192406389956 0
          0.224078710221071 0.646795959441834 0 0.217442504329404 0.632033854247182 0 0.21795015020107 0.624636393616026 0 0.209221010451778 0.631393268570937 0
          0.202795001133313 0.616686206677086 0 0.20365679431648 0.609817190293104 0 0.196408488086509 0.602054116824124 0 0.210154777666061 0.624478326810554 0
          0.21084556373121 0.617346327429445 0 0.211361221293462 0.610022597517594 0 0.204813190414174 0.595474400925483 0 0.204353728010986 0.602750835634647 0
          0.197902355869001 0.588223498899882 0 0.198366310370128 0.581014779022065 0 0.197271563760459 0.595242963602847 0 0.211641918277837 0.602491743227162 0
          0.205104170232757 0.588017878514451 0 0.205164618945363 0.580358314938701 0 0.198606678774122 0.573607967214577 0 0.198673892083566 0.566029220007196 0
          0.198524272410254 0.558264570096057 0 0 0 0 0 0 0 0.00865985798524001 0.028849533915222 0
          0 0 0 0.00884758055239582 0.0289069083500584 0 0 0 0 0.0175951557652285 0.0574460448432611 0
          0.0179459712163605 0.0574565401409159 0 0.00897723377521127 0.0288056586121838 0 0.0268071536590842 0.0857538775053937 0 0 0 0
          0.00911563390518349 0.0287688053227967 0 0 0 0 0.00926059990050303 0.0285916538835058 0 0.0185255713965267 0.0570980259317358 0
          0 0 0 0.00934778012634719 0.0284622962796869 0 0 0 0 0.0182265277769713 0.0572621318295087 0
          0.0273310016622976 0.0856759517713102 0 0.0363238702989254 0.113782316166054 0 0.0370307691193047 0.113578970284138 0 0.0277781708148477 0.0853459157609078 0
          0.0282204849360703 0.0850231720360934 0 0.037635217027505 0.113083122395346 0 0.0382416685759099 0.112570651919007 0 0.0187835375185524 0.0567549338285094 0
          0.0190253459559619 0.0564254445109379 0 0.0095047090659332 0.0282092902897662 0 0.0286286617199487 0.0844702687079783 0 0.0461670813358051 0.141540143517665 0
          0.0470514769644585 0.14118110869486 0 0.0563442453232244 0.169044768373922 0 0.0574114339427643 0.168503616139383 0 0.047823525236666 0.140490502547639 0
          0.0668633749733595 0.196323928631226 0 0.101524511135871 0.25974632053573 0 0.0984509910077242 0.255926871650905 0 0.0945741020163635 0.24389767725415 0
          0.0876940235791285 0.227976263841643 0 0.0953461663409536 0.251921410067437 0 0.0915775059532949 0.239973638622976 0 0.0847603685295105 0.223972106464664 0
          0.0808975150523097 0.212110575635199 0 0.0741719368361295 0.196163804337838 0 0.0922123632004472 0.24773739792806 0 0.0885468828361465 0.235880885165341 0
          0.0818070624970414 0.219789292434557 0 0.0890493984592719 0.243381874874703 0 0.0854920648549038 0.231613466440061 0 0.0780412075104585 0.207995344282847 0
          0.0713828391921911 0.191957345904535 0 0.0751633102366811 0.203717194967376 0 0.0685845493359653 0.187579417239099 0 0.078833628449969 0.215437143992097 0
          0.0675328548712145 0.180248560228025 0 0.0609691772180143 0.164238389939106 0 0.0648223084677466 0.175920865545663 0 0.0583281265589028 0.159807768943945 0
          0.0544923176673981 0.148232438609497 0 0.0480956698471845 0.132117493615803 0 0.0858822728003731 0.238843447695062 0 0.082422461972592 0.227171046178339 0
          0.0758508047143753 0.210919999440004 0 0.0826839129706553 0.234159125795873 0 0.0793344718164925 0.222568717542653 0 0.072852234143187 0.20623788987498 0
          0.0693769031248546 0.194663050654612 0 0.0629719681846177 0.178339296775144 0 0.0794459957599683 0.229261263038133 0 0.0762428086360199 0.217798337401699 0
          0.0698705169358647 0.201399287587004 0 0.0664750798136845 0.189887988171165 0 0.0722736853001722 0.199270660441644 0 0.0657779923770022 0.183040595381296 0
          0.0621016770858968 0.171437274110742 0 0.055688991294508 0.155214536686498 0 0.0593820870014896 0.166793124046836 0 0.0519311848723095 0.143670973945173 0
          0.0456058956176636 0.127442349883666 0 0.0493709556456962 0.138962175220456 0 0.0431283424431064 0.12261314440852 0 0.0530541945784856 0.150471514088778 0
          0.0468227958526584 0.134103387364641 0 0.0504377406441493 0.145586752579018 0 0.0566710742108808 0.161995074733579 0 0.0406694090483428 0.11763298458807 0
          0.0601638451630229 0.173469559777727 0 0.0417851063870305 0.115978639215124 0 0.0355588427801531 0.0997177347745386 0 0.0393770613054673 0.111164765927232 0
          0.0332239541828958 0.0947833899985615 0 0.0294160941265741 0.0834034886199709 0 0.023361233057591 0.0669530023186422 0 0.0369832118745107 0.106212326816877 0
          0.0309070063784752 0.0897224114297122 0 0.0271587533298401 0.0783243699008795 0 0.0211855844671814 0.0617250117711215 0 0.0173919071529451 0.0504201189995486 0
          0.0114969906141471 0.033765825731352 0 0 0 0 0 0 0 0.0057535484946035 0.0168034431638519 0
          0.0116212351071204 0.0334158029904841 0 0 0 0 0.00579675511464498 0.0166158320615707 0 0.0117045146597373 0.0330381027307398 0
          0 0 0 0.00582825191139826 0.0164145744817137 0 0.0175513909734601 0.0499349469410899 0 0.0235843708348244 0.0662876224204999 0
          0.0176808818215847 0.0493785117965218 0 0.0237631171302215 0.0655404997753074 0 0.0117735445323388 0.0326211346475216 0 0.0296904908741191 0.082580057098443 0
          0.0358954596860544 0.0987172369417198 0 0 0 0 0.00585123756668462 0.0161937239825575 0 0.011824020897672 0.0321669887311509 0
          0 0 0 0.00586497214812293 0.0159546845850618 0 0.011855489767763 0.0316773100874845 0 0.0178588069627963 0.0480951846369557 0
          0.0240090154855149 0.0638190124653805 0 0 0 0 0.00586963313953713 0.0156986059629923 0 0.0118682930514991 0.0311545854095874 0
          0 0 0 0.00585728995114728 0.0154266818019391 0 0.0179045512572371 0.0473731729073511 0 0.0177838863697739 0.0487647562418485 0
          0.0239055712714032 0.0647158987911111 0 0.0299163994097558 0.0816548182797075 0 0.0361712642468935 0.0976036884924514 0 0.0300938611226361 0.0806368376767603 0
          0.0421755120784417 0.114824583850589 0 0.0485500005895206 0.130789271503592 0 0.0424980381977202 0.113536518690753 0 0.0489217050147641 0.129317212060698 0
          0.0363881512242015 0.096379868410329 0 0.0427492213547176 0.112124021603916 0 0.0365438260682722 0.0950523996312846 0 0.030221696076648 0.0795301108997812 0
          0.0492112173760159 0.127704119927097 0 0.0429280460594257 0.110592328671547 0 0.0494159121326879 0.125957883223685 0 0.0240724597773384 0.0628537329794229 0
          0.017914353390347 0.0466050966132127 0 0.0240915878512289 0.0618165253136315 0 0.0118380302427416 0.0306124320294675 0 0.030300298928832 0.0783391228428487 0