<?xml version="1.0"?>
<VTKFile type="UnstructuredGrid" version="0.1" byte_order="LittleEndian">
  <UnstructuredGrid>
    <Piece NumberOfCells="1728" NumberOfPoints="2197">
      <CellData Scalars="S_liq">
        <DataArray type="Float32" Name="S_liq" NumberOfComponents="1" format="ascii">
          0.208858 0.208787 0.208694 0.208664 0.208753 0.208933 0.20917 0.209439 0.209711 0.209951 0.21013 0.210226
          0.208821 0.208726 0.208589 0.208537 0.208641 0.208833 0.209076 0.209358 0.209649 0.209907 0.210099 0.210201
          0.208788 0.208662 0.208452 0.208363 0.208491 0.208681 0.208913 0.209215 0.20954 0.209831 0.210048 0.210162
          0.208822 0.20871 0.208535 0.208423 0.208465 0.208564 0.208719 0.209046 0.209418 0.209753 0.209999 0.210128
          0.20892 0.208827 0.208688 0.208582 0.208547 0.208535 0.208555 0.208927 0.209344 0.209714 0.209983 0.210124
          0.209066 0.208985 0.208867 0.208785 0.208736 0.208708 0.208748 0.209025 0.209396 0.209756 0.210026 0.210167
          0.209258 0.209178 0.209061 0.209015 0.208983 0.20896 0.20899 0.209229 0.20956 0.209885 0.210132 0.210263
          0.209495 0.209422 0.209312 0.209287 0.209271 0.209269 0.209327 0.20952 0.209793 0.210068 0.210281 0.210396
          0.209761 0.209707 0.20963 0.209589 0.209564 0.209563 0.209625 0.209794 0.210027 0.21026 0.210442 0.210541
          0.210005 0.209966 0.209907 0.209858 0.209822 0.209813 0.209865 0.210021 0.210228 0.210431 0.210589 0.210675
          0.210187 0.210156 0.210107 0.210057 0.210019 0.210012 0.210065 0.210201 0.210381 0.21056 0.2107 0.210776
          0.210284 0.210257 0.210211 0.210162 0.210126 0.210123 0.210178 0.210301 0.210465 0.21063 0.21076 0.210831
          0.208448 0.208324 0.208139 0.208048 0.208164 0.208397 0.208684 0.209001 0.209318 0.209598 0.209805 0.209915
          0.208369 0.20818 0.207839 0.207674 0.207902 0.208208 0.208522 0.208871 0.209223 0.209533 0.209761 0.209882
          0.208277 0.20797 0.207124 0.206807 0.207475 0.207897 0.208207 0.208615 0.209044 0.209417 0.209687 0.209828
          0.208294 0.208061 0.207619 0.207274 0.207488 0.207642 0.207686 0.208236 0.208806 0.209279 0.209608 0.209776
          0.208384 0.208214 0.20794 0.207714 0.207653 0.20743 0.206502 0.207783 0.208586 0.209176 0.209565 0.209757
          0.208523 0.208369 0.208146 0.208035 0.20795 0.207785 0.207548 0.208013 0.208597 0.209195 0.209599 0.209798
          0.208722 0.208542 0.208189 0.208289 0.208268 0.208126 0.207767 0.208264 0.20885 0.209367 0.209727 0.209908
          0.208997 0.208814 0.208404 0.208608 0.208635 0.208581 0.208542 0.208804 0.209219 0.209618 0.209912 0.210066
          0.209336 0.209228 0.20906 0.209043 0.209005 0.208948 0.20895 0.209195 0.209538 0.209864 0.210108 0.210236
          0.209644 0.209578 0.209478 0.209404 0.209322 0.209227 0.209168 0.20946 0.209786 0.210072 0.210281 0.210391
          0.20987 0.209823 0.209746 0.209663 0.209581 0.209514 0.209522 0.209726 0.209989 0.210231 0.210412 0.210509
          0.209988 0.209948 0.20988 0.2098 0.209726 0.209683 0.209719 0.209882 0.210104 0.210319 0.210484 0.210572
          0.207793 0.207618 0.207329 0.2071 0.207205 0.207484 0.207825 0.208206 0.208592 0.208934 0.209188 0.209322
          0.207672 0.207407 0.206885 0.206322 0.206659 0.207147 0.207566 0.208002 0.208446 0.208838 0.209126 0.209276
          0.207503 0.207083 0.205945 0.203844 0.205368 0.206546 0.207053 0.20758 0.208158 0.20866 0.209017 0.2092
          0.207429 0.207043 0.206156 0.204359 0.205631 0.206169 0.206267 0.206867 0.207724 0.208426 0.208892 0.209122
          0.207443 0.207141 0.206646 0.206073 0.20613 0.2059 0.204782 0.205531 0.207149 0.208195 0.208802 0.209082
          0.207524 0.207208 0.206868 0.206704 0.206608 0.206359 0.205899 0.206039 0.206645 0.208109 0.208817 0.209123
          0.207762 0.207411 0.206697 0.207025 0.207048 0.206836 0.206262 0.205875 0.20742 0.208414 0.208993 0.209262
          0.208121 0.207746 0.206731 0.207412 0.207517 0.207405 0.207254 0.207452 0.208169 0.208809 0.209246 0.209462
          0.208587 0.208388 0.208055 0.208069 0.207985 0.20778 0.207564 0.208048 0.208643 0.209148 0.209499 0.209676
          0.209001 0.208889 0.208713 0.208578 0.208371 0.207954 0.2069 0.208238 0.208946 0.209413 0.209716 0.209868
          0.209295 0.209219 0.20909 0.208942 0.208758 0.208527 0.208323 0.208787 0.209255 0.209627 0.209883 0.210014
          0.209446 0.209383 0.209273 0.209135 0.208984 0.208852 0.208831 0.209093 0.209437 0.209748 0.209974 0.210093
          0.20704 0.206864 0.206576 0.206317 0.206271 0.206415 0.20672 0.20714 0.207597 0.208012 0.208322 0.208486
          0.206902 0.206667 0.206256 0.205848 0.20584 0.206027 0.206373 0.206868 0.207408 0.207889 0.208243 0.208428
          0.206677 0.20634 0.205676 0.20483 0.205055 0.205315 0.205664 0.206316 0.20704 0.207665 0.208106 0.208333
          0.206451 0.20603 0.205147 0.203157 0.204367 0.204563 0.204449 0.205445 0.206522 0.207384 0.207956 0.208238
          0.206267 0.205783 0.205278 0.204537 0.204419 0.203899 0.201788 0.204219 0.205937 0.207139 0.207858 0.208196
          0.20614 0.205098 0.205275 0.2051 0.204889 0.204542 0.203762 0.203636 0.205541 0.207091 0.207895 0.208255
          0.206569 0.206024 0.205289 0.205502 0.2055 0.205336 0.20506 0.204949 0.206381 0.20745 0.208114 0.20843
          0.207102 0.206641 0.205532 0.2061 0.206131 0.205993 0.205922 0.206303 0.207139 0.207894 0.208416 0.208677
          0.207694 0.207439 0.207015 0.206912 0.206698 0.206349 0.206016 0.206809 0.207629 0.20828 0.208719 0.208939
          0.208199 0.208045 0.207791 0.207546 0.207181 0.206466 0.20455 0.206882 0.207955 0.208591 0.208983 0.209175
          0.208555 0.208446 0.208254 0.208018 0.207721 0.207342 0.206967 0.207693 0.208362 0.20886 0.20919 0.209355
          0.208738 0.208646 0.208482 0.208273 0.208041 0.207831 0.207774 0.208143 0.20861 0.209017 0.209305 0.209453
          0.206177 0.205981 0.205646 0.205285 0.205047 0.20503 0.205322 0.205809 0.206359 0.206861 0.207238 0.207439
          0.20603 0.205789 0.205364 0.204881 0.204554 0.204444 0.204834 0.20545 0.20612 0.20671 0.207141 0.207368
          0.205774 0.205447 0.204849 0.204082 0.203637 0.203143 0.203841 0.204742 0.205674 0.206443 0.20698 0.207254
          0.205466 0.205023 0.204214 0.202801 0.202773 0.202506 0.202385 0.203679 0.20509 0.206135 0.206814 0.207149
          0.205159 0.204521 0.203803 0.2025 0.201789 0.201546 0.199185 0.202017 0.204541 0.205921 0.20673 0.207116
          0.204934 0.203446 0.203501 0.203033 0.202286 0.202375 0.201676 0.203192 0.204791 0.206029 0.206822 0.20721
          0.205488 0.204817 0.203937 0.203182 0.203397 0.203491 0.203559 0.20429 0.205425 0.206412 0.207094 0.207438
          0.206139 0.205694 0.204877 0.204627 0.204411 0.20426 0.204442 0.205159 0.206069 0.206878 0.207451 0.207745
          0.206784 0.206495 0.206006 0.20558 0.205095 0.204594 0.20454 0.205613 0.206578 0.207318 0.207818 0.20807
          0.207334 0.207133 0.206783 0.206368 0.205847 0.205082 0.20335 0.205821 0.206991 0.207701 0.208146 0.208365
          0.207731 0.207582 0.207314 0.206976 0.206595 0.206202 0.20592 0.20673 0.20747 0.208028 0.208402 0.20859
          0.20794 0.207814 0.207589 0.207306 0.207018 0.206802 0.206798 0.20723 0.207757 0.208217 0.208544 0.208713
          0.205206 0.204956 0.20451 0.203978 0.203518 0.203348 0.203662 0.204244 0.204904 0.205507 0.205965 0.206211
          0.205061 0.204765 0.204224 0.20353 0.202807 0.202404 0.202966 0.203778 0.204602 0.205315 0.205841 0.20612
          0.204813 0.204436 0.203726 0.202735 0.201252 0.199874 0.201547 0.202901 0.204063 0.204986 0.205639 0.205979
          0.204537 0.204049 0.203132 0.201981 0.200893 0.199784 0.199914 0.201821 0.203436 0.204633 0.205442 0.205854
          0.204321 0.203671 0.202344 0.20089 0.200003 0.198769 0.19726 0.200728 0.202943 0.204399 0.205347 0.205821
          0.204306 0.203476 0.201614 0.201282 0.199692 0.200114 0.200347 0.20167 0.203105 0.204506 0.205458 0.205949
          0.204717 0.204128 0.203102 0.202259 0.201511 0.201433 0.201802 0.202348 0.203887 0.205038 0.205843 0.206261
          0.205282 0.204818 0.203995 0.203168 0.202322 0.201843 0.202576 0.203594 0.204668 0.205632 0.206313 0.206665
          0.205882 0.205498 0.204764 0.203856 0.202515 0.20079 0.202476 0.204291 0.205399 0.206228 0.206797 0.207088
          0.20645 0.206167 0.20564 0.204968 0.204182 0.203473 0.204034 0.205157 0.206066 0.206756 0.207228 0.20747
          0.206886 0.206679 0.206303 0.205837 0.205377 0.205105 0.205331 0.20596 0.206615 0.207165 0.207555 0.207757
          0.207121 0.206953 0.206652 0.20629 0.205966 0.205815 0.20597 0.206404 0.206921 0.207388 0.207732 0.207912
          0.204173 0.203834 0.203224 0.20249 0.201877 0.201628 0.201901 0.202533 0.20328 0.203987 0.204547 0.204856
          0.204024 0.203629 0.202898 0.201965 0.201091 0.2006 0.201031 0.201935 0.202875 0.203712 0.20437 0.20473
          0.203793 0.203312 0.202409 0.20126 0.199724 0.198077 0.199073 0.200791 0.202156 0.203241 0.204086 0.204538
          0.203581 0.203008 0.201913 0.200646 0.198964 0.197017 0.195829 0.199395 0.201343 0.202772 0.203826 0.204381
          0.203502 0.202891 0.201745 0.200349 0.19926 0.198231 0.197378 0.198957 0.200549 0.202308 0.203657 0.204341
          0.203608 0.202957 0.201677 0.199784 0.199387 0.199027 0.198964 0.199335 0.200979 0.202118 0.203634 0.204493
          0.203949 0.203327 0.202093 0.200243 0.19923 0.199233 0.200009 0.201007 0.20215 0.203347 0.204375 0.204946
          0.204434 0.203808 0.202427 0.201199 0.199673 0.198827 0.200838 0.202032 0.202661 0.204109 0.205018 0.205478
          0.205002 0.204379 0.202743 0.201148 0.198587 0.199402 0.201728 0.203109 0.20405 0.204992 0.205675 0.20603
          0.205616 0.205203 0.204368 0.203378 0.202333 0.202221 0.203104 0.204173 0.205012 0.205727 0.20625 0.206525
          0.206104 0.205828 0.205316 0.204702 0.204159 0.20404 0.204425 0.205055 0.205693 0.206255 0.206671 0.206893
          0.20637 0.206155 0.205772 0.20532 0.204949 0.204845 0.205075 0.20553 0.206052 0.206532 0.206895 0.207089
          0.203195 0.202725 0.201853 0.200775 0.200022 0.199872 0.200106 0.200757 0.201561 0.202373 0.203082 0.203489
          0.203018 0.202443 0.201293 0.19956 0.198649 0.198861 0.199198 0.200023 0.200965 0.201894 0.202794 0.203303
          0.202762 0.202038 0.200553 0.199246 0.198204 0.197102 0.19728 0.198663 0.199907 0.200971 0.202337 0.203034
          0.202567 0.201665 0.19932 0.198363 0.197283 0.196085 0.193772 0.196946 0.199066 0.200609 0.202079 0.202881
          0.202604 0.201853 0.200386 0.198562 0.197563 0.196948 0.196197 0.197285 0.197944 0.199981 0.202055 0.202942
          0.202815 0.202135 0.200936 0.199526 0.198465 0.197396 0.196633 0.198412 0.199689 0.201121 0.202506 0.203255
          0.203223 0.20259 0.201441 0.200091 0.199014 0.198365 0.198185 0.199545 0.200541 0.201912 0.203095 0.203739
          0.203783 0.203207 0.202107 0.200691 0.199211 0.198782 0.199467 0.200425 0.200297 0.202448 0.203717 0.204321
          0.204408 0.203881 0.202774 0.200917 0.197951 0.19958 0.200781 0.201822 0.20258 0.203681 0.20454 0.204988
          0.20503 0.204628 0.203831 0.202688 0.20141 0.20141 0.202196 0.203081 0.203888 0.204668 0.205275 0.205601
          0.205524 0.205229 0.204674 0.203954 0.203277 0.203112 0.203489 0.204093 0.204742 0.205345 0.205807 0.206057
          0.205795 0.205556 0.205122 0.20459 0.204128 0.20397 0.204189 0.204642 0.205181 0.205692 0.206086 0.2063
          0.202539 0.201985 0.200935 0.199669 0.198538 0.198223 0.198146 0.199007 0.199921 0.200881 0.201808 0.202344
          0.202338 0.201629 0.200078 0.198236 0.197052 0.197157 0.197201 0.197935 0.198855 0.199931 0.201331 0.202083
          0.202068 0.201179 0.198988 0.197253 0.196488 0.195474 0.194884 0.196178 0.196338 0.197344 0.200481 0.201706
          0.201906 0.201067 0.199489 0.19797 0.196645 0.195076 0.192471 0.195208 0.197177 0.197891 0.200153 0.201571
          0.201877 0.201032 0.199581 0.19807 0.196812 0.195507 0.194056 0.196231 0.197879 0.199055 0.200857 0.201834
          0.202015 0.200984 0.199584 0.198144 0.197043 0.196027 0.195427 0.197216 0.198663 0.199769 0.201372 0.202213
          0.202496 0.201556 0.199776 0.198127 0.197461 0.196485 0.196896 0.198123 0.199183 0.20028 0.201847 0.20268
          0.203225 0.202575 0.201373 0.199917 0.198331 0.196199 0.197749 0.198759 0.198992 0.200044 0.202383 0.203283
          0.203973 0.203472 0.202492 0.201034 0.19888 0.197205 0.198767 0.200274 0.201303 0.202355 0.203488 0.204074
          0.204642 0.204253 0.203473 0.202221 0.199996 0.198146 0.200252 0.201631 0.202764 0.20368 0.204411 0.204804
          0.205148 0.204851 0.204277 0.203457 0.202463 0.201841 0.202336 0.203048 0.203831 0.204526 0.205057 0.205343
          0.205422 0.205176 0.204715 0.204112 0.203504 0.203168 0.20334 0.2038 0.204389 0.204954 0.20539 0.205627
          0.202394 0.201926 0.201062 0.199977 0.198909 0.197977 0.196822 0.198067 0.199141 0.200227 0.201223 0.20178
          0.202211 0.201653 0.200588 0.199209 0.197952 0.197005 0.196008 0.19687 0.19807 0.199366 0.200834 0.20157
          0.201924 0.201214 0.199809 0.19769 0.195905 0.194818 0.194469 0.194328 0.195915 0.197847 0.200308 0.201313
          0.201644 0.200736 0.199107 0.197118 0.195164 0.193128 0.19169 0.193943 0.196808 0.198696 0.200377 0.201281
          0.201487 0.200371 0.197849 0.195834 0.194724 0.192808 0.191562 0.194922 0.197352 0.19912 0.20061 0.20143
          0.201582 0.200211 0.197378 0.194984 0.193801 0.192648 0.192731 0.195531 0.197638 0.199117 0.200785 0.201668
          0.202149 0.2011 0.19872 0.197018 0.195024 0.193413 0.1939 0.196329 0.197967 0.197951 0.2009 0.202026
          0.202963 0.202282 0.200983 0.199538 0.197935 0.196358 0.195471 0.196807 0.198903 0.19957 0.201754 0.202693
          0.203776 0.203303 0.202415 0.201256 0.199924 0.198757 0.198268 0.198781 0.200544 0.201752 0.202919 0.20353
          0.204471 0.204122 0.20346 0.202544 0.201442 0.200397 0.199297 0.199376 0.201819 0.203055 0.203874 0.204295
          0.204978 0.204709 0.204204 0.203526 0.202782 0.202177 0.201899 0.202203 0.203174 0.20398 0.204559 0.204863
          0.205247 0.205019 0.204597 0.204051 0.203493 0.203091 0.202995 0.203276 0.203865 0.204459 0.204917 0.205164
          0.202539 0.202168 0.201488 0.200616 0.199708 0.198903 0.198348 0.198648 0.199298 0.200346 0.201239 0.201723
          0.202395 0.201974 0.201194 0.200181 0.199118 0.198128 0.197149 0.19755 0.197999 0.199759 0.201004 0.201593
          0.202161 0.201651 0.200692 0.199407 0.198039 0.196749 0.195263 0.195871 0.197884 0.199523 0.200802 0.201453
          0.201928 0.201304 0.200129 0.198548 0.196722 0.195065 0.19346 0.195661 0.197777 0.199483 0.200743 0.201404
          0.201809 0.201054 0.199565 0.197487 0.194545 0.192529 0.191025 0.194721 0.197383 0.199381 0.200756 0.201461
          0.201933 0.201097 0.19939 0.196684 0.193308 0.189349 0.190447 0.193362 0.196515 0.199167 0.200834 0.201636
          0.202393 0.201643 0.200081 0.197503 0.194161 0.192505 0.192419 0.195375 0.197639 0.198999 0.201106 0.202
          0.203083 0.202518 0.201408 0.199824 0.197952 0.196234 0.193861 0.19651 0.199031 0.200573 0.201947 0.202645
          0.203821 0.203408 0.202622 0.201549 0.200329 0.199181 0.198208 0.197972 0.200478 0.201902 0.202893 0.203406
          0.204473 0.204167 0.203591 0.202821 0.20197 0.201207 0.200708 0.20088 0.202051 0.203036 0.203743 0.204115
          0.204953 0.204715 0.204273 0.203696 0.203088 0.202592 0.202361 0.202566 0.203207 0.203866 0.204376 0.204652
          0.205207 0.205003 0.204628 0.204147 0.20366 0.20329 0.203159 0.203345 0.203796 0.204302 0.204713 0.20494
          0.202693 0.202379 0.201803 0.201066 0.200304 0.199675 0.199354 0.199529 0.20007 0.200816 0.201476 0.201851
          0.202575 0.202227 0.201587 0.20076 0.199896 0.19917 0.19878 0.199021 0.199669 0.200577 0.201343 0.201765
          0.202384 0.201975 0.201215 0.200217 0.199154 0.198254 0.197793 0.198243 0.199245 0.200322 0.201187 0.201658
          0.2022 0.201712 0.200794 0.199558 0.198189 0.197023 0.19654 0.197464 0.198819 0.200103 0.201077 0.201597
          0.202123 0.201556 0.200461 0.198927 0.197094 0.195412 0.194762 0.196488 0.198364 0.199933 0.201049 0.201629
          0.20226 0.201651 0.200449 0.198683 0.196408 0.19345 0.191737 0.195515 0.198066 0.199917 0.20117 0.201804
          0.202659 0.20209 0.200964 0.199308 0.197236 0.19495 0.192095 0.196097 0.198593 0.200297 0.201546 0.202179
          0.203258 0.202789 0.201881 0.200595 0.199042 0.197335 0.195275 0.197776 0.19974 0.201186 0.202226 0.202766
          0.203921 0.203559 0.202871 0.20193 0.200853 0.199816 0.199109 0.199848 0.201123 0.202224 0.203028 0.203451
          0.204525 0.204249 0.203732 0.203046 0.202301 0.201656 0.201333 0.201661 0.20242 0.203189 0.203782 0.204101
          0.204977 0.204759 0.204356 0.203834 0.203294 0.202863 0.202687 0.202886 0.203372 0.203915 0.204357 0.204601
          0.205218 0.205029 0.204682 0.204242 0.203799 0.203463 0.203342 0.203497 0.203867 0.204301 0.204666 0.204872
        </DataArray>
        <DataArray type="Float32" Name="S_gas" NumberOfComponents="1" format="ascii">
          0.791142 0.791213 0.791306 0.791336 0.791247 0.791067 0.79083 0.790561 0.790289 0.790049 0.78987 0.789774
          0.791179 0.791274 0.791411 0.791463 0.791359 0.791167 0.790924 0.790642 0.790351 0.790093 0.789901 0.789799
          0.791212 0.791338 0.791548 0.791637 0.791509 0.791319 0.791087 0.790785 0.79046 0.790169 0.789952 0.789838
          0.791178 0.79129 0.791465 0.791577 0.791535 0.791436 0.791281 0.790954 0.790582 0.790247 0.790001 0.789872
          0.79108 0.791173 0.791312 0.791418 0.791453 0.791465 0.791445 0.791073 0.790656 0.790286 0.790017 0.789876
          0.790934 0.791015 0.791133 0.791215 0.791264 0.791292 0.791252 0.790975 0.790604 0.790244 0.789974 0.789833
          0.790742 0.790822 0.790939 0.790985 0.791017 0.79104 0.79101 0.790771 0.79044 0.790115 0.789868 0.789737
          0.790505 0.790578 0.790688 0.790713 0.790729 0.790731 0.790673 0.79048 0.790207 0.789932 0.789719 0.789604
          0.790239 0.790293 0.79037 0.790411 0.790436 0.790437 0.790375 0.790206 0.789973 0.78974 0.789558 0.789459
          0.789995 0.790034 0.790093 0.790142 0.790178 0.790187 0.790135 0.789979 0.789772 0.789569 0.789411 0.789325
          0.789813 0.789844 0.789893 0.789943 0.789981 0.789988 0.789935 0.789799 0.789619 0.78944 0.7893 0.789224
          0.789716 0.789743 0.789789 0.789838 0.789874 0.789877 0.789822 0.789699 0.789535 0.78937 0.78924 0.789169
          0.791552 0.791676 0.791861 0.791952 0.791836 0.791603 0.791316 0.790999 0.790682 0.790402 0.790195 0.790085
          0.791631 0.79182 0.792161 0.792326 0.792098 0.791792 0.791478 0.791129 0.790777 0.790467 0.790239 0.790118
          0.791723 0.79203 0.792876 0.793193 0.792525 0.792103 0.791793 0.791385 0.790956 0.790583 0.790313 0.790172
          0.791706 0.791939 0.792381 0.792726 0.792512 0.792358 0.792314 0.791764 0.791194 0.790721 0.790392 0.790224
          0.791616 0.791786 0.79206 0.792286 0.792347 0.79257 0.793498 0.792217 0.791414 0.790824 0.790435 0.790243
          0.791477 0.791631 0.791854 0.791965 0.79205 0.792215 0.792452 0.791987 0.791403 0.790805 0.790401 0.790202
          0.791278 0.791458 0.791811 0.791711 0.791732 0.791874 0.792233 0.791736 0.79115 0.790633 0.790273 0.790092
          0.791003 0.791186 0.791596 0.791392 0.791365 0.791419 0.791458 0.791196 0.790781 0.790382 0.790088 0.789934
          0.790664 0.790772 0.79094 0.790958 0.790995 0.791052 0.79105 0.790805 0.790462 0.790136 0.789892 0.789764
          0.790356 0.790422 0.790522 0.790596 0.790678 0.790773 0.790832 0.79054 0.790214 0.789928 0.789719 0.789609
          0.79013 0.790177 0.790254 0.790337 0.790419 0.790486 0.790478 0.790274 0.790011 0.789769 0.789587 0.789491
          0.790012 0.790052 0.79012 0.7902 0.790274 0.790317 0.790281 0.790118 0.789896 0.789681 0.789516 0.789428
          0.792207 0.792382 0.792671 0.7929 0.792795 0.792516 0.792175 0.791794 0.791408 0.791066 0.790812 0.790678
          0.792328 0.792593 0.793115 0.793678 0.793341 0.792853 0.792434 0.791998 0.791554 0.791162 0.790874 0.790724
          0.792497 0.792917 0.794055 0.796156 0.794632 0.793454 0.792947 0.79242 0.791842 0.79134 0.790983 0.7908
          0.792571 0.792957 0.793844 0.795641 0.794369 0.793831 0.793733 0.793133 0.792276 0.791574 0.791108 0.790878
          0.792557 0.792859 0.793354 0.793927 0.79387 0.7941 0.795218 0.794469 0.792851 0.791805 0.791198 0.790918
          0.792476 0.792792 0.793132 0.793296 0.793392 0.793641 0.794101 0.793961 0.793355 0.791891 0.791183 0.790877
          0.792238 0.792589 0.793303 0.792975 0.792952 0.793164 0.793738 0.794124 0.79258 0.791586 0.791007 0.790738
          0.791879 0.792254 0.793269 0.792588 0.792483 0.792594 0.792746 0.792548 0.791831 0.791191 0.790754 0.790538
          0.791413 0.791612 0.791945 0.791931 0.792015 0.79222 0.792436 0.791952 0.791357 0.790852 0.790501 0.790324
          0.790999 0.791111 0.791287 0.791422 0.791629 0.792046 0.7931 0.791762 0.791054 0.790587 0.790284 0.790132
          0.790705 0.790781 0.79091 0.791058 0.791242 0.791473 0.791677 0.791213 0.790745 0.790373 0.790117 0.789986
          0.790554 0.790617 0.790727 0.790865 0.791016 0.791148 0.791169 0.790907 0.790563 0.790252 0.790026 0.789907
          0.79296 0.793136 0.793424 0.793683 0.793729 0.793585 0.79328 0.79286 0.792403 0.791988 0.791678 0.791514
          0.793098 0.793333 0.793744 0.794152 0.79416 0.793973 0.793626 0.793132 0.792592 0.792111 0.791757 0.791572
          0.793323 0.79366 0.794324 0.79517 0.794945 0.794685 0.794336 0.793684 0.79296 0.792335 0.791894 0.791667
          0.793549 0.79397 0.794853 0.796843 0.795633 0.795437 0.795551 0.794555 0.793478 0.792616 0.792044 0.791762
          0.793733 0.794217 0.794722 0.795463 0.795581 0.796101 0.798212 0.795781 0.794063 0.792861 0.792142 0.791804
          0.79386 0.794902 0.794725 0.7949 0.795111 0.795458 0.796238 0.796364 0.794459 0.792909 0.792105 0.791745
          0.793431 0.793976 0.794711 0.794498 0.7945 0.794664 0.79494 0.795051 0.793619 0.79255 0.791886 0.79157
          0.792898 0.793359 0.794468 0.7939 0.793869 0.794007 0.794078 0.793697 0.792861 0.792106 0.791584 0.791323
          0.792306 0.792561 0.792985 0.793088 0.793302 0.793651 0.793984 0.793191 0.792371 0.79172 0.791281 0.791061
          0.791801 0.791955 0.792209 0.792454 0.792819 0.793534 0.79545 0.793118 0.792045 0.791409 0.791017 0.790825
          0.791445 0.791554 0.791746 0.791982 0.792279 0.792658 0.793033 0.792307 0.791638 0.79114 0.79081 0.790645
          0.791262 0.791354 0.791518 0.791727 0.791959 0.792169 0.792226 0.791857 0.79139 0.790983 0.790695 0.790547
          0.793823 0.794019 0.794354 0.794715 0.794953 0.79497 0.794678 0.794191 0.793641 0.793139 0.792762 0.792561
          0.79397 0.794211 0.794636 0.795119 0.795446 0.795556 0.795166 0.79455 0.79388 0.79329 0.792859 0.792632
          0.794226 0.794553 0.795151 0.795918 0.796363 0.796857 0.796159 0.795258 0.794326 0.793557 0.79302 0.792746
          0.794534 0.794977 0.795786 0.797199 0.797227 0.797494 0.797615 0.796321 0.79491 0.793865 0.793186 0.792851
          0.794841 0.795479 0.796197 0.7975 0.798211 0.798454 0.800815 0.797983 0.795459 0.794079 0.79327 0.792884
          0.795066 0.796554 0.796499 0.796967 0.797714 0.797625 0.798324 0.796808 0.795209 0.793971 0.793178 0.79279
          0.794512 0.795183 0.796063 0.796818 0.796603 0.796509 0.796441 0.79571 0.794575 0.793588 0.792906 0.792562
          0.793861 0.794306 0.795123 0.795373 0.795589 0.79574 0.795558 0.794841 0.793931 0.793122 0.792549 0.792255
          0.793216 0.793505 0.793994 0.79442 0.794905 0.795406 0.79546 0.794387 0.793422 0.792682 0.792182 0.79193
          0.792666 0.792867 0.793217 0.793633 0.794153 0.794918 0.79665 0.794179 0.793009 0.792299 0.791854 0.791635
          0.792269 0.792418 0.792686 0.793024 0.793405 0.793798 0.79408 0.79327 0.79253 0.791972 0.791598 0.79141
          0.79206 0.792186 0.792411 0.792694 0.792982 0.793198 0.793202 0.79277 0.792243 0.791784 0.791456 0.791287
          0.794794 0.795044 0.79549 0.796022 0.796482 0.796652 0.796338 0.795756 0.795096 0.794493 0.794035 0.793789
          0.794939 0.795235 0.795776 0.79647 0.797193 0.797596 0.797034 0.796222 0.795398 0.794685 0.794159 0.79388
          0.795187 0.795564 0.796274 0.797265 0.798748 0.800126 0.798453 0.797099 0.795937 0.795014 0.794361 0.794021
          0.795463 0.795951 0.796868 0.798019 0.799107 0.800216 0.800086 0.798179 0.796564 0.795367 0.794558 0.794146
          0.795679 0.796329 0.797656 0.79911 0.799997 0.801231 0.80274 0.799272 0.797057 0.795601 0.794653 0.794179
          0.795694 0.796524 0.798386 0.798718 0.800308 0.799886 0.799653 0.79833 0.796895 0.795494 0.794542 0.794051
          0.795283 0.795872 0.796898 0.797741 0.798489 0.798567 0.798198 0.797652 0.796113 0.794962 0.794157 0.793739
          0.794718 0.795182 0.796005 0.796832 0.797678 0.798157 0.797424 0.796406 0.795332 0.794368 0.793687 0.793335
          0.794118 0.794502 0.795236 0.796144 0.797485 0.79921 0.797524 0.795709 0.794601 0.793772 0.793203 0.792912
          0.79355 0.793833 0.794361 0.795032 0.795818 0.796527 0.795966 0.794843 0.793934 0.793244 0.792772 0.79253
          0.793114 0.793321 0.793697 0.794163 0.794623 0.794895 0.794669 0.79404 0.793385 0.792835 0.792445 0.792243
          0.792879 0.793047 0.793348 0.79371 0.794034 0.794185 0.79403 0.793596 0.793079 0.792612 0.792269 0.792088
          0.795827 0.796166 0.796776 0.79751 0.798123 0.798372 0.798099 0.797467 0.79672 0.796013 0.795453 0.795144
          0.795976 0.796371 0.797102 0.798035 0.798909 0.7994 0.798969 0.798065 0.797125 0.796288 0.79563 0.79527
          0.796207 0.796688 0.797591 0.79874 0.800276 0.801923 0.800927 0.799209 0.797844 0.796759 0.795914 0.795462
          0.796419 0.796992 0.798087 0.799354 0.801036 0.802983 0.804171 0.800605 0.798657 0.797228 0.796174 0.795619
          0.796498 0.797109 0.798255 0.799651 0.80074 0.801769 0.802622 0.801043 0.799451 0.797692 0.796343 0.795659
          0.796392 0.797043 0.798323 0.800216 0.800613 0.800973 0.801036 0.800665 0.799021 0.797882 0.796366 0.795507
          0.796051 0.796673 0.797907 0.799757 0.80077 0.800767 0.799991 0.798993 0.79785 0.796653 0.795625 0.795054
          0.795566 0.796192 0.797573 0.798801 0.800327 0.801173 0.799162 0.797968 0.797339 0.795891 0.794982 0.794522
          0.794998 0.795621 0.797257 0.798852 0.801413 0.800598 0.798272 0.796891 0.79595 0.795008 0.794325 0.79397
          0.794384 0.794797 0.795632 0.796622 0.797667 0.797779 0.796896 0.795827 0.794988 0.794273 0.793751 0.793476
          0.793896 0.794172 0.794684 0.795298 0.795841 0.79596 0.795575 0.794945 0.794307 0.793745 0.793329 0.793107
          0.79363 0.793845 0.794228 0.79468 0.795051 0.795155 0.794925 0.79447 0.793948 0.793468 0.793105 0.792911
          0.796805 0.797275 0.798147 0.799225 0.799978 0.800128 0.799894 0.799243 0.798439 0.797627 0.796918 0.796511
          0.796982 0.797557 0.798707 0.80044 0.801351 0.801139 0.800802 0.799977 0.799035 0.798106 0.797206 0.796697
          0.797238 0.797962 0.799447 0.800754 0.801796 0.802898 0.80272 0.801337 0.800093 0.799029 0.797663 0.796966
          0.797433 0.798335 0.80068 0.801637 0.802717 0.803915 0.806228 0.803054 0.800934 0.799391 0.797921 0.797119
          0.797396 0.798147 0.799614 0.801438 0.802437 0.803052 0.803803 0.802715 0.802056 0.800019 0.797945 0.797058
          0.797185 0.797865 0.799064 0.800474 0.801535 0.802604 0.803367 0.801588 0.800311 0.798879 0.797494 0.796745
          0.796777 0.79741 0.798559 0.799909 0.800986 0.801635 0.801815 0.800455 0.799459 0.798087 0.796905 0.796261
          0.796217 0.796793 0.797893 0.799309 0.800789 0.801218 0.800533 0.799575 0.799703 0.797552 0.796283 0.795679
          0.795592 0.796119 0.797226 0.799083 0.802049 0.80042 0.799219 0.798178 0.79742 0.796319 0.79546 0.795012
          0.79497 0.795372 0.796169 0.797312 0.79859 0.79859 0.797804 0.796919 0.796112 0.795332 0.794725 0.794399
          0.794476 0.794771 0.795326 0.796046 0.796723 0.796888 0.796511 0.795907 0.795258 0.794655 0.794192 0.793943
          0.794205 0.794444 0.794878 0.79541 0.795872 0.79603 0.795811 0.795358 0.794819 0.794308 0.793914 0.7937
          0.797461 0.798015 0.799065 0.800331 0.801462 0.801777 0.801854 0.800993 0.800079 0.799119 0.798192 0.797656
          0.797662 0.798371 0.799922 0.801764 0.802948 0.802843 0.802799 0.802065 0.801145 0.800069 0.798669 0.797917
          0.797932 0.798821 0.801012 0.802747 0.803512 0.804526 0.805116 0.803822 0.803662 0.802656 0.799519 0.798294
          0.798094 0.798933 0.800511 0.80203 0.803355 0.804924 0.807529 0.804792 0.802823 0.802109 0.799847 0.798429
          0.798123 0.798968 0.800419 0.80193 0.803189 0.804493 0.805944 0.803769 0.802121 0.800945 0.799143 0.798166
          0.797985 0.799016 0.800416 0.801856 0.802957 0.803973 0.804573 0.802784 0.801337 0.800231 0.798628 0.797787
          0.797504 0.798444 0.800224 0.801873 0.802539 0.803515 0.803104 0.801877 0.800817 0.79972 0.798153 0.79732
          0.796775 0.797425 0.798627 0.800083 0.801669 0.803801 0.802251 0.801241 0.801008 0.799955 0.797617 0.796717
          0.796027 0.796528 0.797508 0.798966 0.80112 0.802795 0.801233 0.799726 0.798697 0.797645 0.796512 0.795926
          0.795358 0.795747 0.796527 0.797779 0.800004 0.801854 0.799748 0.798369 0.797236 0.79632 0.795589 0.795196
          0.794852 0.795149 0.795723 0.796543 0.797537 0.798159 0.797664 0.796952 0.796169 0.795474 0.794943 0.794657
          0.794578 0.794824 0.795285 0.795888 0.796496 0.796832 0.79666 0.7962 0.795611 0.795046 0.794609 0.794372
          0.797606 0.798074 0.798938 0.800023 0.801091 0.802023 0.803178 0.801933 0.800859 0.799773 0.798777 0.79822