<?xml version="1.0"?>
<VTKFile type="UnstructuredGrid" version="0.1" byte_order="LittleEndian">
  <UnstructuredGrid>
    <Piece NumberOfCells="1928" NumberOfPoints="5784">
      <PointData Scalars="S_aq">
        <DataArray type="Float32" Name="S_aq" NumberOfComponents="1" format="ascii">
          1 1 1 1 1 1 0.937004 0.99993 0.994291 1 1 1
          1 1 1 1 1 1 1 1 1 1 1 1
          1 1 1 1 1 1 1 1 1 1 1 1
          1 1 1 1 1 1 1 1 1 1 1 1
          1 1 1 1 1 1 1 1 1 1 1 1
          1 1 1 1 1 1 0.999981 1 1 1 1 1
          1 1 1 0.990568 0.969498 0.752651 1 1 1 1 1 1
          1 1 1 1 1 1 1 1 1 1 1 1
          1 1 1 0.999981 1 1 1 1 1 1 1 1
          1 1 1 1 1 1 1 1 1 1 1 1
          1 1 1 1 1 1 1 1 1 1 1 1
          1 1 1 1 1 1 1 1 1 1 1 1
          1 1 1 1 1 1 1 1 1 1 1 1
          1 1 1 1 1 1 0.994291 0.885116 0.788407 1 1 1
          1 1 1 1 1 1 1 1 1 0.999925 0.932219 0.999086
          1 1 1 1 1 1 1 1 1 1 1 1
          1 1 1 1 1 1 1 1 1 1 1 1
          0.788407 0.937004 0.994291 0.999997 0.969498 0.999997 1 1 1 1 1 1
          1 1 1 1 1 1 1 1 1 1 1 1
          1 1 1 1 1 1 1 1 1 1 1 1
          1 1 1 1 1 1 1 1 1 1 1 1
          1 1 1 1 1 1 1 1 1 1 1 1
          1 1 1 0.999999 0.975264 1 1 1 1 1 1 1
          0.752651 0.933946 0.990568 1 1 1 1 1 1 1 1 1
          1 1 1 1 1 1 1 1 1 1 1 1
          1 1 1 1 1 1 1 1 1 1 1 1
          1 1 1 1 1 1 1 1 1 1 1 1
          1 1 1 1 1 1 1 1 1 0.972537 0.999996 0.995927
          1 1 1 1 1 1 1 1 1 1 1 1
          1 1 1 1 1 1 1 1 1 1 1 1
          1 1 1 1 1 1 1 1 1 1 1 1
          1 1 1 1 1 1 0.667182 0.5 0.774433 1 1 1
          1 1 1 1 1 1 1 1 1 1 1 1
          0.995927 0.800655 0.972537 1 1 1 1 1 1 1 1 1
          1 1 1 1 1 1 1 1 1 0.986399 0.999942 0.92589
          1 1 1 1 1 1 0.999521 0.885116 0.994291 1 1 1
          1 1 1 1 1 1 0.961783 0.961965 0.712752 1 1 1
          1 1 1 1 1 1 1 1 1 1 1 1
          1 1 1 1 1 1 0.974058 0.744142 0.977634 1 1 1
          1 1 1 1 1 1 1 1 1 1 1 1
          1 1 1 1 1 1 0.999086 0.932219 0.871768 1 1 1
          1 1 1 1 1 1 1 1 1 1 1 1
          1 1 1 1 0.999145 0.999981 1 1 1 1 1 1
          1 1 1 1 1 1 1 1 1 1 1 1
          1 1 1 1 1 1 1 1 1 1 1 1
          1 1 1 1 1 1 1 1 1 1 1 1
          1 1 1 1 1 1 0.5 0.5 0.66284 1 1 1
          1 1 1 1 1 1 0.702471 0.969498 0.774433 1 1 1
          1 1 1 1 1 1 1 1 1 1 1 1
          1 1 1 1 1 1 0.999981 1 1 1 1 0.5
          1 1 1 1 1 1 1 1 1 1 1 1
          1 1 1 0.774433 0.5 0.702471 1 1 1 1 1 0.999999
          1 1 1 1 1 1 1 1 1 1 1 1
          1 1 1 1 1 1 1 1 1 1 1 1
          1 1 1 1 1 1 1 1 1 1 1 1
          1 1 1 1 1 1 1 1 0.999987 1 1 1
          1 1 1 1 1 1 1 1 1 1 1 1
          1 1 1 1 1 1 1 1 1 1 1 1
          0.662844 1 0.5 1 1 1 1 1 0.994191 1 1 1
          1 1 1 1 1 1 0.999996 1 0.998604 1 1 1
          1 1 1 1 1 1 1 1 1 1 1 1
          1 1 1 1 1 1 1 1 1 1 1 1
          1 1 1 1 1 1 1 1 1 1 1 1
          1 1 1 1 1 1 1 1 1 1 1 1
          1 1 1 1 1 1 1 1 1 1 1 1
          1 1 1 1 1 1 1 1 1 0.999981 0.961965 0.999981
          1 1 1 1 1 1 1 1 1 1 1 1
          1 1 1 1 1 1 0.977634 0.744142 0.765709 1 1 1
          1 1 1 1 1 1 1 1 1 1 1 1
          1 1 1 1 1 1 0.999981 1 0.999981 1 1 1
          1 1 1 1 1 1 1 1 1 1 1 1
          1 1 1 1 1 1 1 1 1 1 1 1
          1 1 1 1 1 1 1 1 1 1 1 1
          1 1 1 1 1 1 1 1 1 1 1 1
          1 1 1 1 1 1 1 1 1 1 1 1
          1 1 1 1 1 1 1 1 1 1 1 1
          1 1 1 0.994191 0.999997 1 1 1 1 0.999942 0.999901 0.92589
          1 1 1 1 1 1 1 1 1 1 1 1
          1 1 1 1 1 1 1 1 1 1 1 1
          1 1 1 1 1 1 1 1 1 1 1 1
          1 1 1 1 1 1 1 1 1 1 1 1
          1 1 1 0.619484 0.5 0.66284 0.999977 1 1 1 1 1
          1 1 1 1 1 1 1 1 1 1 1 1
          1 1 1 1 1 1 1 1 1 1 1 1
          1 1 0.662844 1 1 1 0.99872 0.915239 0.811985 1 1 1
          1 1 1 1 1 1 1 1 1 1 1 1
          1 1 1 0.866538 1 0.662844 1 1 1 1 0.999996 0.999977
          1 1 1 1 0.999901 0.999942 1 1 1 1 1 1
          1 1 1 1 1 1 1 1 1 1 1 1
          1 1 1 1 1 1 1 1 1 1 1 1
          1 1 1 1 1 1 1 1 1 1 1 1
          1 1 1 1 1 1 1 1 1 1 1 1
          1 1 1 1 1 1 1 1 1 1 1 1
          1 1 1 1 1 1 0.974058 0.999996 0.998604 1 1 1
          1 1 1 1 1 1 0.977634 0.932219 0.999925 1 1 1
          1 1 1 1 1 1 0.961783 0.712752 0.801289 1 0.999901 1
          1 1 1 1 1 1 1 1 1 1 1 1
          1 1 1 1 1 1 1 1 1 1 1 1
          1 1 1 1 1 1 1 1 1 1 1 1
          1 1 1 1 1 1 1 1 1 1 1 1
          1 1 1 1 1 1 1 1 1 1 1 1
          1 1 1 1 1 1 1 1 1 1 1 1
          1 1 1 1 1 1 1 1 1 0.994291 0.99993 1
          1 1 1 1 1 1 1 1 1 1 1 1
          1 1 1 1 1 1 1 1 1 0.999925 0.999996 0.977634
          1 1 1 1 1 1 1 1 1 1 1 1
          1 1 1 1 1 1 1 1 1 1 1 1
          1 1 1 1 1 1 1 1 1 1 1 1
          1 1 1 1 1 1 1 1 1 1 1 1
          1 1 1 1 1 1 1 1 1 1 1 1
          1 1 1 0.969128 0.800655 0.995927 1 1 1 1 1 1
          1 1 1 1 1 1 1 1 1 0.752651 0.969498 0.702471
          1 1 1 1 1 1 1 1 1 0.999997 0.969498 0.990568
          1 1 1 0.5 0.5 0.752651 1 1 1 1 1 1
          1 1 1 1 1 1 1 1 1 1 1 1
          1 1 1 1 1 1 1 1 1 1 1 1
          1 1 1 1 1 1 1 1 1 1 1 1
          1 1 1 1 1 1 1 1 1 1 1 1
          1 1 1 1 1 1 1 1 1 1 1 1
          1 1 1 1 1 1 0.66284 0.932219 0.765709 1 1 1
          1 1 1 1 1 1 1 1 1 1 1 1
          0.743127 0.5 0.671604 1 0.999997 0.999997 1 1 1 1 1 1
          1 1 1 1 1 1 1 1 1 1 1 1
          1 1 1 1 1 1 1 1 1 1 1 1
          1 1 1 1 1 1 1 1 1 1 1 1
          1 1 1 1 1 1 1 1 1 1 1 1
          1 1 1 1 1 1 1 1 0.999925 0.679725 0.969413 0.948014
          1 1 1 1 1 1 1 1 1 1 1 1
          1 1 1 1 1 1 1 1 1 1 1 1
          1 1 1 1 1 1 1 1 1 1 1 1
          1 1 1 1 1 1 1 1 1 1 1 1
          1 1 1 1 1 1 1 1 1 1 1 1
          1 1 1 0.774433 0.969498 0.984138 1 1 1 0.712752 0.961965 0.763481
          1 1 1 1 1 1 1 1 1 1 1 1
          1 1 1 1 1 1 1 1 1 1 1 1
          1 1 1 1 1 1 1 1 1 1 1 1
          1 1 1 1 1 1 0.984138 0.969498 0.999997 1 1 1
          1 1 1 1 1 1 1 1 1 1 1 1
          1 1 1 1 1 1 0.961783 1 0.999981 1 1 1
          1 1 1 1 1 1 1 1 1 1 1 1
          1 1 1 1 1 1 1 1 1 1 1 1
          1 1 1 0.871768 0.932219 0.66284 1 1 1 1 1 1
          1 1 1 1 1 1 1 1 1 0.999997 1 1
          1 1 1 1 1 1 1 1 1 1 1 1
          1 1 1 0.715597 0.5 0.800655 1 1 1 1 1 1
          1 1 1 1 1 1 1 1 1 1 1 1
          1 1 1 1 1 1 1 1 1 1 1 1
          1 1 1 1 1 1 1 1 1 1 1 1
          1 1 0.999999 1 1 1 1 1 1 1 1 1
          1 1 1 1 1 1 0.871768 0.66284 0.656924 1 1 1
          1 1 1 1 1 1 0.999999 1 1 1 1 1
          0.5 0.5 0.671604 1 1 0.998854 1 1 1 1 1 1
          1 1 1 0.997031 0.999086 0.871768 1 1 1 1 1 1
          1 1 1 1 1 1 1 1 1 1 1 1
          0.800655 0.5 0.720381 1 1 1 1 1 1 1 1 1
          1 1 1 1 1 1 1 1 1 1 1 1
          1 1 1 0.999981 1 1 0.66284 0.5 0.656924 1 1 1
          1 1 1 1 1 1 1 1 1 1 1 1
          1 1 1 1 1 1 1 1 1 1 1 1
          1 1 1 0.984138 0.999997 0.994191 1 1 1 1 1 1
          1 1 1 0.999086 1 1 0.986341 1 1 1 1 1
          1 1 1 1 1 1 0.984391 1 1 0.999997 1 1
          1 1 1 1 1 1 0.999981 0.961965 0.961783 1 1 1
          1 1 1 1 1 1 1 1 0.999942 1 1 1
          1 1 1 1 1 1 0.999999 1 1 1 1 1
          1 1 1 1 1 1 1 1 1 0.999942 0.999145 1
          1 1 1 0.662844 0.744142 0.866538 1 1 1 1 1 1
          1 1 1 1 1 1 1 1 1 1 1 1
          1 1 1 1 1 1 0.5 0.5 0.702471 0.678217 0.933946 0.752651
          1 1 1 1 1 1 1 1 1 1 1 1
          1 1 1 1 0.999521 0.994291 1 1 1 0.999925 0.999086 1
          1 1 1 1 1 1 1 1 1 1 1 1
          1 1 1 1 1 1 1 1 1 1 1 1
          1 1 1 1 1 1 1 0.999521 1 1 1 1
          1 1 1 1 1 1 0.999966 1 1 1 1 1
          1 1 1 1 1 1 1 1 1 1 1 1
          1 1 1 1 1 1 1 1 1 1 1 1
          1 1 1 0.62167 0.5 0.648067 1 1 1 1 1 1
          1 1 1 1 1 1 1 1 1 1 1 1
          1 1 1 1 1 1 1 1 1 0.999942 1 1
          1 1 1 1 1 1 1 1 1 1 1 1
          1 1 1 1 1 1 0.885116 0.5 0.681749 0.999996 0.975264 0.999999
          1 1 1 1 1 0.999999 1 1 1 1 1 1
          0.969413 0.999999 0.999983 1 1 1 1 1 1 0.662844 0.5 0.598637
          1 1 1 1 1 1 1 1 1 1 1 1
          1 1 1 1 1 1 1 1 1 1 1 1
          0.995927 0.999996 1 1 1 1 1 1 1 1 1 1
          1 1 1 1 1 1 1 1 1 1 1 1
          1 1 1 1 1 1 1 1 1 1 1 1
          1 1 1 1 1 1 1 1 1 0.5 0.5 0.667182
          0.969413 0.679725 0.984391 1 1 1 0.788407 0.885116 0.681749 1 1 1
          1 1 1 1 1 1 1 1 1 1 1 1
          1 1 1 1 1 1 1 1 1 1 1 1
          0.700136 0.948976 0.720381 1 1 1 1 1 1 0.948976 0.859314 0.999111
          1 1 1 1 1 1 1 1 1 1 1 1
          1 1 1 1 1 1 1 0.975264 1 1 1 1
          1 1 1 1 1 1 1 1 1 1 1 1
          1 1 1 1 1 1 1 1 1 0.871768 0.840754 0.997031
          1 1 1 0.5 0.5 0.598637 1 1 1 1 1 1
          0.997031 1 0.999086 1 1 1 1 1 1 1 1 1
          1 1 1 1 1 1 1 1 1 1 1 1
          1 1 1 1 1 1 1 1 1 1 1 1
          1 1 1 1 1 1 1 1 1 1 1 0.999981
          1 1 1 1 1 1 1 1 1 1 1 1
          1 1 1 1 1 1 0.999999 1 1 1 1 1
          1 1 1 1 1 1 1 1 1 1 1 1
          1 1 1 1 1 1 1 1 1 1 1 1
          1 1 1 1 1 1 1 1 1 1 1 1
          1 1 1 1 1 1 1 1 1 1 1 1
          1 1 1 1 1 1 1 1 1 0.5 0.5 0.656924
          1 1 0.999997 1 1 1 1 1 1 1 1 1
          1 1 1 1 1 1 1 1 1 1 1 1
          1 1 1 1 1 1 1 1 1 0.752651 0.5 0.678217
          1 1 1 1 1 1 1 1 0.999999 1 1 1
          1 1 1 1 1 1 1 1 1 1 1 1
          1 1 1 1 1 1 1 1 1 1 1 1
          1 1 1 0.999966 0.915239 0.99872 1 1 1 1 1 1
          1 1 1 1 1 1 1 1 0.986341 1 1 1
          0.957206 0.999145 0.866691 1 1 1 0.656924 0.840754 0.871768 1 1 1
          0.702471 0.5 0.752651 1 1 1 1 1 1 1 1 1
          1 1 1 1 1 1 1 1 1 1 1 1
          1 1 1 1 1 1 1 1 1 1 1 1
          1 1 1 1 1 1 1 1 1 1 1 1
          1 1 1 1 1 1 1 1 1 1 1 1
          1 1 1 0.619484 0.66284 0.765709 1 1 1 1 1 1
          1 1 1 1 1 1 1 1 1 1 1 1
          1 1 1 1 1 1 1 1 1 1 1 1
          1 1 1 1 1 1 1 1 1 0.999999 0.999901 1
          1 1 1 0.961783 1 1 0.866538 0.744142 0.974058 1 1 1
          1 1 1 1 1 1 1 1 1 1 1 1
          1 1 1 0.5 0.5 0.62167 1 1 1 0.986399 0.999145 0.999942
          1 1 1 1 1 1 1 1 1 1 1 1
          0.5 0.5 0.715597 1 1 1 1 1 1 1 1 1
          1 1 1 1 1 1 1 1 1 1 1 1
          1 1 1 1 1 1 1 1 1 1 1 1
          1 0.999521 1 1 1 1 1 1 1 1 1 1
          1 1 1 1 1 1 1 1 1 1 1 1
          1 1 1 1 1 1 1 1 1 1 1 1
          1 1 1 1 1 1 1 1 1 1 1 1
          1 1 1 1 1 1 1 1 1 1 1 1
          1 1 1 1 1 1 1 1 1 1 1 1
          1 1 1 1 1 1 1 1 1 1 1 1
          1 1 1 1 1 1 1 1 1 1 1 1
          1 1 1 1 1 1 1 1 1 1 1 1
          1 1 1 1 1 1 1 0.975264 1 1 1 1
          1 1 1 1 1 1 1 1 1 1 1 1
          1 1 1 1 1 1 1 1 1 1 1 1
          1 1 1 1 1 1 0.720381 0.5 0.700136 1 1 1
          1 1 1 1 1 1 1 1 1 1 1 1
          1 1 1 0.5 0.5 0.720381 1 1 1 1 1 1
          1 1 1 1 1 1 0.676228 0.5 0.743127 1 1 1
          1 1 1 1 1 1 1 1 1 0.656924 0.5 0.667182
          1 1 1 1 1 1 0.667182 0.840754 0.656924 1 1 1
          1 1 1 1 1 1 0.859314 0.99895 0.999111 0.979983 0.99993 0.937004
          1 1 1 1 1 1 1 1 1 1 1 1
          1 1 1 1 1 1 1 1 1 1 1 1
          0.700136 0.859314 0.948976 1 1 1 1 1 1 1 1 1
          1 1 1 0.99872 0.811985 0.948014 1 1 1 1 1 1
          1 1 1 0.990568 1 0.999997 1 1 1 0.5 0.5 0.619484
          1 1 1 0.5 0.5 0.594276 1 1 1 1 1 1
          1 1 1 1 1 1 1 1 1 1 1 1
          0.984391 0.679725 0.978375 1 1 1 1 1 1 1 0.99872 0.999983
          1 1 1 0.5 0.5 0.584184 1 1 1 1 1 1
          0.681749 0.5 0.5 1 1 1 1 1 1 1 1 1
          1 1 1 0.5 0.5 0.676228 1 1 1 1 1 1
          1 1 1 1 1 1 1 1 1 1 1 1
          1 1 1 1 1 1 1 1 1 1 1 1
          1 1 1 1 1 1 1 1 1 1 1 1
          0.5 0.5 0.700136 1 1 1 1 1 1 1 0.999996 1
          1 1 1 1 1 1 1 1 1 1 1 1
          1 1 1 1 1 1 1 1 1 1 1 1
          1 1 1 1 1 1 1 1 1 1 1 1
          1 1 0.999999 1 1 1 1 1 1 1 1 1
          1 1 1 1 1 1 1 1 1 1 1 1
          1 1 1 0.969413 0.999983 0.948014 1 1 1 1 1 1
          1 1 1 1 1 1 1 1 1 1 1 1
          0.765709 0.932219 0.977634 1 1 1 1 1 1 1 1 1
          1 1 1 1 1 1 1 1 1 1 1 1
          1 1 1 1 1 1 0.866691 0.999145 0.986399 1 1 1
          1 0.975264 0.999999 1 1 1 1 1 1 1 1 1
          1 1 1 0.957206 0.702665 0.763481 1 1 1 1 1 1
          1 1 1 1 1 1 1 1 1 1 1 1
          1 1 1 0.957206 0.961965 0.999981 1 1 1 1 1 1
          1 1 1 1 1 1 1 1 1 1 1 1
          1 0.999996 0.999925 1 1 1 1 1 1 1 1 1
          1 1 1 1 1 1 1 1 1 1 1 1
          1 1 1 1 1 1 1 1 1 1 1 1
          1 1 1 1 1 1 1 1 1 1 1 1
          1 1 1 1 1 1 1 1 1 1 1 1
          0.92589 0.743127 0.671604 1 1 1 1 1 1 1 1 1
          1 1 1 1 1 1 1 1 1 1 1 1
          1 1 1 1 1 1 1 1 1 1 1 1
          1 1 1 1 1 1 1 1 1 1 1 1
          0.92589 0.769089 0.986399 1 1 1 1 1 1 1 1 1
          0.5 1 0.669319 1 1 1 0.999966 0.986341 0.915239 1 1 1
          1 1 1 1 1 1 0.999987 0.986341 1 0.994191 0.774433 0.984138
          1 1 1 1 1 1 1 1 1 1 1 1
          1 1 1 1 1 1 1 1 1 1 1 0.984391
          1 1 1 1 1 1 1 1 1 1 1 1
          0.681749 0.5 0.788407 1 1 1 1 1 1 1 1 1
          1 1 1 1 1 1 1 1 1 1 1 1
          1 1 1 1 1 1 1 1 1 0.700136 0.5 0.859314
          1 1 1 1 1 1 1 1 1 1 1 1
          1 1 1 0.669319 1 1 1 1 1 1 1 1
          1 1 1 1 1 1 1 1 1 0.979983 0.743127 0.92589
          1 1 1 1 1 1 0.999999 1 1 1 1 1
          1 1 1 1 1 1 1 1 1 1 1 1
          1 1 1 1 1 1 1 1 1 1 1 1
          1 1 1 1 1 1 1 1 1 1 1 1
          1 1 1 1 1 1 0.763481 0.961965 0.957206 1 1 1
          1 0.975264 1 1 1 1 1 1 1 0.999999 0.99993 0.979983
          1 1 1 1 1 1 1 1 1 1 1 1
          1 1 1 1 1 1 1 1 1 1 1 1
          1 1 1 1 1 1 1 1 1 1 1 1
          1 1 1 1 1 1 1 1 1 1 1 1
          1 1 1 1 1 1 1 1 1 0.999999 1 1
          1 1 1 1 1 1 1 1 1 1 1 1
          1 1 1 1 1 1 1 1 1 1 1 1
          1 0.999996 1 0.997031 0.840754 0.894305 1 1 1 1 1 1
          1 1 1 1 1 1 0.801289 1 0.961783 1 1 1
          1 1 1 1 1 1 1 1 1 1 1 1
          1 1 1 1 1 1 1 1 1 1 1 1
          1 1 1 1 1 1 1 1 1 1 1 1
          1 1 1 1 1 1 1 1 1 0.788407 0.5 0.676228
          1 1 1 1 1 1 1 0.986341 0.999966 1 1 1
          1 1 1 1 1 1 0.977634 0.999996 0.974058 1 1 1
          0.5 0.5 0.678217 1 1 1 1 1 1 1 1 1
          1 1 1 0.998854 1 0.978375 1 1 1 1 1 1
          0.99895 1 1 1 1 1 1 1 1 1 1 1
          1 1 1 0.99872 1 0.999966 1 1 1 1 1 1
          1 1 1 0.994191 1 0.997031 1 1 1 1 1 1
          0.937004 0.743127 0.979983 1 1 1 1 1 1 1 1 1
          1 1 1 1 1 1 1 1 1 0.999983 0.99872 0.948014
          1 1 1 1 1 1 1 1 1 0.999981 0.999145 0.957206
          1 1 1 1 1 1 1 1 1 1 1 1
          1 1 1 1 1 1 1 1 1 1 1 1
          1 1 0.866538 1 1 1 1 1 1 1 1 1
          1 1 1 1 1 1 1 1 1 0.811985 0.915239 0.998854
          1 1 1 1 1 1 1 1 1 1 1 1
          1 1 1 1 1 1 1 1 1 1 1 1
          1 1 1 1 1 1 1 1 1 1 1 1
          1 1 1 1 1 1 1 1 1 1 1 1
          1 1 1 1 1 1 1 1 1 1 1 1
          1 1 1 1 1 1 1 1 1 1 1 1
          1 1 1 1 1 1 1 1 1 1 1 1
          1 1 1 1 1 1 1 1 1 1 1 1
          1 1 1 1 1 1 1 1 1 1 1 1
          1 1 1 1 1 1 1 1 1 1 1 1
          1 1 1 1 1 1 1 1 1 1 1 1
          1 1 1 1 1 1 1 1 1 1 1 1
          1 1 1 1 1 1 1 1 1 1 1 1
          1 1 1 1 1 1 1 1 1 1 1 1
          1 1 1 1 1 1 1 1 1 1 1 1
          1 1 1 1 1 1 1 1 1 1 1 1
          1 1 1 0.999999 1 1 1 1 1 1 1 1
          1 1 1 1 1 1 1 1 1 0.969128 0.933946 0.715597
          1 1 1 1 1 1 0.999999 1 0.999996 1 1 1
          1 1 1 1 1 1 1 1 1 1 1 1
          1 1 1 0.915239 0.986341 0.999987 1 1 1 1 1 1
          1 1 1 1 1 1 0.894305 0.994191 0.997031 1 1 1
          0.671604 0.769089 0.92589 1 1 1 1 1 1 1 1 1
          1 1 1 1 1 1 1 1 1 1 1 1
          0.999999 0.975264 0.999996 1 1 1 1 1 1 0.972537 0.948976 0.999977
          1 1 1 1 1 1 1 1 1 1 1 1
          1 1 1 1 1 1 0.720381 0.948976 0.972537 1 1 1
          1 1 1 1 1 1 1 1 1 1 1 1
          1 1 1 1 1 1 1 1 1 1 1 1
          1 1 1 1 1 1 1 1 1 0.999925 1 1
          1 1 1 1 1 1 1 1 1 1 1 1
          1 1 1 0.715597 0.933946 0.678217 1 1 1 0.978375 0.679725 0.811985
          1 1 1 1 1 1 1 1 1 1 1 1
          1 1 1 1 1 1 1 1 1 1 1 1
          1 1 1 1 1 1 1 1 1 1 1 1
          1 1 1 1 1 1 1 1 1 0.978375 1 0.984391
          1 1 1 1 1 1 1 1 1 1 1 1
          1 1 1 1 1 1 1 1 1 1 1 1
          1 1 1 1 1 1 1 1 1 1 1 1
          1 1 1 1 1 1 1 1 1 1 1 1
          1 1 1 1 1 1 1 1 1 1 1 1
          1 1 1 1 1 1 1 1 1 1 1 1
          1 1 1 1 1 1 1 1 1 1 1 1
          1 1 1 1 1 1 1 1 1 1 1 1
          1 1 1 1 1 1 1 1 1 1 1 1
          1 1 1 1 1 1 1 1 1 1 1 1
          1 1 1 1 1 1 1 1 1 1 1 1
          1 1 1 1 1 1 1 1 1 1 1 1
          1 1 1 0.801289 1 1 0.894305 0.774433 0.994191 1 1 1
          1 1 1 1 1 1 1 1 1 1 1 1
          1 1 1 1 1 1 1 1 1 1 1 1
          1 1 1 0.62167 0.769089 0.671604 1 1 1 1 1 1
          1 1 1 1 1 1 1 1 1 1 1 1
          1 1 1 1 1 1 1 1 1 1 1 1
          1 1 1 1 1 1 1 1 1 1 1 1
          0.765709 0.744142 0.619484 1 1 1 1 1 1 0.990568 0.933946 0.999943
          1 1 1 0.984391 1 0.999997 1 1 1 1 1 1
          1 1 1 1 1 1 1 1 1 1 1 1
          1 1 1 1 1 1 1 1 1 0.998604 1 0.866538
          0.999983 1 1 1 1 1 1 1 1 1 1 1
          1 1 1 1 1 1 1 1 1 1 1 1
          0.998854 0.915239 0.999987 1 1 1 1 1 1 1 1 1
          1 1 1 1 1 1 1 1 1 1 1 1
          1 1 1 1 1 1 1 1 1 1 0.999996 1
          1 1 1 1 1 1 1 1 0.999943 1 1 1
          1 1 1 1 1 1 1 1 1 1 1 1
          1 1 1 1 1 1 1 1 1 1 1 1
          0.894305 0.840754 0.667182 1 1 1 1 1 1 1 1 1
          1 1 1 1 1 1 1 1 1 1 1 1
          1 1 1 1 1 1 1 1 1 1 1 1
          1 1 1 1 1 1 1 1 1 1 1 1
          1 1 1 1 1 0.998604 0.598637 0.744142 0.662844 0.92589 0.999901 0.979983
          1 1 1 0.978375 0.811985 0.998854 1 1 1 1 1 1
          1 1 1 1 1 1 1 1 1 1 1 1
          1 1 1 1 1 1 1 1 1 1 1 1
          1 1 1 1 1 1 0.622531 0.5 0.584184 1 1 1
          1 1 1 1 1 1 0.648067 0.702665 0.866691 1 1 1
          1 1 1 1 1 1 0.999943 0.995927 1 1 1 1
          1 1 1 1 1 0.998604 1 0.99993 1 1 1 1
          1 1 1 1 1 1 1 1 1 1 1 1
          1 1 1 1 1 1 1 1 1 1 1 1
          1 1 1 1 1 1 0.999111 0.99895 1 1 1 1
          1 1 1 0.619484 0.744142 0.598637 0.972537 0.800655 0.720381 1 1 1
          1 0.994291 1 1 1 1 1 1 1 1 1 1
          1 1 1 0.999997 1 0.999999 0.999943 1 0.990568 1 1 1
          1 1 1 1 1 1 1 1 1 1 1 1
          0.999997 1 1 1 1 1 0.811985 0.679725 0.948014 1 1 1
          1 1 1 1 1 1 1 1 1 1 1 1
          1 1 1 1 1 1 1 1 1 1 1 1
          1 1 1 0.999977 0.999996 0.972537 1 1 1 1 1 1
          1 1 1 1 1 1 1 1 1 1 1 1
          1 1 1 1 1 1 0.598637 0.5 0.619484 0.671604 0.5 0.62167
          1 1 1 1 1 1 1 1 1 1 1 0.999111
          1 1 1 1 1 1 0.763481 0.702665 0.622531 1 1 0.999999
          1 1 1 1 1 1 1 1 1 0.866538 0.974058 0.998604
          1 1 1 0.979983 0.999901 0.999999 1 1 1 1 1 1
          1 1 1 0.866691 0.702665 0.957206 1 1 1 1 1 1
          1 1 1 1 1 1 1 1 1 1 1 1
          1 1 1 1 1 1 1 1 1 1 1 1
          1 1 1 1 1 1 1 1 1 1 1 1
          1 1 1 1 1 1 1 1 1 1 1 1
          1 1 1 1 1 1 1 1 1 1 1 1
          1 1 1 1 1 1 1 1 1 1 1 1
          0.937004 0.788407 0.676228 1 1 1 1 1 1 1 1 1
          1 1 1 1 1 1 1 1 1 1 1 1
          1 1 1 1 1 1 1 1 1 1 1 1
          1 1 1 0.866691 0.769089 0.648067 1 1 1 0.669319 1 0.801289
          1 1 1 1 1 1 1 1 0.99872 1 1 1
          1 0.999999 1 1 1 1 1 1 1 1 1 1
          0.622531 0.712752 0.763481 1 1 1 1 1 1 0.584184 0.712752 0.622531
          1 1 1 1 1 1 1 1 1 1 1 1
          1 1 1 1 1 1 1 1 1 1 0.995927 1
          1 1 1 0.676228 0.743127 0.937004 1 1 1 1 1 1
          1 1 1 1 1 1 1 1 1 1 1 1
          0.594276 0.702665 0.648067 1 1 1 1 1 1 1 0.99993 0.999999
          1 1 1 1 1 1 0.715597 0.800655 0.969128 1 1 1
          1 1 1 1 1 1 1 1 1 1 1 1
          1 1 1 1 1 1 1 1 1 1 1 1
          0.999987 1 0.998854 1 1 1 1 1 1 1 1 1
          1 1 1 1 1 1 1 1 1 1 1 1
          1 1 1 1 1 1 1 1 1 1 1 1
          0.999997 0.999999 0.969413 1 1 1 1 1 1 1 1 1
          1 1 1 1 1 1 1 1 1 0.667182 0.774433 0.894305
          1 1 1 1 1 1 1 1 0.999997 1 1 1
          1 1 1 1 1 1 0.801289 0.712752 0.669319 1 1 1
          1 1 1 1 1 1 1 1 1 0.999111 1 0.999977
          0.594276 0.5 0.622531 1 1 1 1 1 1 1 1 1
          1 1 1 1 1 1 1 1 1 1 1 1
          0.984391 0.999997 0.969413 1 1 1 1 1 1 1 1 1
          1 1 1 1 1 1 1 1 1 1 1 1
          1 1 1 1 1 1 1 1 1 1 0.999997 1
          0.622531 0.702665 0.594276 1 1 1 1 1 1 1 1 1
          1 1 1 1 1 1 1 1 1 1 1 1
          1 1 1 0.678217 0.5 0.715597 0.999943 0.933946 0.969128 0.648067 0.5 0.594276
          0.986399 0.769089 0.866691 1 1 1 1 1 1 1 1 1
          0.999996 1 0.999999 1 1 1 1 1 1 1 1 1
          0.969128 0.995927 0.999943 1 1 1 1 1 1 0.999977 0.948976 0.999111
          1 1 1 1 1 1 1 1 1 1 1 1
          1 1 1 1 1 1 1 1 1 1 1 1
          1 1 1 1 1 1 1 1 1 1 1 1
          1 1 1 1 1 1 1 1 1 1 1 1
          1 1 1 1 1 1 1 1 1 1 1 1
          0.584184 0.5 0.669319 0.648067 0.769089 0.62167 0.669319 0.712752 0.584184 1 1 1
          1 1 1 1 1 1 1 1 1 0.999999 1 0.999983
        </DataArray>
        <DataArray type="Float32" Name="p_aq" NumberOfComponents="1" format="ascii">
          163528 166076 163632 116757 124346 119648 186877 181169 181073 148130 150237 148578
          150237 150751 148578 166076 167147 163632 116757 123705 124346 161935 160197 164883
          160197 160237 164883 143236 142719 141401 107223 111962 112727 133840 130906 133479
          138961 140840 139306 162556 157867 157900 128159 129128 129998 162228 164908 162285
          104655 110074 109672 151486 149515 150981 149515 148766 150981 135485 136811 134273
          145749 144011 146034 169347 171941 169491 183756 182130 180287 146034 147592 145749
          139189 138208 140201 178247 180771 194838 166422 163632 169491 153568 151486 150981
          146034 144762 147491 136063 135209 133300 164128 165534 163020 148554 150131 147491
          166076 163377 166371 183756 180287 181581 135533 133818 133021 150981 153108 153568
          158715 160973 161502 124346 129843 130343 133300 135209 133043 152452 150751 152457
          140629 139723 142509 115292 121091 120040 152452 152457 154098 143143 145245 146282
          152931 154243 155261 121302 122153 124845 144761 143236 142228 141714 139499 139066
          162277 164128 163020 143049 140959 141287 150695 152033 149840 150196 150131 148554
          142469 141016 140274 148766 149497 150981 181073 187311 192050 157898 156584 158825
          139189 141471 139421 141287 140959 139390 137224 138208 139189 181851 186515 182173
          142469 142779 141016 147276 149497 148766 158983 158431 159936 161649 163632 166422
          129128 131092 129998 162285 160152 162228 174294 170186 170778 158983 156950 158431
          192050 186877 181073 177370 180771 174352 136164 134230 135782 156394 157784 155110
          158985 157784 156394 164999 168431 164908 157403 158715 159686 136811 135988 134273
          155644 155114 149701 166814 170186 168325 143236 144743 142719 162556 162320 157867
          141123 141471 139189 156394 158029 158985 115292 113457 107885 127144 123485 128447
          145984 144893 148650 158483 156471 156498 170429 172912 172769 133840 131858 130906
          160263 162772 160979 122127 124997 125497 143143 142899 145245 140840 141401 139306
          194838 183225 178247 138208 140452 140201 152876 156236 155057 155110 154098 156394
          175002 177389 177617 137792 139353 140174 162010 161800 164108 159686 158715 161502
          130906 127042 129130 154199 152876 150910 106997 109389 105640 169347 169491 167147
          161649 162556 157900 136342 139353 137792 136063 137950 138208 150910 151626 154199
          147096 145568 147276 147276 148766 147096 128447 123485 123689 179957 174299 175901
          152033 154243 152931 168328 170186 166814 171669 168496 168694 143295 144878 147313
          155644 149701 151655 145875 143236 144761 172879 170186 174294 160065 162228 160152
          154756 151359 152931 173317 176156 176366 165632 168496 166988 155110 153108 152452
          160957 160973 158483 155207 154098 152457 196434 200000 191324 165179 164071 167233
          130474 133021 131658 131092 131865 129998 143295 140629 142509 125568 124808 121870
          175901 188288 179957 163701 162010 164108 138208 137950 140452 158159 160439 158851
          169491 171941 173317 139935 137762 137335 122175 125687 121870 185944 182150 186853
          151626 154690 154199 135468 137008 134894 177611 187311 181073 123965 124595 126207
          152452 154098 155110 162228 164999 164908 188922 187660 194326 168431 167233 164908
          142469 144762 142779 143143 146282 145497 163098 163244 160957 130662 133153 131390
          136063 135914 137950 160283 160152 162285 186499 193264 185417 129532 127042 130906
          142902 144877 144472 147276 145568 144561 174294 176445 172879 124845 124504 121302
          135404 137210 136505 143369 145509 144821 182173 186515 188080 160979 163098 160957
          134078 134335 131803 146983 147317 145042 144561 146421 147276 161712 167104 162314
          135533 137265 137975 181581 184087 183756 158173 160065 160152 177617 177389 179479
          134515 134230 136164 155207 158029 156394 131500 131535 129130 139551 140959 142228
          138849 138632 141424 146034 147491 148379 134166 133300 131620 166726 165613 164677
          137899 139922 138165 147665 149840 148896 160979 162940 163098 160957 163244 160973
          147565 149979 150625 170778 170429 172769 200000 200000 196724 158483 160973 158715
          129925 128604 127430 128670 131521 130950 197088 180771 191324 137975 137210 135533
          156394 154098 155207 160979 162772 162940 147313 145056 143295 157403 158041 154756
          169503 166768 166988 137950 135914 136820 185108 187158 184270 195549 200000 200000
          139922 140328 138165 148650 144893 145120 141965 144011 143840 142904 142173 145120
          130662 132782 133153 191324 200000 197088 169806 167351 167233 107410 111915 106543
          156471 158715 157403 131620 128941 130253 107885 113457 106997 145120 142173 142476
          137612 136020 138165 148650 148860 145984 124808 120014 121870 119438 117696 116361
          135750 139353 136342 144472 142366 142902 168357 166768 169503 157035 157784 159195
          122375 120128 117110 149790 146746 147640 122037 119438 120169 144561 145568 143183
          143358 141229 141016 132157 133021 130474 140840 139551 142228 180137 181711 179275
          148949 147317 146983 114001 109400 115104 138331 138760 140400 124595 126573 126207
          195299 195549 200000 142138 141243 139978 176366 179289 181906 178236 176151 174737
          167378 161935 164883 158483 158715 156471 183204 183083 185650 170331 164558 169423
          122037 122153 119438 166371 163377 165016 117696 114873 114173 112947 106997 113457
          134749 137032 136820 127430 126573 125094 159195 157784 159871 157464 160065 158173
          164633 162772 163992 100000 100000 107885 155746 156584 157898 114873 109672 110074
          143183 142037 144561 129130 127042 124613 137950 136820 139028 137800 137008 135468
          166672 168496 165632 167233 168431 170869 163528 163377 166076 150625 148114 147565
          142600 140631 137727 168431 172616 170869 109400 112543 115104 183756 187660 185108
          170869 173403 169806 133153 134894 135389 115292 115719 121091 132782 134894 133153
          117696 118990 114873 124337 125443 123143 185417 193264 192756 164677 165613 163992
          135533 133021 134131 131620 132837 134166 147491 144762 146176 153510 155207 152457
          135404 136505 135239 126454 128097 124154 185108 182130 183756 129651 127439 130474
          138632 136500 138293 152967 151359 154756 127430 128604 126573 128604 129925 130662
          168694 171219 171669 176156 179289 176366 126207 127439 124477 126894 129178 127430
          141959 144011 141965 152994 152033 150695 161712 155114 155644 129178 129925 127430
          127036 127439 129651 140057 137558 138404 135404 133818 135533 123705 129843 124346
          107223 106204 111962 142719 144743 144396 133411 134836 131850 133818 134078 131351
          121885 115719 119575 144821 145509 146775 170778 169980 168463 119549 122375 117110
          124154 128097 124756 181906 177370 176366 139499 139922 137899 182150 182220 186853
          138629 139066 136811 129651 129278 127036 143971 141229 143358 139978 137558 140057
          118990 119575 114873 107885 100000 110319 166988 168496 169503 130253 132837 131620
          141123 139189 140201 140840 143236 141401 169503 170228 168357 146775 147665 148896
          129130 129421 131500 135782 137538 136164 150695 150131 152073 143049 143013 145042
          131351 134078 131803 198043 200000 196724 174895 170331 169423 172035 170228 169503
          167233 167351 165179 130950 129168 128670 112947 109389 106997 156498 156471 154868
          145120 144893 142904 131803 134335 132908 149135 150131 150695 124477 127439 124845
          190773 195549 195299 168217 167066 165613 116965 119815 118275 144472 144561 142844
          162406 162211 164544 165613 167066 164633 160768 162772 160263 139978 141243 139122
          147491 150131 148379 189571 190773 195299 150695 149840 148881 169423 174299 174895
          169491 163632 167147 179158 182220 182150 175487 176900 174567 139978 141965 142138
          145763 149699 148393 157900 153650 155806 152334 152876 155057 169335 172688 167578
          144396 142215 142719 156498 154129 155903 149701 145056 147313 123143 121804 124337
          176366 172884 173317 144472 146421 144561 120040 121091 123298 157568 155545 152640
          164677 166768 166726 136828 138760 138331 169980 172261 171351 180137 179275 177882
          124477 122153 122037 154868 154129 156498 170778 173403 174294 119575 115719 114873
          158159 160283 160439 126692 126360 122990 186499 183204 185650 170734 172912 170429
          157259 153256 156704 135348 135722 133254 185417 186515 181851 149515 150196 148554
          175931 172672 174531 170778 170186 168328 188922 194326 193886 178236 182220 179158