<?xml version="1.0"?>
<VTKFile type="UnstructuredGrid" version="0.1" byte_order="LittleEndian">
  <UnstructuredGrid>
    <Piece NumberOfCells="400" NumberOfPoints="441">
      <CellData Scalars="p">
        <DataArray type="Float32" Name="p" NumberOfComponents="1" format="ascii">
          100000 100000 100000 100000 100000 100000 100000 100000 100000 100000 100000 100000
          100000 100000 100000 100000 100000 100000 100000 100000 100000 100000 100000 100000
          100000 100000 100000 100000 100000 100000 100000 100000 100000 100000 100000 100000
          100000 100000 100000 100000 100000 100000 100000 100000 100000 100000 100000 100000
          100000 100000 100000 100000 100000 100000 100000 100000 100000 100000 100000 100000
          100000 100000 100000 100000 100000 100000 100000 100000 100000 100000 100000 100000
          100000 100000 100000 100000 100000 100000 100000 100000 100000 100000 100000 100000
          100000 100000 100000 100000 100000 100000 100000 100000 100000 100000 100000 100000
          100000 100000 100000 100000 100000 100000 100000 100000 100000 100000 100000 100000
          100000 100000 100000 100000 100000 100000 100000 100000 100000 100000 100000 100000
          100000 100000 100000 100000 100000 100000 100000 100000 100000 100000 100000 100000
          100000 100000 100000 100000 100000 100000 100000 100000 100000 100000 100000 100000
          100000 100000 100000 100000 100000 100000 100000 100000 100000 100000 100000 100000
          100000 100000 100000 100000 100000 100000 100000 100000 100000 100000 100000 100000
          100000 100000 100000 100000 100000 100000 100000 100000 100000 100000 100000 100000
          100000 100000 100000 100000 100000 100000 100000 100000 100000 100000 100000 100000
          100000 100000 100000 100000 100000 100000 100000 100000 100000 100000 100000 100000
          100000 100000 100000 100000 100000 100000 100000 100000 100000 100000 100000 100000
          100000 100000 100000 100000 100000 100000 100000 100000 100000 100000 100000 100000
          100000 100000 100000 100000 100000 100000 100000 100000 100000 100000 100000 100000
          100000 100000 100000 100000 100000 100000 100000 100000 100000 100000 100000 100000
          100000 100000 100000 100000 100000 100000 100000 100000 100000 100000 100000 100000
          100000 100000 100000 100000 100000 100000 100000 100000 100000 100000 100000 100000
          100000 100000 100000 100000 100000 100000 100000 100000 100000 100000 100000 100000
          100000 100000 100000 100000 100000 100000 100000 100000 100000 100000 100000 100000
          100000 100000 100000 100000 100000 100000 100000 100000 100000 100000 100000 100000
          100000 100000 100000 100000 100000 100000 100000 100000 100000 100000 100000 100000
          100000 100000 100000 100000 100000 100000 100000 100000 100000 100000 100000 100000
          100000 100000 100000 100000 100000 100000 100000 100000 100000 100000 100000 100000
          100000 100000 100000 100000 100000 100000 100000 100000 100000 100000 100000 100000
          100000 100000 100000 100000 100000 100000 100000 100000 100000 100000 100000 100000
          100000 100000 100000 100000 100000 100000 100000 100000 100000 100000 100000 100000
          100000 100000 100000 100000 100000 100000 100000 100000 100000 100000 100000 100000
          100000 100000 100000 100000
        </DataArray>
        <DataArray type="Float32" Name="rho" NumberOfComponents="1" format="ascii">
          1 1 1 1 1 1 1 1 1 1 1 1
          1 1 1 1 1 1 1 1 1 1 1 1
          1 1 1 1 1 1 1 1 1 1 1 1
          1 1 1 1 1 1 1 1 1 1 1 1
          1 1 1 1 1 1 1 1 1 1 1 1
          1 1 1 1 1 1 1 1 1 1 1 1
          1 1 1 1 1 1 1 1 1 1 1 1
          1 1 1 1 1 1 1 1 1 1 1 1
          1 1 1 1 1 1 1 1 1 1 1 1
          1 1 1 1 1 1 1 1 1 1 1 1
          1 1 1 1 1 1 1 1 1 1 1 1
          1 1 1 1 1 1 1 1 1 1 1 1
          1 1 1 1 1 1 1 1 1 1 1 1
          1 1 1 1 1 1 1 1 1 1 1 1
          1 1 1 1 1 1 1 1 1 1 1 1
          1 1 1 1 1 1 1 1 1 1 1 1
          1 1 1 1 1 1 1 1 1 1 1 1
          1 1 1 1 1 1 1 1 1 1 1 1
          1 1 1 1 1 1 1 1 1 1 1 1
          1 1 1 1 1 1 1 1 1 1 1 1
          1 1 1 1 1 1 1 1 1 1 1 1
          1 1 1 1 1 1 1 1 1 1 1 1
          1 1 1 1 1 1 1 1 1 1 1 1
          1 1 1 1 1 1 1 1 1 1 1 1
          1 1 1 1 1 1 1 1 1 1 1 1
          1 1 1 1 1 1 1 1 1 1 1 1
          1 1 1 1 1 1 1 1 1 1 1 1
          1 1 1 1 1 1 1 1 1 1 1 1
          1 1 1 1 1 1 1 1 1 1 1 1
          1 1 1 1 1 1 1 1 1 1 1 1
          1 1 1 1 1 1 1 1 1 1 1 1
          1 1 1 1 1 1 1 1 1 1 1 1
          1 1 1 1 1 1 1 1 1 1 1 1
          1 1 1 1
        </DataArray>
        <DataArray type="Float32" Name="mu" NumberOfComponents="1" format="ascii">
          1e-06 1e-06 1e-06 1e-06 1e-06 1e-06 1e-06 1e-06 1e-06 1e-06 1e-06 1e-06
          1e-06 1e-06 1e-06 1e-06 1e-06 1e-06 1e-06 1e-06 1e-06 1e-06 1e-06 1e-06
          1e-06 1e-06 1e-06 1e-06 1e-06 1e-06 1e-06 1e-06 1e-06 1e-06 1e-06 1e-06
          1e-06 1e-06 1e-06 1e-06 1e-06 1e-06 1e-06 1e-06 1e-06 1e-06 1e-06 1e-06
          1e-06 1e-06 1e-06 1e-06 1e-06 1e-06 1e-06 1e-06 1e-06 1e-06 1e-06 1e-06
          1e-06 1e-06 1e-06 1e-06 1e-06 1e-06 1e-06 1e-06 1e-06 1e-06 1e-06 1e-06
          1e-06 1e-06 1e-06 1e-06 1e-06 1e-06 1e-06 1e-06 1e-06 1e-06 1e-06 1e-06
          1e-06 1e-06 1e-06 1e-06 1e-06 1e-06 1e-06 1e-06 1e-06 1e-06 1e-06 1e-06
          1e-06 1e-06 1e-06 1e-06 1e-06 1e-06 1e-06 1e-06 1e-06 1e-06 1e-06 1e-06
          1e-06 1e-06 1e-06 1e-06 1e-06 1e-06 1e-06 1e-06 1e-06 1e-06 1e-06 1e-06
          1e-06 1e-06 1e-06 1e-06 1e-06 1e-06 1e-06 1e-06 1e-06 1e-06 1e-06 1e-06
          1e-06 1e-06 1e-06 1e-06 1e-06 1e-06 1e-06 1e-06 1e-06 1e-06 1e-06 1e-06
          1e-06 1e-06 1e-06 1e-06 1e-06 1e-06 1e-06 1e-06 1e-06 1e-06 1e-06 1e-06
          1e-06 1e-06 1e-06 1e-06 1e-06 1e-06 1e-06 1e-06 1e-06 1e-06 1e-06 1e-06
          1e-06 1e-06 1e-06 1e-06 1e-06 1e-06 1e-06 1e-06 1e-06 1e-06 1e-06 1e-06
          1e-06 1e-06 1e-06 1e-06 1e-06 1e-06 1e-06 1e-06 1e-06 1e-06 1e-06 1e-06
          1e-06 1e-06 1e-06 1e-06 1e-06 1e-06 1e-06 1e-06 1e-06 1e-06 1e-06 1e-06
          1e-06 1e-06 1e-06 1e-06 1e-06 1e-06 1e-06 1e-06 1e-06 1e-06 1e-06 1e-06
          1e-06 1e-06 1e-06 1e-06 1e-06 1e-06 1e-06 1e-06 1e-06 1e-06 1e-06 1e-06
          1e-06 1e-06 1e-06 1e-06 1e-06 1e-06 1e-06 1e-06 1e-06 1e-06 1e-06 1e-06
          1e-06 1e-06 1e-06 1e-06 1e-06 1e-06 1e-06 1e-06 1e-06 1e-06 1e-06 1e-06
          1e-06 1e-06 1e-06 1e-06 1e-06 1e-06 1e-06 1e-06 1e-06 1e-06 1e-06 1e-06
          1e-06 1e-06 1e-06 1e-06 1e-06 1e-06 1e-06 1e-06 1e-06 1e-06 1e-06 1e-06
          1e-06 1e-06 1e-06 1e-06 1e-06 1e-06 1e-06 1e-06 1e-06 1e-06 1e-06 1e-06
          1e-06 1e-06 1e-06 1e-06 1e-06 1e-06 1e-06 1e-06 1e-06 1e-06 1e-06 1e-06
          1e-06 1e-06 1e-06 1e-06 1e-06 1e-06 1e-06 1e-06 1e-06 1e-06 1e-06 1e-06
          1e-06 1e-06 1e-06 1e-06 1e-06 1e-06 1e-06 1e-06 1e-06 1e-06 1e-06 1e-06
          1e-06 1e-06 1e-06 1e-06 1e-06 1e-06 1e-06 1e-06 1e-06 1e-06 1e-06 1e-06
          1e-06 1e-06 1e-06 1e-06 1e-06 1e-06 1e-06 1e-06 1e-06 1e-06 1e-06 1e-06
          1e-06 1e-06 1e-06 1e-06 1e-06 1e-06 1e-06 1e-06 1e-06 1e-06 1e-06 1e-06
          1e-06 1e-06 1e-06 1e-06 1e-06 1e-06 1e-06 1e-06 1e-06 1e-06 1e-06 1e-06
          1e-06 1e-06 1e-06 1e-06 1e-06 1e-06 1e-06 1e-06 1e-06 1e-06 1e-06 1e-06
          1e-06 1e-06 1e-06 1e-06 1e-06 1e-06 1e-06 1e-06 1e-06 1e-06 1e-06 1e-06
          1e-06 1e-06 1e-06 1e-06
        </DataArray>
        <DataArray type="Float32" Name="delp" NumberOfComponents="1" format="ascii">
          0 0 0 0 0 0 0 0 0 0 0 0
          0 0 0 0 0 0 0 0 0 0 0 0
          0 0 0 0 0 0 0 0 0 0 0 0
          0 0 0 0 0 0 0 0 0 0 0 0
          0 0 0 0 0 0 0 0 0 0 0 0
          0 0 0 0 0 0 0 0 0 0 0 0
          0 0 0 0 0 0 0 0 0 0 0 0
          0 0 0 0 0 0 0 0 0 0 0 0
          0 0 0 0 0 0 0 0 0 0 0 0
          0 0 0 0 0 0 0 0 0 0 0 0
          0 0 0 0 0 0 0 0 0 0 0 0
          0 0 0 0 0 0 0 0 0 0 0 0
          0 0 0 0 0 0 0 0 0 0 0 0
          0 0 0 0 0 0 0 0 0 0 0 0
          0 0 0 0 0 0 0 0 0 0 0 0
          0 0 0 0 0 0 0 0 0 0 0 0
          0 0 0 0 0 0 0 0 0 0 0 0
          0 0 0 0 0 0 0 0 0 0 0 0
          0 0 0 0 0 0 0 0 0 0 0 0
          0 0 0 0 0 0 0 0 0 0 0 0
          0 0 0 0 0 0 0 0 0 0 0 0
          0 0 0 0 0 0 0 0 0 0 0 0
          0 0 0 0 0 0 0 0 0 0 0 0
          0 0 0 0 0 0 0 0 0 0 0 0
          0 0 0 0 0 0 0 0 0 0 0 0
          0 0 0 0 0 0 0 0 0 0 0 0
          0 0 0 0 0 0 0 0 0 0 0 0
          0 0 0 0 0 0 0 0 0 0 0 0
          0 0 0 0 0 0 0 0 0 0 0 0
          0 0 0 0 0 0 0 0 0 0 0 0
          0 0 0 0 0 0 0 0 0 0 0 0
          0 0 0 0 0 0 0 0 1.45519e-11 1.45519e-11 0 0
          0 0 0 0 0 0 0 0 0 0 0 0
          0 0 0 0
        </DataArray>
        <DataArray type="Float32" Name="x^H2_Gas" NumberOfComponents="1" format="ascii">
          1 1 1 1 1 1 1 1 1 1 1 1
          1 1 1 1 1 1 1 1 1 1 1 1
          1 1 1 1 1 1 1 1 1 1 1 1
          1 1 1 1 1 1 1 1 1 1 1 1
          1 1 1 1 1 1 1 1 1 1 1 1
          1 1 1 1 1 1 1 1 1 1 1 1
          1 1 1 1 1 1 1 1 1 1 1 1
          1 1 1 1 1 1 1 1 1 1 1 1
          1 1 1 1 1 1 1 1 1 1 1 1
          1 1 1 1 1 1 1 1 1 1 1 1
          1 1 1 1 1 1 1 1 1 1 1 1
          1 1 1 1 1 1 1 1 1 1 1 1
          1 1 1 1 1 1 1 1 1 1 1 1
          1 1 1 1 1 1 1 1 1 1 1 1
          1 1 1 1 1 1 1 1 1 1 1 1
          1 1 1 1 1 1 1 1 1 1 1 1
          1 1 1 1 1 1 1 1 1 1 1 1
          1 1 1 1 1 1 1 1 1 1 1 1
          1 1 1 1 1 1 1 1 1 1 1 1
          1 1 1 1 1 1 1 1 1 1 1 1
          1 1 1 1 1 1 1 1 1 1 1 1
          1 1 1 1 1 1 1 1 1 1 1 1
          1 1 1 1 1 1 1 1 1 1 1 1
          1 1 1 1 1 1 1 1 1 1 1 1
          1 1 1 1 1 1 1 1 1 1 1 1
          1 1 1 1 1 1 1 1 1 1 1 1
          1 1 1 1 1 1 1 1 1 1 1 1
          1 1 1 1 1 1 1 1 1 1 1 1
          1 1 1 1 1 1 1 1 1 1 1 1
          1 1 1 1 1 1 1 1 1 1 1 1
          1 1 1 1 1 1 1 1 1 1 1 1
          1 1 1 1 1 1 1 1 1 1 1 1
          1 1 1 1 1 1 1 1 1 1 1 1
          1 1 1 1
        </DataArray>
        <DataArray type="Float32" Name="x^N2_Gas" NumberOfComponents="1" format="ascii">
          2.14269e-09 2.14324e-09 2.14431e-09 2.14588e-09 2.14791e-09 2.15034e-09 2.1531e-09 2.15613e-09 2.15934e-09 2.16265e-09 2.16598e-09 2.16924e-09
          2.17237e-09 2.17528e-09 2.17791e-09 2.18019e-09 2.18208e-09 2.18354e-09 2.18453e-09 2.18503e-09 2.13153e-09 2.13209e-09 2.13319e-09 2.13479e-09
          2.13687e-09 2.13935e-09 2.14217e-09 2.14526e-09 2.14854e-09 2.15192e-09 2.15531e-09 2.15864e-09 2.16182e-09 2.16478e-09 2.16746e-09 2.16978e-09
          2.17171e-09 2.17319e-09 2.1742e-09 2.1747e-09 2.10925e-09 2.10983e-09 2.11098e-09 2.11266e-09 2.11483e-09 2.11742e-09 2.12036e-09 2.12358e-09
          2.12699e-09 2.1305e-09 2.13403e-09 2.13748e-09 2.14078e-09 2.14385e-09 2.14662e-09 2.14902e-09 2.15101e-09 2.15254e-09 2.15358e-09 2.15411e-09
          2.07594e-09 2.07656e-09 2.07778e-09 2.07958e-09 2.08188e-09 2.08464e-09 2.08777e-09 2.09119e-09 2.0948e-09 2.09851e-09 2.10224e-09 2.10588e-09
          2.10936e-09 2.11259e-09 2.1155e-09 2.11803e-09 2.12012e-09 2.12173e-09 2.12282e-09 2.12337e-09 2.03171e-09 2.03239e-09 2.03372e-09 2.03567e-09
          2.03818e-09 2.04116e-09 2.04455e-09 2.04823e-09 2.05213e-09 2.05612e-09 2.06012e-09 2.06402e-09 2.06774e-09 2.07119e-09 2.07429e-09 2.07698e-09
          2.0792e-09 2.08091e-09 2.08207e-09 2.08265e-09 1.97674e-09 1.97749e-09 1.97897e-09 1.98112e-09 1.98389e-09 1.98717e-09 1.99089e-09 1.99493e-09
          1.99918e-09 2.00353e-09 2.00788e-09 2.01211e-09 2.01614e-09 2.01986e-09 2.02321e-09 2.02611e-09 2.0285e-09 2.03033e-09 2.03158e-09 2.0322e-09
          1.91123e-09 1.91208e-09 1.91373e-09 1.91615e-09 1.91924e-09 1.92291e-09 1.92704e-09 1.93153e-09 1.93623e-09 1.94103e-09 1.9458e-09 1.95045e-09
          1.95485e-09 1.95891e-09 1.96255e-09 1.9657e-09 1.9683e-09 1.97029e-09 1.97163e-09 1.97231e-09 1.83541e-09 1.83637e-09 1.83826e-09 1.841e-09
          1.8445e-09 1.84865e-09 1.85331e-09 1.85833e-09 1.86358e-09 1.86893e-09 1.87422e-09 1.87935e-09 1.8842e-09 1.88867e-09 1.89267e-09 1.89612e-09
          1.89895e-09 1.90112e-09 1.90259e-09 1.90333e-09 1.74952e-09 1.75064e-09 1.75281e-09 1.75597e-09 1.75999e-09 1.76472e-09 1.77001e-09 1.7757e-09
          1.78162e-09 1.78761e-09 1.79352e-09 1.79923e-09 1.80461e-09 1.80955e-09 1.81395e-09 1.81774e-09 1.82086e-09 1.82324e-09 1.82485e-09 1.82566e-09
          1.65386e-09 1.65516e-09 1.65771e-09 1.66138e-09 1.66604e-09 1.67149e-09 1.67756e-09 1.68404e-09 1.69075e-09 1.6975e-09 1.70415e-09 1.71052e-09
          1.71651e-09 1.72199e-09 1.72686e-09 1.73105e-09 1.73447e-09 1.73709e-09 1.73886e-09 1.73975e-09 1.5487e-09 1.55024e-09 1.55325e-09 1.55758e-09
          1.56303e-09 1.56937e-09 1.57637e-09 1.58381e-09 1.59145e-09 1.5991e-09 1.60658e-09 1.61374e-09 1.62042e-09 1.62651e-09 1.6319e-09 1.63653e-09
          1.64031e-09 1.64319e-09 1.64513e-09 1.64611e-09 1.43432e-09 1.43618e-09 1.43979e-09 1.44494e-09 1.45138e-09 1.45881e-09 1.46695e-09 1.47552e-09
          1.48426e-09 1.49295e-09 1.5014e-09 1.50942e-09 1.51688e-09 1.52365e-09 1.52964e-09 1.53474e-09 1.53891e-09 1.54208e-09 1.54421e-09 1.54529e-09
          1.31098e-09 1.31325e-09 1.31764e-09 1.32385e-09 1.33154e-09 1.34032e-09 1.34983e-09 1.35974e-09 1.36977e-09 1.37965e-09 1.38918e-09 1.39819e-09
          1.40652e-09 1.41404e-09 1.42066e-09 1.4263e-09 1.43088e-09 1.43437e-09 1.43671e-09 1.43788e-09 1.17887e-09 1.18171e-09 1.18714e-09 1.19474e-09
          1.20401e-09 1.21445e-09 1.22562e-09 1.23712e-09 1.24862e-09 1.25986e-09 1.27062e-09 1.28071e-09 1.28998e-09 1.29833e-09 1.30564e-09 1.31184e-09
          1.31687e-09 1.32069e-09 1.32325e-09 1.32453e-09 1.03807e-09 1.04171e-09 1.04859e-09 1.05803e-09 1.06933e-09 1.08184e-09 1.095e-09 1.10836e-09
          1.12156e-09 1.13432e-09 1.14643e-09 1.15769e-09 1.16799e-09 1.17721e-09 1.18525e-09 1.19205e-09 1.19755e-09 1.20171e-09 1.20451e-09 1.20591e-09
          8.8849e-10 8.93333e-10 9.02264e-10 9.14218e-10 9.28159e-10 9.43228e-10 9.58762e-10 9.74268e-10 9.89377e-10 1.00382e-09 1.01738e-09 1.02992e-09
          1.0413e-09 1.05143e-09 1.06023e-09 1.06765e-09 1.07364e-09 1.07816e-09 1.08119e-09 1.0827e-09 7.29663e-10 7.36436e-10 7.4845e-10 7.63889e-10
          7.81256e-10 7.99472e-10 8.178e-10 8.35743e-10 8.52961e-10 8.69214e-10 8.84333e-10 8.98191e-10 9.10692e-10 9.21763e-10 9.31346e-10 9.39394e-10
          9.45873e-10 9.50755e-10 9.5402e-10 9.55656e-10 5.60447e-10 5.70648e-10 5.87502e-10 6.07848e-10 6.29632e-10 6.51642e-10 6.73172e-10 6.93804e-10
          7.13281e-10 7.31438e-10 7.48161e-10 7.6337e-10 7.77005e-10 7.8902e-10 7.99379e-10 8.08053e-10 8.15018e-10 8.20257e-10 8.23756e-10 8.25508e-10
          3.78253e-10 3.95381e-10 4.20152e-10 4.47357e-10 4.74664e-10 5.01063e-10 5.26105e-10 5.49582e-10 5.71389e-10 5.91472e-10 6.09796e-10 6.26341e-10
          6.41088e-10 6.54025e-10 6.65137e-10 6.74415e-10 6.8185e-10 6.87433e-10 6.91159e-10 6.93022e-10 1.77057e-10 2.10511e-10 2.48287e-10 2.84546e-10
          3.18251e-10 3.49359e-10 3.77998e-10 4.04306e-10 4.2839e-10 4.50332e-10 4.7019e-10 4.88005e-10 5.03806e-10 5.17612e-10 5.29434e-10 5.39281e-10
          5.47156e-10 5.53061e-10 5.56998e-10 5.58967e-10
        </DataArray>
        <DataArray type="Float32" Name="x^CO2_Gas" NumberOfComponents="1" format="ascii">
          1.50796e-08 1.50834e-08 1.50909e-08 1.5102e-08 1.51163e-08 1.51334e-08 1.51528e-08 1.51741e-08 1.51967e-08 1.52199e-08 1.52434e-08 1.52663e-08
          1.52883e-08 1.53088e-08 1.53273e-08 1.53433e-08 1.53566e-08 1.53669e-08 1.53739e-08 1.53774e-08 1.5001e-08 1.50049e-08 1.50126e-08 1.5024e-08
          1.50385e-08 1.5056e-08 1.50759e-08 1.50976e-08 1.51206e-08 1.51444e-08 1.51683e-08 1.51917e-08 1.52141e-08 1.52349e-08 1.52537e-08 1.52701e-08
          1.52836e-08 1.5294e-08 1.53011e-08 1.53047e-08 1.48442e-08 1.48483e-08 1.48564e-08 1.48682e-08 1.48834e-08 1.49016e-08 1.49223e-08 1.4945e-08
          1.4969e-08 1.49937e-08 1.50184e-08 1.50427e-08 1.5066e-08 1.50875e-08 1.5107e-08 1.51239e-08 1.51379e-08 1.51487e-08 1.5156e-08 1.51597e-08
          1.46097e-08 1.46141e-08 1.46227e-08 1.46353e-08 1.46515e-08 1.46709e-08 1.46929e-08 1.4717e-08 1.47424e-08 1.47685e-08 1.47947e-08 1.48204e-08
          1.48448e-08 1.48675e-08 1.4888e-08 1.49058e-08 1.49205e-08 1.49318e-08 1.49395e-08 1.49433e-08 1.42984e-08 1.43032e-08 1.43126e-08 1.43263e-08
          1.43439e-08 1.43649e-08 1.43887e-08 1.44147e-08 1.4442e-08 1.44701e-08 1.44982e-08 1.45257e-08 1.45518e-08 1.45761e-08 1.45979e-08 1.46169e-08
          1.46325e-08 1.46445e-08 1.46526e-08 1.46568e-08 1.39116e-08 1.39168e-08 1.39272e-08 1.39424e-08 1.39618e-08 1.39849e-08 1.40111e-08 1.40395e-08
          1.40694e-08 1.41e-08 1.41306e-08 1.41603e-08 1.41887e-08 1.42149e-08 1.42384e-08 1.42588e-08 1.42756e-08 1.42885e-08 1.42973e-08 1.43017e-08
          1.34505e-08 1.34564e-08 1.34681e-08 1.3485e-08 1.35068e-08 1.35326e-08 1.35617e-08 1.35932e-08 1.36263e-08 1.366e-08 1.36936e-08 1.37263e-08
          1.37572e-08 1.37858e-08 1.38115e-08 1.38336e-08 1.38519e-08 1.38659e-08 1.38753e-08 1.38801e-08 1.29168e-08 1.29236e-08 1.29368e-08 1.29561e-08
          1.29808e-08 1.30099e-08 1.30427e-08 1.3078e-08 1.3115e-08 1.31526e-08 1.31898e-08 1.32259e-08 1.326e-08 1.32915e-08 1.33196e-08 1.33438e-08
          1.33638e-08 1.3379e-08 1.33894e-08 1.33946e-08 1.23123e-08 1.23201e-08 1.23355e-08 1.23577e-08 1.23859e-08 1.24192e-08 1.24565e-08 1.24964e-08
          1.25381e-08 1.25802e-08 1.26218e-08 1.2662e-08 1.26998e-08 1.27345e-08 1.27655e-08 1.27922e-08 1.28141e-08 1.28308e-08 1.28421e-08 1.28478e-08
          1.1639e-08 1.16482e-08 1.16661e-08 1.16919e-08 1.17247e-08 1.1763e-08 1.18057e-08 1.18513e-08 1.18985e-08 1.1946e-08 1.19927e-08 1.20376e-08
          1.20797e-08 1.21182e-08 1.21525e-08 1.21819e-08 1.22061e-08 1.22245e-08 1.22369e-08 1.22431e-08 1.08989e-08 1.09098e-08 1.09309e-08 1.09614e-08
          1.09997e-08 1.10443e-08 1.10935e-08 1.11458e-08 1.11996e-08 1.12534e-08 1.1306e-08 1.13563e-08 1.14033e-08 1.14462e-08 1.14841e-08 1.15167e-08
          1.15432e-08 1.15635e-08 1.15772e-08 1.1584e-08 1.00939e-08 1.0107e-08 1.01323e-08 1.01686e-08 1.02138e-08 1.02661e-08 1.03234e-08 1.03836e-08
          1.04451e-08 1.05063e-08 1.05657e-08 1.06221e-08 1.06746e-08 1.07222e-08 1.07643e-08 1.08002e-08 1.08295e-08 1.08518e-08 1.08668e-08 1.08744e-08
          9.2258e-09 9.2418e-09 9.27265e-09 9.31635e-09 9.3704e-09 9.43215e-09 9.49905e-09 9.56878e-09 9.63928e-09 9.7088e-09 9.77586e-09 9.8392e-09
          9.89776e-09 9.9507e-09 9.99728e-09 1.00369e-08 1.00692e-08 1.00937e-08 1.01101e-08 1.01184e-08 8.29599e-09 8.31597e-09 8.35417e-09 8.40761e-09
          8.47281e-09 8.54627e-09 8.62482e-09 8.70571e-09 8.78663e-09 8.86569e-09 8.94134e-09 9.0123e-09 9.07754e-09 9.13621e-09 9.18764e-09 9.23127e-09
          9.26667e-09 9.2935e-09 9.31152e-09 9.32056e-09 7.30509e-09 7.33071e-09 7.37904e-09 7.44546e-09 7.52497e-09 7.61296e-09 7.70551e-09 7.79946e-09
          7.8923e-09 7.98206e-09 8.06719e-09 8.14646e-09 8.21889e-09 8.2837e-09 8.34027e-09 8.38811e-09 8.42681e-09 8.45609e-09 8.47572e-09 8.48558e-09
          6.25236e-09 6.28642e-09 6.34924e-09 6.43332e-09 6.53137e-09 6.63735e-09 6.74661e-09 6.85567e-09 6.96194e-09 7.06351e-09 7.15893e-09 7.24709e-09
          7.32713e-09 7.39838e-09 7.46031e-09 7.5125e-09 7.55462e-09 7.58642e-09 7.60771e-09 7.61839e-09 5.13459e-09 5.18223e-09 5.26673e-09 5.37531e-09
          5.49746e-09 5.62558e-09 5.75449e-09 5.88069e-09 6.00179e-09 6.1161e-09 6.22244e-09 6.31992e-09 6.40785e-09 6.48572e-09 6.55312e-09 6.60974e-09
          6.65531e-09 6.68965e-09 6.71262e-09 6.72413e-09 3.94373e-09 4.01548e-09 4.13402e-09 4.27712e-09 4.43033e-09 4.58513e-09 4.73656e-09 4.88167e-09
          5.01866e-09 5.14637e-09 5.26399e-09 5.37097e-09 5.46687e-09 5.55139e-09 5.62425e-09 5.68526e-09 5.73425e-09 5.77111e-09 5.79573e-09 5.80805e-09
          2.66158e-09 2.78205e-09 2.95628e-09 3.14761e-09 3.33967e-09 3.52534e-09 3.70147e-09 3.86658e-09 4.01996e-09 4.16121e-09 4.2901e-09 4.40647e-09
          4.5102e-09 4.60119e-09 4.67936e-09 4.74463e-09 4.79692e-09 4.8362e-09 4.8624e-09 4.87551e-09 1.24577e-09 1.48108e-09 1.74678e-09 2.00179e-09
          2.23884e-09 2.45762e-09 2.65905e-09 2.84407e-09 3.01347e-09 3.16779e-09 3.30746e-09 3.43277e-09 3.54391e-09 3.64102e-09 3.72418e-09 3.79345e-09
          3.84884e-09 3.89039e-09 3.91808e-09 3.93193e-09
        </DataArray>
        <DataArray type="Float32" Name="X^H2_Gas" NumberOfComponents="1" format="ascii">
          1 1 1 1 1 1 1 1 1 1 1 1
          1 1 1 1 1 1 1 1 1 1 1 1
          1 1 1 1 1 1 1 1 1 1 1 1
          1 1 1 1 1 1 1 1 1 1 1 1
          1 1 1 1 1 1 1 1 1 1 1 1
          1 1 1 1 1 1 1 1 1 1 1 1
          1 1 1 1 1 1 1 1 1 1 1 1
          1 1 1 1 1 1 1 1 1 1 1 1
          1 1 1 1 1 1 1 1 1 1 1 1
          1 1 1 1 1 1 1 1 1 1 1 1
          1 1 1 1 1 1 1 1 1 1 1 1
          1 1 1 1 1 1 1 1 1 1 1 1
          1 1 1 1 1 1 1 1 1 1 1 1
          1 1 1 1 1 1 1 1 1 1 1 1
          1 1 1 1 1 1 1 1 1 1 1 1
          1 1 1 1 1 1 1 1 1 1 1 1
          1 1 1 1 1 1 1 1 1 1 1 1
          1 1 1 1 1 1 1 1 1 1 1 1
          1 1 1 1 1 1 1 1 1 1 1 1
          1 1 1 1 1 1 1 1 1 1 1 1
          1 1 1 1 1 1 1 1 1 1 1 1
          1 1 1 1 1 1 1 1 1 1 1 1
          1 1 1 1 1 1 1 1 1 1 1 1
          1 1 1 1 1 1 1 1 1 1 1 1
          1 1 1 1 1 1 1 1 1 1 1 1
          1 1 1 1 1 1 1 1 1 1 1 1
          1 1 1 1 1 1 1 1 1 1 1 1
          1 1 1 1 1 1 1 1 1 1 1 1
          1 1 1 1 1 1 1 1 1 1 1 1
          1 1 1 1 1 1 1 1 1 1 1 1
          1 1 1 1 1 1 1 1 1 1 1 1
          1 1 1 1 1 1 1 1 1 1 1 1
          1 1 1 1 1 1 1 1 1 1 1 1
          1 1 1 1
        </DataArray>
        <DataArray type="Float32" Name="X^N2_Gas" NumberOfComponents="1" format="ascii">
          2.14269e-09 2.14324e-09 2.14431e-09 2.14588e-09 2.14791e-09 2.15034e-09 2.1531e-09 2.15613e-09 2.15934e-09 2.16265e-09 2.16598e-09 2.16924e-09
          2.17237e-09 2.17528e-09 2.17791e-09 2.18019e-09 2.18208e-09 2.18354e-09 2.18453e-09 2.18503e-09 2.13153e-09 2.13209e-09 2.13319e-09 2.13479e-09
          2.13687e-09 2.13935e-09 2.14217e-09 2.14526e-09 2.14854e-09 2.15192e-09 2.15531e-09 2.15864e-09 2.16182e-09 2.16478e-09 2.16746e-09 2.16978e-09
          2.17171e-09 2.17319e-09 2.1742e-09 2.1747e-09 2.10925e-09 2.10983e-09 2.11098e-09 2.11266e-09 2.11483e-09 2.11742e-09 2.12036e-09 2.12358e-09
          2.12699e-09 2.1305e-09 2.13403e-09 2.13748e-09 2.14078e-09 2.14385e-09 2.14662e-09 2.14902e-09 2.15101e-09 2.15254e-09 2.15358e-09 2.15411e-09
          2.07594e-09 2.07656e-09 2.07778e-09 2.07958e-09 2.08188e-09 2.08464e-09 2.08777e-09 2.09119e-09 2.0948e-09 2.09851e-09 2.10224e-09 2.10588e-09
          2.10936e-09 2.11259e-09 2.1155e-09 2.11803e-09 2.12012e-09 2.12173e-09 2.12282e-09 2.12337e-09 2.03171e-09 2.03239e-09 2.03372e-09 2.03567e-09
          2.03818e-09 2.04116e-09 2.04455e-09 2.04823e-09 2.05213e-09 2.05612e-09 2.06012e-09 2.06402e-09 2.06774e-09 2.07119e-09 2.07429e-09 2.07698e-09
          2.0792e-09 2.08091e-09 2.08207e-09 2.08265e-09 1.97674e-09 1.97749e-09 1.97897e-09 1.98112e-09 1.98389e-09 1.98717e-09 1.99089e-09 1.99493e-09
          1.99918e-09 2.00353e-09 2.00788e-09 2.01211e-09 2.01614e-09 2.01986e-09 2.02321e-09 2.02611e-09 2.0285e-09 2.03033e-09 2.03158e-09 2.0322e-09
          1.91123e-09 1.91208e-09 1.91373e-09 1.91615e-09 1.91924e-09 1.92291e-09 1.92704e-09 1.93153e-09 1.93623e-09 1.94103e-09 1.9458e-09 1.95045e-09
          1.95485e-09 1.95891e-09 1.96255e-09 1.9657e-09 1.9683e-09 1.97029e-09 1.97163e-09 1.97231e-09 1.83541e-09 1.83637e-09 1.83826e-09 1.841e-09
          1.8445e-09 1.84865e-09 1.85331e-09 1.85833e-09 1.86358e-09 1.86893e-09 1.87422e-09 1.87935e-09 1.8842e-09 1.88867e-09 1.89267e-09 1.89612e-09
          1.89895e-09 1.90112e-09 1.90259e-09 1.90333e-09 1.74952e-09 1.75064e-09 1.75281e-09 1.75597e-09 1.75999e-09 1.76472e-09 1.77001e-09 1.7757e-09
          1.78162e-09 1.78761e-09 1.79352e-09 1.79923e-09 1.80461e-09 1.80955e-09 1.81395e-09 1.81774e-09 1.82086e-09 1.82324e-09 1.82485e-09 1.82566e-09
          1.65386e-09 1.65516e-09 1.65771e-09 1.66138e-09 1.66604e-09 1.67149e-09 1.67756e-09 1.68404e-09 1.69075e-09 1.6975e-09 1.70415e-09 1.71052e-09
          1.71651e-09 1.72199e-09 1.72686e-09 1.73105e-09 1.73447e-09 1.73709e-09 1.73886e-09 1.73975e-09 1.5487e-09 1.55024e-09 1.55325e-09 1.55758e-09
          1.56303e-09 1.56937e-09 1.57637e-09 1.58381e-09 1.59145e-09 1.5991e-09 1.60658e-09 1.61374e-09 1.62042e-09 1.62651e-09 1.6319e-09 1.63653e-09
          1.64031e-09 1.64319e-09 1.64513e-09 1.64611e-09 1.43432e-09 1.43618e-09 1.43979e-09 1.44494e-09 1.45138e-09 1.45881e-09 1.46695e-09 1.47552e-09
          1.48426e-09 1.49295e-09 1.5014e-09 1.50942e-09 1.51688e-09 1.52365e-09 1.52964e-09 1.53474e-09 1.53891e-09 1.54208e-09 1.54421e-09 1.54529e-09
          1.31098e-09 1.31325e-09 1.31764e-09 1.32385e-09 1.33154e-09 1.34032e-09 1.34983e-09 1.35974e-09 1.36977e-09 1.37965e-09 1.38918e-09 1.39819e-09
          1.40652e-09 1.41404e-09 1.42066e-09 1.4263e-09 1.43088e-09 1.43437e-09 1.43671e-09 1.43788e-09 1.17887e-09 1.18171e-09 1.18714e-09 1.19474e-09
          1.20401e-09 1.21445e-09 1.22562e-09 1.23712e-09 1.24862e-09 1.25986e-09 1.27062e-09 1.28071e-09 1.28998e-09 1.29833e-09 1.30564e-09 1.31184e-09
          1.31687e-09 1.32069e-09 1.32325e-09 1.32453e-09 1.03807e-09 1.04171e-09 1.04859e-09 1.05803e-09 1.06933e-09 1.08184e-09 1.095e-09 1.10836e-09
          1.12156e-09 1.13432e-09 1.14643e-09 1.15769e-09 1.16799e-09 1.17721e-09 1.18525e-09 1.19205e-09 1.19755e-09 1.20171e-09 1.20451e-09 1.20591e-09
          8.8849e-10 8.93333e-10 9.02264e-10 9.14218e-10 9.28159e-10 9.43228e-10 9.58762e-10 9.74268e-10 9.89377e-10 1.00382e-09 1.01738e-09 1.02992e-09
          1.0413e-09 1.05143e-09 1.06023e-09 1.06765e-09 1.07364e-09 1.07816e-09 1.08119e-09 1.0827e-09 7.29663e-10 7.36436e-10 7.4845e-10 7.63889e-10
          7.81256e-10 7.99472e-10 8.178e-10 8.35743e-10 8.52961e-10 8.69214e-10 8.84333e-10 8.98191e-10 9.10692e-10 9.21763e-10 9.31346e-10 9.39394e-10
          9.45873e-10 9.50755e-10 9.5402e-10 9.55656e-10 5.60447e-10 5.70648e-10 5.87502e-10 6.07848e-10 6.29632e-10 6.51642e-10 6.73172e-10 6.93804e-10
          7.13281e-10 7.31438e-10 7.48161e-10 7.6337e-10 7.77005e-10 7.8902e-10 7.99379e-10 8.08053e-10 8.15018e-10 8.20257e-10 8.23756e-10 8.25508e-10
          3.78253e-10 3.95381e-10 4.20152e-10 4.47357e-10 4.74664e-10 5.01063e-10 5.26105e-10 5.49582e-10 5.71389e-10 5.91472e-10 6.09796e-10 6.26341e-10
          6.41088e-10 6.54025e-10 6.65137e-10 6.74415e-10 6.8185e-10 6.87433e-10 6.91159e-10 6.93022e-10 1.77057e-10 2.10511e-10 2.48287e-10 2.84546e-10
          3.18251e-10 3.49359e-10 3.77998e-10 4.04306e-10 4.2839e-10 4.50332e-10 4.7019e-10 4.88005e-10 5.03806e-10 5.17612e-10 5.29434e-10 5.39281e-10
          5.47156e-10 5.53061e-10 5.56998e-10 5.58967e-10
        </DataArray>
        <DataArray type="Float32" Name="X^CO2_Gas" NumberOfComponents="1" format="ascii">
          1.50796e-08 1.50834e-08 1.50909e-08 1.5102e-08 1.51163e-08 1.51334e-08 1.51528e-08 1.51741e-08 1.51967e-08 1.52199e-08 1.52434e-08 1.52663e-08
          1.52883e-08 1.53088e-08 1.53273e-08 1.53433e-08 1.53566e-08 1.53669e-08 1.53739e-08 1.53774e-08 1.5001e-08 1.50049e-08 1.50126e-08 1.5024e-08
          1.50385e-08 1.5056e-08 1.50759e-08 1.50976e-08 1.51206e-08 1.51444e-08 1.51683e-08 1.51917e-08 1.52141e-08 1.52349e-08 1.52537e-08 1.52701e-08
          1.52836e-08 1.5294e-08 1.53011e-08 1.53047e-08 1.48442e-08 1.48483e-08 1.48564e-08 1.48682e-08 1.48834e-08 1.49016e-08 1.49223e-08 1.4945e-08
          1.4969e-08 1.49937e-08 1.50184e-08 1.50427e-08 1.5066e-08 1.50875e-08 1.5107e-08 1.51239e-08 1.51379e-08 1.51487e-08 1.5156e-08 1.51597e-08
          1.46097e-08 1.46141e-08 1.46227e-08 1.46353e-08 1.46515e-08 1.46709e-08 1.46929e-08 1.4717e-08 1.47424e-08 1.47685e-08 1.47947e-08 1.48204e-08
          1.48448e-08 1.48675e-08 1.4888e-08 1.49058e-08 1.49205e-08 1.49318e-08 1.49395e-08 1.49433e-08 1.42984e-08 1.43032e-08 1.43126e-08 1.43263e-08
          1.43439e-08 1.43649e-08 1.43887e-08 1.44147e-08 1.4442e-08 1.44701e-08 1.44982e-08 1.45257e-08 1.45518e-08 1.45761e-08 1.45979e-08 1.46169e-08
          1.46325e-08 1.46445e-08 1.46526e-08 1.46568e-08 1.39116e-08 1.39168e-08 1.39272e-08 1.39424e-08 1.39618e-08 1.39849e-08 1.40111e-08 1.40395e-08
          1.40694e-08 1.41e-08 1.41306e-08 1.41603e-08 1.41887e-08 1.42149e-08 1.42384e-08 1.42588e-08 1.42756e-08 1.42885e-08 1.42973e-08 1.43017e-08
          1.34505e-08 1.34564e-08 1.34681e-08 1.3485e-08 1.35068e-08 1.35326e-08 1.35617e-08 1.35932e-08 1.36263e-08 1.366e-08 1.36936e-08 1.37263e-08
          1.37572e-08 1.37858e-08 1.38115e-08 1.38336e-08 1.38519e-08 1.38659e-08 1.38753e-08 1.38801e-08 1.29168e-08 1.29236e-08 1.29368e-08 1.29561e-08
          1.29808e-08 1.30099e-08 1.30427e-08 1.3078e-08 1.3115e-08 1.31526e-08 1.31898e-08 1.32259e-08 1.326e-08 1.32915e-08 1.33196e-08 1.33438e-08
          1.33638e-08 1.3379e-08 1.33894e-08 1.33946e-08 1.23123e-08 1.23201e-08 1.23355e-08 1.23577e-08 1.23859e-08 1.24192e-08 1.24565e-08 1.24964e-08
          1.25381e-08 1.25802e-08 1.26218e-08 1.2662e-08 1.26998e-08 1.27345e-08 1.27655e-08 1.27922e-08 1.28141e-08 1.28308e-08 1.28421e-08 1.28478e-08
          1.1639e-08 1.16482e-08 1.16661e-08 1.16919e-08 1.17247e-08 1.1763e-08 1.18057e-08 1.18513e-08 1.18985e-08 1.1946e-08 1.19927e-08 1.20376e-08
          1.20797e-08 1.21182e-08 1.21525e-08 1.21819e-08 1.22061e-08 1.22245e-08 1.22369e-08 1.22431e-08 1.08989e-08 1.09098e-08 1.09309e-08 1.09614e-08
          1.09997e-08 1.10443e-08 1.10935e-08 1.11458e-08 1.11996e-08 1.12534e-08 1.1306e-08 1.13563e-08 1.14033e-08 1.14462e-08 1.14841e-08 1.15167e-08
          1.15432e-08 1.15635e-08 1.15772e-08 1.1584e-08 1.00939e-08 1.0107e-08 1.01323e-08 1.01686e-08 1.02138e-08 1.02661e-08 1.03234e-08 1.03836e-08