<?xml version="1.0"?>
<VTKFile type="PolyData" version="0.1" byte_order="LittleEndian">
  <PolyData>
    <Piece NumberOfLines="4" NumberOfPoints="5">
      <PointData Scalars="S_liq">
        <DataArray type="Float32" Name="S_liq" NumberOfComponents="1" format="ascii">
          0 0 0 0.00293691 1
        </DataArray>
        <DataArray type="Float32" Name="p_liq" NumberOfComponents="1" format="ascii">
          110000 107089 104100 101346 100000
        </DataArray>
        <DataArray type="Float32" Name="rho_liq" NumberOfComponents="1" format="ascii">
          999.117 974.141 986.478 999.227 999.712
        </DataArray>
        <DataArray type="Float32" Name="mob_liq" NumberOfComponents="1" format="ascii">
          879.071 878.683 869.94 860.79 765.754
        </DataArray>
        <DataArray type="Float32" Name="S_gas" NumberOfComponents="1" format="ascii">
          1 1 1 0.997063 0
        </DataArray>
        <DataArray type="Float32" Name="p_gas" NumberOfComponents="1" format="ascii">
          112159 109248 106259 103193 100000
        </DataArray>
        <DataArray type="Float32" Name="rho_gas" NumberOfComponents="1" format="ascii">
          1.34797 1.31306 1.27869 1.24339 1.22442
        </DataArray>
        <DataArray type="Float32" Name="mob_gas" NumberOfComponents="1" format="ascii">
          56175.8 56179.9 56246.7 56317 56893.1
        </DataArray>
        <DataArray type="Float32" Name="pc" NumberOfComponents="1" format="ascii">
          2159.24 2159.24 2159.24 1847.61 0
        </DataArray>
        <DataArray type="Float32" Name="porosity" NumberOfComponents="1" format="ascii">
          1 1 1 1 1
        </DataArray>
        <DataArray type="Float32" Name="x^H2O_liq" NumberOfComponents="1" format="ascii">
          0.999982 0.974984 0.987279 0.999983 0.999982
        </DataArray>
        <DataArray type="Float32" Name="X^H2O_liq" NumberOfComponents="1" format="ascii">
          0.999971 0.974973 0.987268 0.999973 0.999971
        </DataArray>
        <DataArray type="Float32" Name="x^Air_liq" NumberOfComponents="1" format="ascii">
          1.82763e-05 1.78078e-05 1.74492e-05 1.70791e-05 1.81889e-05
        </DataArray>
        <DataArray type="Float32" Name="X^Air_liq" NumberOfComponents="1" format="ascii">
          2.93794e-05 2.86264e-05 2.80498e-05 2.74549e-05 2.92389e-05
        </DataArray>
        <DataArray type="Float32" Name="rhoMolar_liq" NumberOfComponents="1" format="ascii">
          55459.1 55459.1 55462.2 55465.3 55492.2
        </DataArray>
        <DataArray type="Float32" Name="x^H2O_gas" NumberOfComponents="1" format="ascii">
          0.015208 0.0152067 0.0154517 0.0157083 0.0122816
        </DataArray>
        <DataArray type="Float32" Name="X^H2O_gas" NumberOfComponents="1" format="ascii">
          0.00951512 0.0095143 0.00966851 0.00983002 0.00767567
        </DataArray>
        <DataArray type="Float32" Name="x^Air_gas" NumberOfComponents="1" format="ascii">
          0.984792 0.984793 0.984548 0.984292 0.987718
        </DataArray>
        <DataArray type="Float32" Name="X^Air_gas" NumberOfComponents="1" format="ascii">
          0.990485 0.990486 0.990331 0.99017 0.992324
        </DataArray>
        <DataArray type="Float32" Name="rhoMolar_gas" NumberOfComponents="1" format="ascii">
          46.8154 45.6028 44.4133 43.1913 42.477
        </DataArray>
        <DataArray type="Float32" Name="phase presence" NumberOfComponents="1" format="ascii">
          3 2 2 3 3
        </DataArray>
        <DataArray type="Float32" Name="poreInscribedRadius" NumberOfComponents="1" format="ascii">
          0.002 0.002 0.002 0.002 0.002
        </DataArray>
        <DataArray type="Float32" Name="T" NumberOfComponents="1" format="ascii">
          288.15 288.133 287.757 287.361 283.15
        </DataArray>
        <DataArray type="Float32" Name="coordinationNumber" NumberOfComponents="1" format="ascii">
          1 2 2 2 1
        </DataArray>
        <DataArray type="Float32" Name="poreLabel" NumberOfComponents="1" format="ascii">
          2 -1 -1 -1 3
        </DataArray>
      </PointData>
      <CellData Scalars="process rank" Vectors="velocity_liq (m/s)">
        <DataArray type="Float32" Name="velocity_liq (m/s)" NumberOfComponents="3" format="ascii">
          0.848257 0 0 0.870363 0 0 0.794098 0 0 0.524429 0 0
        </DataArray>
        <DataArray type="Float32" Name="velocity_gas (m/s)" NumberOfComponents="3" format="ascii">
          7618.25 0 0 7820.81 0 0 8032.27 0 0 8337.29 0 0
        </DataArray>
        <DataArray type="Float32" Name="process rank" NumberOfComponents="1" format="ascii">
          0 0 0 0
        </DataArray>
        <DataArray type="Float32" Name="throatLabel" NumberOfComponents="1" format="ascii">
          2 -1 -1 3
        </DataArray>
        <DataArray type="Float32" Name="throatInscribedRadius" NumberOfComponents="1" format="ascii">
          0.0001 0.0001 0.0001 0.0001
        </DataArray>
        <DataArray type="Float32" Name="throatLength" NumberOfComponents="1" format="ascii">
          3e-05 3e-05 3e-05 3e-05
        </DataArray>
        <DataArray type="Float32" Name="pcEntry" NumberOfComponents="1" format="ascii">
          1367.51 1367.51 1367.51 1367.51
        </DataArray>
        <DataArray type="Float32" Name="transmissibilityW" NumberOfComponents="1" format="ascii">
          3.20753e-16 3.20753e-16 3.20753e-16 5.98319e-16
        </DataArray>
        <DataArray type="Float32" Name="transmissibilityN" NumberOfComponents="1" format="ascii">
          1.81814e-12 1.81814e-12 1.81814e-12 1.79303e-12
        </DataArray>
        <DataArray type="Float32" Name="volumeFluxW" NumberOfComponents="1" format="ascii">
          8.20912e-10 8.42305e-10 7.68498e-10 6.93165e-10
        </DataArray>
        <DataArray type="Float32" Name="volumeFluxN" NumberOfComponents="1" format="ascii">
          0.000297357 0.000305264 0.000313517 0.000322472
        </DataArray>
      </CellData>
      <Points>
        <DataArray type="Float32" Name="Coordinates" NumberOfComponents="3" format="ascii">
          0 0 0 1 0 0 2 0 0 3 0 0
          4 0 0
        </DataArray>
      </Points>
      <Lines>
        <DataArray type="Int32" Name="connectivity" NumberOfComponents="1" format="ascii">
          0 1 1 2 2 3 3 4
        </DataArray>
        <DataArray type="Int32" Name="offsets" NumberOfComponents="1" format="ascii">
          2 4 6 8
        </DataArray>
      </Lines>
    </Piece>
  </PolyData>
</VTKFile>
