<?xml version="1.0"?>
<VTKFile type="PolyData" version="0.1" byte_order="LittleEndian">
  <PolyData>
    <Piece NumberOfLines="1738" NumberOfPoints="1739">
      <CellData Scalars="p">
        <DataArray type="Float32" Name="p" NumberOfComponents="1" format="ascii">
          -66996 -66730.7 -66662.1 -66594.3 -66527.1 -66460.3 -66393.9 -66328.1 -66263 -66198.3 -66133.9 -66069.6
          -66005.3 -65941.5 -65878 -65815 -65752.2 -65689.8 -65628.2 -65567.4 -65506.9 -65446.7 -65389.9 -65336.4
          -65283.3 -65230.4 -65177.7 -65131.7 -65092.2 -65053 -65014 -64972.4 -64928.5 -64884.8 -64841.4 -64798.2
          -64756.2 -64715.1 -64674.4 -64634.1 -64594.2 -64554.6 -64515.4 -64476.5 -64438.1 -64400.1 -64362.4 -64325.2
          -64288.4 -64253.9 -64221.8 -64190 -64158.8 -64126.8 -64094.1 -64062 -64030.5 -63999.5 -63971.2 -63945.5
          -63920.1 -63895.1 -63869.1 -63842.2 -63815.7 -63789.6 -63764 -63738.8 -63714 -63689.2 -63664.2 -63639.8
          -63615.9 -63592.4 -63569.5 -63546.9 -63524.7 -63503.1 -63482.1 -63461.9 -63442.6 -63423.7 -63405.5 -63389.4
          -63375.4 -63361.8 -63348.5 -63334.6 -63320.1 -63306.1 -63292.8 -63280 -63267.9 -63255.9 -63244.2 -63233.2
          -63222.8 -63213.1 -63204.1 -63196 -63188.6 -63181.8 -63175.9 -63170.9 -63166.5 -63162.5 -63158.8 -63155.4
          -63152.9 -63151.3 -63150.5 -64269.1 -64267.4 -64266 -64264.8 -64263.8 -64263.1 -64262.5 -64262.3 -64269.2
          -64267.8 -64266.8 -64266.1 -64265.8 -65146.9 -65137.7 -65128.8 -65119 -65108.4 -65098.1 -65088 -65077.6
          -65067.1 -65056.8 -65046.9 -65037.4 -65028.9 -65021.4 -65014.1 -65006.6 -64998.8 -64991.2 -64984 -64977.2
          -64970.8 -64964.8 -64959.3 -64954 -64948.8 -64943.9 -64939.2 -64934.6 -64930.4 -64926.4 -64922.6 -64919
          -64915.5 -64911.9 -64908.7 -64905.6 -64902.8 -64900.4 -64898.3 -64896.5 -64895.2 -64894 -64893.2 -64892.7
          -64892.4 -66550.5 -66169.1 -65835.3 -65502.2 -65170 -64832.7 -64490.6 -64149.1 -63845.8 -63580.7 -63315.7
          -63028.5 -62719.5 -62410.8 -62254.5 -62250.5 -62246.6 -62242.9 -62239.6 -62236.7 -62233.9 -62231.2 -62228.6
          -62226 -62223.5 -62221.2 -62219.2 -62217.3 -62215.3 -62213.3 -62211.4 -62209.5 -62207.8 -62206.3 -62204.9
          -62203.4 -62201.9 -62200.4 -62199.1 -62197.8 -62196.7 -62195.5 -62194.5 -62193.6 -62192.9 -62192.3 -62191.9
          -62191.5 -62191.2 -62191 -62110.9 -61819.8 -61529.1 -61238.7 -60977.1 -60744.3 -60511.9 -60279.7 -60047.6
          -59831.6 -59631.5 -59431.7 -59232.3 -59033.3 -58834.5 -58645.5 -58466.5 -58287.7 -58109.2 -57931 -57753.3
          -57576 -57427.4 -57307.6 -57188.2 -57069.1 -56950.3 -56831.9 -56713.8 -56596 -56478.7 -56368.9 -56266.5
          -56164.5 -56062.9 -55961.3 -55859.7 -55758.6 -55657.9 -55557.8 -55458.1 -55359.1 -55265.4 -55177.3 -55089.6
          -55002.3 -54915.5 -54829.3 -54767 -54728.4 -54690.3 -54652.6 -54615.4 -54587.5 -54569 -54551 -54533.6
          -54516.9 -54500.7 -54485 -54469.9 -54455.3 -54441.2 -54427.7 -54414.7 -54402.7 -54391.5 -54380.8 -54370.8
          -54361.3 -54352.4 -54344 -54336.3 -54329 -54322.3 -54316.2 -54310.7 -54305.9 -54301.6 -54297.9 -54294.8
          -54292.3 -54290.4 -54288.9 -54287.9 -54287.5 -54594.8 -54590.7 -54586.9 -54583.3 -54579.9 -54576.7 -54573.6
          -54570.9 -54568.5 -54566.5 -54564.9 -54563.5 -54562.5 -54561.6 -54560.9 -54560.5 -54560.3 -54590.2 -54576.9
          -54563.9 -54551.2 -54537.2 -54522.1 -54507.2 -54492.4 -54477.9 -54463.6 -54449.6 -54436 -54422.6 -54410.2
          -54398.6 -54387.4 -54376.4 -54365.6 -54355.1 -54344.8 -54334.7 -54324.9 -54315.4 -54307.8 -54302.1 -54296.7
          -54291.6 -54286.9 -54282.7 -54278.7 -54275 -54271.7 -54268.7 -54265.9 -54263.5 -54261.3 -54259.4 -54257.6
          -54256.1 -54254.8 -54253.7 -54253 -54252.6 -54252.4 -54309.5 -54307.2 -54305.1 -54303.1 -54301.2 -54299.6
          -54298.1 -54297 -54296 -54295.1 -54294.5 -54293.9 -54293.6 -54293.5 -54767 -54728.5 -54694.2 -54663.9
          -54633.7 -54602.2 -54569.4 -54536.8 -54499.8 -54458.3 -54417 -54389.1 -54374.7 -54361.9 -54350.8 -54339.7
          -54328.8 -54317.8 -54306.7 -54294.5 -54281.1 -54268 -54255.3 -54243 -54231 -54219.2 -54208.6 -54199.2
          -54190 -54180.1 -54169.4 -54159.7 -54150.8 -54142.1 -54133.6 -54125.2 -54116.2 -54106.4 -54096.9 -54087.7
          -54078.7 -54070 -54061.5 -54053.3 -54045.2 -54037.1 -54029.4 -54022.4 -54016.2 -54010.1 -54004.1 -53998.5
          -53993.2 -53988.6 -53984.5 -53980.7 -53977.2 -53974 -53971.3 -53968.8 -53966.8 -53965.1 -53963.7 -53962.8
          -53962.2 -53961.8 -53961.6 -54384.6 -54361.1 -54337.8 -54314.6 -54292 -54269.9 -54248.8 -54228.6 -54208.7
          -54188.9 -54169.3 -54149.7 -54129.9 -54110.3 -54091 -54070 -54047.4 -54025.3 -54003.4 -53981.8 -53960.6
          -53940.2 -53920.6 -53901.5 -53883.9 -53867.9 -53852.3 -53835.3 -53817.2 -53799.6 -53782.4 -53765.6 -53749.4
          -53734.6 -53721.2 -53708.1 -53695.4 -53687.3 -53683.9 -53680.8 -53678.2 -53675.8 -53673.7 -53672 -53670.7
          -53669.7 -53669 -53668.7 -53685.1 -53677.1 -53669.4 -53662 -53655.7 -53650.5 -53645.5 -53640.7 -53636.1
          -53633 -53631.6 -53630.3 -53629.2 -53628.4 -53627.7 -53627.2 -53626.7 -53626.3 -53626.1 -53626 -53632.6
          -53630.3 -53628.1 -53625.8 -53623.4 -53621.3 -53619.6 -53618.3 -53617.4 -53616.8 -53616.3 -53616 -53615.9
          -53657.9 -53656.9 -53655.9 -53654.9 -53654.1 -53653.5 -53653 -53652.7 -53652.4 -53652.3 -55307.4 -55303.2
          -55299.1 -55295.3 -55291.6 -55288 -55284.5 -55281 -55277.7 -55274.4 -55271.2 -55268.1 -55265 -55262.2
          -55259.3 -55256.6 -55255 -55254.7 -55254.5 -55254.4 -55254.3 -55252.6 -55251.1 -55249.8 -55248.7 -55247.9
          -55247.3 -55246.9 -55246.7 -55306.6 -55300.6 -55295 -55289.7 -55284.8 -55280 -55275.3 -55270.7 -55266.6
          -55262.7 -55259 -55255.5 -55252 -55248.6 -55245.4 -55242.4 -55239.7 -55237.1 -55235.8 -55235.6 -55235.6
          -55235.1 -55233.6 -55232.1 -55230.6 -55229.1 -55227.7 -55226.5 -55225.5 -55224.8 -55224.2 -55223.7 -55223.5
          -55223.3 -55253.4 -55253 -55252.7 -55252.4 -55252.3 -56009.3 -56003.8 -55998.5 -55994 -55990 -55986.1
          -55982.1 -55978 -55974.1 -55970.2 -55966.5 -55962.8 -55959.2 -55955.9 -55952.4 -55949 -55945.9 -55943.1
          -55940.5 -55938.4 -55936.5 -55934.8 -55933.5 -55932.4 -55931.4 -55930.7 -55930.1 -55929.6 -55929.3 -55929.1
          -56417.6 -56412.7 -56407.9 -56403.3 -56398.4 -56393.2 -56388 -56383.1 -56378.5 -56373.9 -56369.4 -56365
          -56360.7 -56356.5 -56352.4 -56348.4 -56344.6 -56340.9 -56337.3 -56333.9 -56330.7 -56327.7 -56325 -56322.5
          -56320.2 -56318.1 -56316.2 -56314.5 -56312.7 -56310.9 -56309.4 -56308.2 -56307.2 -56306.5 -56306 -56305.7
          -57469.4 -57433.7 -57398.2 -57359.6 -57317.8 -57278.2 -57240.8 -57203.6 -57166.5 -57129.7 -57092.2 -57054
          -57016 -56978.2 -56941.8 -56906.9 -56872.2 -56837.6 -56811 -56792.5 -56774.2 -56756 -56738 -56720.2
          -56702.6 -56686.1 -56670.9 -56655.8 -56640.9 -56625.7 -56610.4 -56595.2 -56580.2 -56565.4 -56554.6 -56547.7
          -56540.9 -56534.4 -56528 -56521.8 -56515.8 -56511.4 -56508.8 -56506.3 -56504.1 -56502 -56500.3 -56498.9
          -56497.8 -56497 -56496.5 -56496.3 -56511.4 -56508.6 -56505.8 -56503 -56500.4 -56498.1 -56495.9 -56494
          -56492.4 -56491 -56489.8 -56488.8 -56488 -56487.4 -56487 -56486.9 -56554.8 -56548.2 -56541.8 -56535.5
          -56529.4 -56523 -56516.3 -56509.9 -56503.7 -56497.8 -56492.2 -56486.9 -56481.8 -56477 -56472.9 -56469.4
          -56466.3 -56463.4 -56460.8 -56458.4 -56456.2 -56454.3 -56452.9 -56451.8 -56451.1 -56450.7 -56812.1 -56795.7
          -56779.5 -56763.6 -56748.1 -56732.7 -56717.5 -56702.5 -56687.6 -56672.8 -56658.2 -56642.8 -56626.8 -56611
          -56595.4 -56580.5 -56566.2 -56552.2 -56538.3 -56524.7 -56510.9 -56497.1 -56483.5 -56470.6 -56458.3 -56446.3
          -56434.6 -56423 -56411.6 -56400.3 -56389.4 -56378.9 -56368.6 -56358.5 -56349.3 -56340.8 -56332.5 -56324.3
          -56316.1 -56307.9 -56299.9 -56292.3 -56285.2 -56278.2 -56271.6 -56264.3 -56256.6 -56249.3 -56242.3 -56235.6
          -56229.3 -56223.3 -56217.6 -56212.4 -56207.4 -56203 -56199.1 -56195.6 -56192.3 -56189.4 -56186.7 -56184.3
          -56182.3 -56180.6 -56179.2 -56178.2 -56177.4 -56176.8 -56176.6 -57479.2 -57463.1 -57447.3 -57431.6 -57418.8
          -57408.9 -57398.8 -57388.6 -57374.7 -57357.1 -57340.7 -57325.3 -57310 -57294.6 -57280 -57266.1 -57252.2
          -57238.5 -57224.9 -57211.3 -57197.9 -57185 -57172.7 -57160.5 -57152.2 -57147.8 -57143.7 -57140 -57136.8
          -57133.7 -57130.6 -57127.5 -57124.7 -57121.9 -57119.4 -57117.2 -57115.4 -57113.7 -57112.4 -57111.3 -57110.2
          -57109.4 -57108.7 -57108 -57107.5 -57107 -57106.7 -57106.6 -57150 -57141.1 -57132.3 -57122.3 -57111.1
          -57100.2 -57089.4 -57078.8 -57068.4 -57058.3 -57048.3 -57039.5 -57031.8 -57024.1 -57015.7 -57006.6 -56997.6
          -56989.1 -56981 -56973.1 -56965.4 -56958.2 -56951.6 -56945.1 -56938.7 -56932.4 -56926.1 -56919.7 -56913.2
          -56907.2 -56901.8 -56896.6 -56891.6 -56886.8 -56882.2 -56877.8 -56873.5 -56869.5 -56865.6 -56861.9 -56858.3
          -56854.8 -56851.4 -56848.2 -56845.1 -56842.1 -56839.1 -56836.4 -56834.2 -56832.3 -56830.7 -56829.3 -56828
          -56826.9 -56826 -56825.4 -56825 -56824.8 -57486.5 -57485 -57483.7 -57482.6 -57481.7 -57481 -57480.3
          -57479.7 -57479.2 -57478.8 -57478.5 -57478.4 -57478.3 -58723.8 -58701.4 -58679.3 -58657.4 -58635.8 -58617.6
          -58602.8 -58588.1 -58573.6 -58558.6 -58543 -58527.6 -58512.5 -58497.6 -58482.9 -58468.6 -58454.7 -58441.1
          -58427.8 -58414.7 -58401.8 -58389.3 -58378.4 -58369.3 -58360.5 -58352 -58343.7 -58335.8 -58328.2 -58320.8
          -58314.2 -58308.1 -58302.3 -58296.8 -58291.3 -58285.9 -58280.8 -58276 -58271.3 -58266.7 -58262.6 -58259.2
          -58256.5 -58253.9 -58251.3 -58248.5 -58245.9 -58243.5 -58241.4 -58239.8 -58238.2 -58236.7 -58235.3 -58234
          -58232.7 -58231.4 -58230.3 -58229.3 -58228.5 -58227.9 -58227.5 -58227.2 -58227.1 -58381.9 -58379.5 -58377.4
          -58375.5 -58373.8 -58372.2 -58370.7 -58369.5 -58368.4 -58367.4 -58366.5 -58365.7 -58364.9 -58364.3 -58363.7
          -58363.3 -58363 -58362.8 -58362.7 -58621.9 -58615.6 -58609.6 -58603.5 -58597.4 -58591.5 -58585.9 -58580.6
          -58575.8 -58571.1 -58566.2 -58561.4 -58556.8 -58552.6 -58548.9 -58545.8 -58542.8 -58540.2 -58538.1 -58536.4
          -58534.9 -58533.4 -58532 -58530.9 -58530.1 -58529.6 -59927.7 -59919.8 -59912.2 -59904.7 -59897.4 -59890.3
          -59883.5 -59877.1 -59870.7 -59864.7 -59859 -59853.5 -59847.8 -59842.1 -59836.6 -59831.1 -59826 -59821.2
          -59816.5 -59811.6 -59806.4 -59801.4 -59796 -59790.5 -59785.9 -59782.1 -59778 -59773.7 -59769.5 -59765.1
          -59760.6 -59756.2 -59751.9 -59747.7 -59743.6 -59740.1 -59737 -59734 -59731.3 -59728.8 -59726.2 -59723.4
          -59720.8 -59718.4 -59716.1 -59714 -59712.1 -59710.3 -59708.7 -59707.1 -59705.7 -59704.4 -59703.1 -59701.9
          -59700.9 -59700.1 -59699.5 -59699.1 -59698.8 -59698.7 -59924.9 -59911.6 -59898.5 -59885.8 -59873.2 -59861.5
          -59850.8 -59840.1 -59830.3 -59821.3 -59812.4 -59803.3 -59793.9 -59784.7 -59774.6 -59763.7 -59753.6 -59744.4
          -59735.3 -59726.9 -59719.1 -59711.4 -59704.1 -59697.1 -59690.6 -59684.6 -59679 -59673.9 -59668.9 -59663.8
          -59658.8 -59653.9 -59649.2 -59644.5 -59640 -59635.6 -59631.4 -59627.6 -59623.8 -59619.9 -59615.9 -59612.1
          -59608.4 -59604.9 -59601.6 -59598.4 -59595.3 -59592.2 -59589 -59586.1 -59583.3 -59580.7 -59578.2 -59576
          -59574 -59572.1 -59570.4 -59569 -59567.7 -59566.6 -59565.8 -59565 -59564.3 -59563.6 -59562.9 -59562.4
          -59562 -59561.7 -59561.6 -59693.1 -59691.9 -59691 -59690.1 -59689.3 -59688.7 -59688.2 -59687.9 -59687.6
          -59687.4 -59687.2 -59687.1 -59687 -59686.9 -59924.3 -59909.8 -59895.5 -59881.5 -59868.9 -59857.5 -59845.9
          -59834.2 -59822.7 -59811.6 -59801 -59791.9 -59784.3 -59776.2 -59767.5 -59759 -59749.5 -59739.2 -59728.9
          -59718.9 -59709.1 -59699.6 -59690.2 -59681 -59671.9 -59663 -59653.4 -59643.3 -59633.4 -59623.8 -59614.5
          -59605.6 -59599 -59594.7 -59590.7 -59587 -59583.6 -59580.6 -59577.8 -59575.3 -59573.1 -59571.4 -59570.1
          -59569 -59568.1 -59567.5 -59567.2 -59599.4 -59596.1 -59593.2 -59590.6 -59588.3 -59586.4 -59584.8 -59583.5
          -59582.5 -59581.8 -59581.5 -59929.6 -59925.6 -59921.9 -59918.6 -59915.5 -59912.5 -59909.9 -59907.5 -59905.2
          -59903 -59900.7 -59898.5 -59896.4 -59894.3 -59892.1 -59889.8 -59887.9 -59886.5 -59885.2 -59884 -59883.2
          -59882.8 -59882.5 -59882.4 -59882.3 -59882.9 -59882 -59881.2 -59880.6 -59880 -59879.5 -59879 -59878.6
          -59878.3 -59878 -59877.8 -59877.7 -59877.7 -59924.8 -59911.2 -59897.8 -59884.5 -59871.1 -59857.6 -59844.2
          -59831 -59821.4 -59815.4 -59809.5 -59803.7 -59798.2 -59792.8 -59787.6 -59782.6 -59777.8 -59773.2 -59768.8
          -59764.6 -59760.6 -59756.9 -59753.4 -59750.2 -59747 -59743.9 -59741.1 -59738.6 -59736.4 -59734.6 -59732.9
          -59731.5 -59730.2 -59729 -59728.1 -59727.4 -59727 -59726.8 -59820.9 -59814 -59807.2 -59800.5 -59794.1
          -59788 -59782 -59776.2 -59770 -59763.6 -59757.3 -59751.8 -59746.9 -59742.2 -59737.7 -59732.9 -59728.1
          -59723.5 -59719.2 -59715.1 -59711.3 -59708 -59704.8 -59701.8 -59698.9 -59696 -59693.5 -59691.3 -59689.5
          -59688 -59686.7 -59685.7 -59684.8 -59684.2 -59683.8 -59683.7 -61091 -61085.9 -61081 -61076.2 -61071.4
          -61066.7 -61062 -61057.3 -61052.8 -61048.3 -61043.9 -61039.6 -61035.2 -61031 -61026.7 -61022.3 -61018.2
          -61014.2 -61010.4 -61006.9 -61003.5 -61000.6 -60998.1 -60995.8 -60993.7 -60992 -60990.5 -60989.1 -60987.9
          -60986.9 -60986 -60985.3 -60984.7 -60984.3 -60984.1 -60994.4 -60994.1 -60993.7 -60993.4 -60993.1 -60993
          -60992.9 -62254.9 -62251.6 -62248.5 -62245.3 -62242.3 -62239.6 -62236.9 -62234.2 -62231.5 -62228.9 -62226.5
          -62224.7 -62223.4 -62221.9 -62220.2 -62218.8 -62217.7 -62216.8 -62216.1 -62215.7 -62215.5 -62251 -62239.8
          -62228.7 -62216.9 -62210.5 -62210.4 -62203.8 -62190.3 -62178.2 -62167.6 -62157 -62147.1 -62137.8 -62132.7
          -62131.8 -62130.9 -62130.1 -62129.5 -62129 -62128.6 -62128.1 -62127.6 -62127.2 -62126.9 -62126.7 -62126.5
          -62126.5 -62127.4 -62115.8 -62104.3 -62093.5 -62083.4 -62073.4 -62062.7 -62051.5 -62040.4 -62030.4 -62021.5
          -62012.8 -62004.1 -61995.6 -61986.9 -61978.1 -61969.5 -61961 -61955.8 -61953.8 -61952 -61950.3 -61948.9
          -61947.4 -61946.1 -61945.1 -61944.3 -61943.7 -61943.5 -61953.8 -61947.7 -61941.9 -61936.4 -61931.1 -61926.1
          -61921.4 -61916.8 -61912.6 -61908.6 -61904.8 -61901.3 -61898 -61895.6 -61894 -61892.6 -61891.5 -61890.5
          -61889.7 -61889 -61888.5 -61888.2 -61888.1 -61896 -61895.1 -61894.6 -61894.2 -61894 -62034.5 -62033.8
          -62033.2 -62032.6 -62032.1 -62031.7 -62031.4 -62031.2 -62031.1 -63178.1 -63168.1 -63158.4 -63148.9 -63139.6
          -63132 -63126.3 -63122.4 -63120.3 -63118 -63115.5 -63113.2 -63110.8 -63108.8 -63107.3 -63106.1 -63105.1
          -63104.3 -63103.8 -63103.5 -63109.2 -63108.7 -63108.3 -63108 -63107.8 -63107.7 -63122.7 -63121.3 -63120.1
          -63119 -63117.9 -63116.7 -63115.7 -63114.9 -63114.2 -63113.5 -63113 -63112.5 -63112.2 -63112 -63133.1
          -63129.5 -63126 -63122.5 -63119.5 -63117.1 -63114.9 -63112.9 -63110.8 -63108.8 -63106.9 -63105.1 -63103.9
          -63103 -63102 -63100.9 -63100 -63099.1 -63098.5 -63098 -63097.5 -63097.2 -63097 -63096.9 -63096.8
          -63179 -63170.7 -63162.5 -63154.5 -63145.8 -63137.3 -63130 -63123.9 -63118.8 -63113.8 -63108.7 -63103
          -63096.8 -63091.4 -63086.9 -63081.6 -63075.6 -63069.7 -63064.1 -63058.7 -63053.4 -63048.6 -63044.3 -63040.2
          -63036.3 -63032.6 -63029.3 -63026.1 -63022.9 -63020 -63017.3 -63014.8 -63012.5 -63010.5 -63008.7 -63007.1
          -63005.4 -63003.6 -63002 -63000.6 -62999.3 -62998.2 -62997.4 -62996.8 -62996.4 -62996.2 -63093 -63091.8
          -63090.7 -63089.8 -63089 -63088.3 -63087.7 -63087.2 -63086.8 -63086.6 -63086.4 -63176.8 -63164.2 -63151.8
          -63139.7 -63127.8 -63116.7 -63106.4 -63096.1 -63084.9 -63072.7 -63060.7 -63048.9 -63037.4 -63026.1 -63014.5
          -63002.6 -62991 -62979.8 -62970.3 -62962.8 -62955.4 -62947.2 -62938.3 -62929.7 -62921.5 -62913.7 -62907
          -62901.5 -62896.2 -62890.2 -62883.7 -62877.5 -62871.8 -62866.6 -62861.9 -62857.8 -62854 -62850.5 -62847.4
          -62844.7 -62842.5 -62840.5 -62838.5 -62836.6 -62834.9 -62833.4 -62832.1 -62830.9 -62829.7 -62828.7 -62827.9
          -62827.3 -62826.9 -62826.6 -62826.6 -65001.8 -64997.4 -64993.5 -64989.8 -64986.3 -64983.1 -64980.3 -64977.6
          -64975.1 -64972.9 -64970.8 -64968.9 -64967.1 -64965.5 -64964.2 -64963 -64961.9 -64961.1 -64960.3 -64959.7
          -64959.2 -64958.9 -64958.7 -64976 -64975.6 -64975.2 -64974.8 -64974.6 -64974.4 -64974.4
        </DataArray>
        <DataArray type="Float32" Name="process rank" NumberOfComponents="1" format="ascii">
          0 0 0 0 0 0 0 0 0 0 0 0
          0 0 0 0 0 0 0 0 0 0 0 0
          0 0 0 0 0 0 0 0 0 0 0 0
          0 0 0 0 0 0 0 0 0 0 0 0
          0 0 0 0 0 0 0 0 0 0 0 0
          0 0 0 0 0 0 0 0 0 0 0 0
          0 0 0 0 0 0 0 0 0 0 0 0
          0 0 0 0 0 0 0 0 0 0 0 0
          0 0 0 0 0 0 0 0 0 0 0 0
          0 0 0 0 0 0 0 0 0 0 0 0
          0 0 0 0 0 0 0 0 0 0 0 0
          0 0 0 0 0 0 0 0 0 0 0 0
          0 0 0 0 0 0 0 0 0 0 0 0
          0 0 0 0 0 0 0 0 0 0 0 0
          0 0 0 0 0 0 0 0 0 0 0 0
          0 0 0 0 0 0 0 0 0 0 0 0
          0 0 0 0 0 0 0 0 0 0 0 0
          0 0 0 0 0 0 0 0 0 0 0 0
          0 0 0 0 0 0 0 0 0 0 0 0
          0 0 0 0 0 0 0 0 0 0 0 0
          0 0 0 0 0 0 0 0 0 0 0 0
          0 0 0 0 0 0 0 0 0 0 0 0
          0 0 0 0 0 0 0 0 0 0 0 0
          0 0 0 0 0 0 0 0 0 0 0 0
          0 0 0 0 0 0 0 0 0 0 0 0
          0 0 0 0 0 0 0 0 0 0 0 0
          0 0 0 0 0 0 0 0 0 0 0 0
          0 0 0 0 0 0 0 0 0 0 0 0
          0 0 0 0 0 0 0 0 0 0 0 0
          0 0 0 0 0 0 0 0 0 0 0 0
          0 0 0 0 0 0 0 0 0 0 0 0
          0 0 0 0 0 0 0 0 0 0 0 0
          0 0 0 0 0 0 0 0 0 0 0 0
          0 0 0 0 0 0 0 0 0 0 0 0
          0 0 0 0 0 0 0 0 0 0 0 0
          0 0 0 0 0 0 0 0 0 0 0 0
          0 0 0 0 0 0 0 0 0 0 0 0
          0 0 0 0 0 0 0 0 0 0 0 0
          0 0 0 0 0 0 0 0 0 0 0 0
          0 0 0 0 0 0 0 0 0 0 0 0
          0 0 0 0 0 0 0 0 0 0 0 0
          0 0 0 0 0 0 0 0 0 0 0 0
          0 0 0 0 0 0 0 0 0 0 0 0
          0 0 0 0 0 0 0 0 0 0 0 0
          0 0 0 0 0 0 0 0 0 0 0 0
          0 0 0 0 0 0 0 0 0 0 0 0
          0 0 0 0 0 0 0 0 0 0 0 0
          0 0 0 0 0 0 0 0 0 0 0 0
          0 0 0 0 0 0 0 0 0 0 0 0
          0 0 0 0 0 0 0 0 0 0 0 0
          0 0 0 0 0 0 0 0 0 0 0 0
          0 0 0 0 0 0 0 0 0 0 0 0
          0 0 0 0 0 0 0 0 0 0 0 0
          0 0 0 0 0 0 0 0 0 0 0 0
          0 0 0 0 0 0 0 0 0 0 0 0
          0 0 0 0 0 0 0 0 0 0 0 0
          0 0 0 0 0 0 0 0 0 0 0 0
          0 0 0 0 0 0 0 0 0 0 0 0
          0 0 0 0 0 0 0 0 0 0 0 0
          0 0 0 0 0 0 0 0 0 0 0 0
          0 0 0 0 0 0 0 0 0 0 0 0
          0 0 0 0 0 0 0 0 0 0 0 0
          0 0 0 0 0 0 0 0 0 0 0 0
          0 0 0 0 0 0 0 0 0 0 0 0
          0 0 0 0 0 0 0 0 0 0 0 0
          0 0 0 0 0 0 0 0 0 0 0 0
          0 0 0 0 0 0 0 0 0 0 0 0
          0 0 0 0 0 0 0 0 0 0 0 0
          0 0 0 0 0 0 0 0 0 0 0 0
          0 0 0 0 0 0 0 0 0 0 0 0
          0 0 0 0 0 0 0 0 0 0 0 0
          0 0 0 0 0 0 0 0 0 0 0 0
          0 0 0 0 0 0 0 0 0 0 0 0
          0 0 0 0 0 0 0 0 0 0 0 0
          0 0 0 0 0 0 0 0 0 0 0 0
          0 0 0 0 0 0 0 0 0 0 0 0
          0 0 0 0 0 0 0 0 0 0 0 0
          0 0 0 0 0 0 0 0 0 0 0 0
          0 0 0 0 0 0 0 0 0 0 0 0
          0 0 0 0 0 0 0 0 0 0 0 0
          0 0 0 0 0 0 0 0 0 0 0 0
          0 0 0 0 0 0 0 0 0 0 0 0
          0 0 0 0 0 0 0 0 0 0 0 0
          0 0 0 0 0 0 0 0 0 0 0 0
          0 0 0 0 0 0 0 0 0 0 0 0
          0 0 0 0 0 0 0 0 0 0 0 0
          0 0 0 0 0 0 0 0 0 0 0 0
          0 0 0 0 0 0 0 0 0 0 0 0
          0 0 0 0 0 0 0 0 0 0 0 0
          0 0 0 0 0 0 0 0 0 0 0 0
          0 0 0 0 0 0 0 0 0 0 0 0
          0 0 0 0 0 0 0 0 0 0 0 0
          0 0 0 0 0 0 0 0 0 0 0 0
          0 0 0 0 0 0 0 0 0 0 0 0
          0 0 0 0 0 0 0 0 0 0 0 0
          0 0 0 0 0 0 0 0 0 0 0 0
          0 0 0 0 0 0 0 0 0 0 0 0
          0 0 0 0 0 0 0 0 0 0 0 0
          0 0 0 0 0 0 0 0 0 0 0 0
          0 0 0 0 0 0 0 0 0 0 0 0
          0 0 0 0 0 0 0 0 0 0 0 0
          0 0 0 0 0 0 0 0 0 0 0 0
          0 0 0 0 0 0 0 0 0 0 0 0
          0 0 0 0 0 0 0 0 0 0 0 0
          0 0 0 0 0 0 0 0 0 0 0 0
          0 0 0 0 0 0 0 0 0 0 0 0
          0 0 0 0 0 0 0 0 0 0 0 0
          0 0 0 0 0 0 0 0 0 0 0 0
          0 0 0 0 0 0 0 0 0 0 0 0
          0 0 0 0 0 0 0 0 0 0 0 0
          0 0 0 0 0 0 0 0 0 0 0 0
          0 0 0 0 0 0 0 0 0 0 0 0
          0 0 0 0 0 0 0 0 0 0 0 0
          0 0 0 0 0 0 0 0 0 0 0 0
          0 0 0 0 0 0 0 0 0 0 0 0
          0 0 0 0 0 0 0 0 0 0 0 0
          0 0 0 0 0 0 0 0 0 0 0 0
          0 0 0 0 0 0 0 0 0 0 0 0
          0 0 0 0 0 0 0 0 0 0 0 0
          0 0 0 0 0 0 0 0 0 0 0 0
          0 0 0 0 0 0 0 0 0 0 0 0
          0 0 0 0 0 0 0 0 0 0 0 0
          0 0 0 0 0 0 0 0 0 0 0 0
          0 0 0 0 0 0 0 0 0 0 0 0
          0 0 0 0 0 0 0 0 0 0 0 0
          0 0 0 0 0 0 0 0 0 0 0 0
          0 0 0 0 0 0 0 0 0 0 0 0
          0 0 0 0 0 0 0 0 0 0 0 0
          0 0 0 0 0 0 0 0 0 0 0 0
          0 0 0 0 0 0 0 0 0 0 0 0
          0 0 0 0 0 0 0 0 0 0 0 0
          0 0 0 0 0 0 0 0 0 0 0 0
          0 0 0 0 0 0 0 0 0 0 0 0
          0 0 0 0 0 0 0 0 0 0 0 0
          0 0 0 0 0 0 0 0 0 0 0 0
          0 0 0 0 0 0 0 0 0 0 0 0
          0 0 0 0 0 0 0 0 0 0 0 0
          0 0 0 0 0 0 0 0 0 0 0 0
          0 0 0 0 0 0 0 0 0 0 0 0
          0 0 0 0 0 0 0 0 0 0 0 0
          0 0 0 0 0 0 0 0 0 0 0 0
          0 0 0 0 0 0 0 0 0 0 0 0
          0 0 0 0 0 0 0 0 0 0 0 0
          0 0 0 0 0 0 0 0 0 0 0 0
          0 0 0 0 0 0 0 0 0 0
        </DataArray>
        <DataArray type="Float32" Name="radius" NumberOfComponents="1" format="ascii">
          0.00260394 0.00154962 0.00154873 0.00136845 0.00118638 0.00100427 0.000816686 0.000719673 0.000720283 0.000720044 0.000727354 0.000719586
          0.000720323 0.000719579 0.000720221 0.000720481 0.000719106 0.000709577 0.000720239 0.000719528 0.000719656 0.000647453 0.000719506 0.000719578
          0.000721179 0.000719506 0.000696174 0.000720353 0.000720423 0.00071927 0.000822827 0.000719939 0.000719987 0.000720046 0.000719515 0.000697491
          0.000720521 0.000720276 0.000719532 0.000719904 0.000720792 0.000719233 0.000720587 0.000719446 0.000719971 0.00072072 0.000719321 0.000719971
          0.000725282 0.000720795 0.000719188 0.000720519 0.000776825 0.000720001 0.000720292 0.000720281 0.000719334 0.000614405 0.000720145 0.000720218
          0.000719148 0.00080253 0.00071897 0.000721173 0.000719034 0.000720538 0.000719764 0.000720266 0.000754802 0.000719534 0.000719465 0.000720844
          0.000719541 0.000720181 0.000729334 0.000719498 0.000720068 0.000720542 0.000702819 0.000719814 0.000720442 0.000719876 0.000580535 0.000719956
          0.000719179 0.000720288 0.000849506 0.000719706 0.000720556 0.000719754 0.000719298 0.000720738 0.000770053 0.000719806 0.000720531 0.000719094
          0.000720438 0.000695426 0.000719176 0.000720613 0.000719392 0.000633354 0.000720189 0.000719556 0.000719452 0.000896787 0.000718897 0.000719978
          0.000720029 0.00072087 0.000649868 0.000690107 0.0006282 0.000565397 0.000548398 0.000462975 0.000449069 0.000435232 0.000415644 0.000688818
          0.00062423 0.000558515 0.00051209 0.000484931 0.000691255 0.000624471 0.000686155 0.000526603 0.000529449 0.000533075 0.000593284 0.000548311
          0.00056734 0.000586763 0.000605107 0.000525847 0.000608026 0.000551178 0.000576325 0.000462357 0.000452615 0.000442178 0.000416637 0.00041697
          0.00036617 0.000384326 0.000379452 0.000374521 0.000373124 0.000368614 0.000368609 0.000357655 0.000371748 0.000373268 0.000375758 0.000427466
          0.000388807 0.000408251 0.000457316 0.000436883 0.000434549 0.000430789 0.000394114 0.00042052 0.000408594 0.000396568 0.000385903 0.000374346
          0.000326725 0.00152308 0.00190109 0.00184854 0.00180003 0.00183639 0.00172241 0.00172969 0.00134989 0.00173149 0.00172032 0.0022359
          0.0016728 0.00160326 0.00151661 0.00142421 0.00117001 0.000912219 0.000528815 0.000500003 0.000476716 0.000453559 0.000440578 0.000435816
          0.000471956 0.000446833 0.000501337 0.000455435 0.00045475 0.000375833 0.000356612 0.000339208 0.00028002 0.000317057 0.000329636 0.000389876
          0.000356254 0.000374939 0.000401271 0.000393527 0.000374734 0.00039082 0.000350595 0.000359175 0.000280038 0.000378873 0.000389457 0.000534874
          0.000397751 0.000382512 0.000357081 0.00148662 0.00146233 0.00144196 0.00116372 0.00145033 0.00153093 0.00161243 0.00169007 0.00194623
          0.00181843 0.0018418 0.00187012 0.00189592 0.00192434 0.00200175 0.00193908 0.00187847 0.00181715 0.00176038 0.00169725 0.00164381
          0.0016163 0.00155119 0.00155123 0.00155656 0.00155363 0.00155837 0.00155891 0.00156052 0.00156421 0.00145348 0.00158797 0.00161843
          0.00165792 0.00180712 0.00169175 0.00165038 0.0016108 0.00157263 0.00152994 0.00149309 0.00148346 0.00141161 0.00137174 0.00132757
          0.00128652 0.0012466 0.00110846 0.00119246 0.0012067 0.00122661 0.00124626 0.00139172 0.00126377 0.00124184 0.0012272 0.00120656
          0.00119064 0.00116893 0.0011542 0.00113468 0.00111412 0.00109934 0.00107884 0.00101501 0.00104389 0.00102363 0.0010063 0.000987855
          0.000970745 0.000951412 0.000934171 0.000951987 0.000893093 0.000865715 0.000840869 0.000812656 0.000786142 0.000761182 0.000693883 0.000720401
          0.000720355 0.000719785 0.00071953 0.000720484 0.000657643 0.00120758 0.00102044 0.000863464 0.000687636 0.000664482 0.00060673 0.000652814
          0.000661727 0.000721181 0.000724457 0.000728065 0.000699043 0.000636509 0.000675803 0.000511678 0.000444854 0.000345014 0.0012083 0.000999363
          0.000794308 0.000719765 0.000478312 0.000493422 0.000513709 0.000512513 0.000507391 0.000504123 0.000499015 0.00049592 0.000444786 0.000483399
          0.000471941 0.000459631 0.000448786 0.000440216 0.000433561 0.000438759 0.000443324 0.000448802 0.000434702 0.000467371 0.000490222 0.000512256
          0.000510146 0.00054677 0.000552991 0.000556293 0.00056131 0.000572282 0.000549768 0.000511487 0.000473503 0.000435838 0.000446403 0.000378749
          0.000378309 0.000378022 0.000388482 0.000350687 0.000293751 0.000219324 0.00044903 0.000434936 0.000442091 0.000416777 0.000427832 0.000408597
          0.000431119 0.000412307 0.000393386 0.000408728 0.00036011 0.000350748 0.00034199 0.000324844 0.00107975 0.000532145 0.000439591 0.000459853
          0.00052523 0.000472024 0.000436016 0.000511725 0.00040829 0.000464407 0.000510991 0.000507751 0.00033413 0.00037464 0.000361636 0.000347845
          0.000344303 0.000385347 0.00061749 0.000537079 0.000524888 0.000496659 0.000505225 0.000496837 0.000491369 0.000396974 0.000476861 0.000469828
          0.000557954 0.000455158 0.000390046 0.000440503 0.000426519 0.000414479 0.000400916 0.000475761 0.000378848 0.000372338 0.000362814 0.000371777
          0.000390169 0.000408789 0.000426184 0.000478717 0.000458031 0.000467164 0.000419296 0.000501516 0.000605038 0.000549576 0.000521072 0.000490056
          0.00041227 0.000452345 0.000466566 0.000480659 0.000494882 0.000506286 0.000523001 0.000537444 0.000553313 0.000544043 0.000541016 0.000468827
          0.000397094 0.000325911 0.000228658 0.000540507 0.000526863 0.000513856 0.000484273 0.000522614 0.000536206 0.000607838 0.000611854 0.000618567
          0.00062322 0.000648352 0.00064337 0.000663932 0.00068733 0.000856644 0.000719353 0.000720475 0.000727512 0.000720245 0.000720127 0.000694365
          0.000719358 0.000720983 0.000620844 0.000720089 0.000719337 0.000876025 0.000720027 0.000719719 0.000720642 0.000719413 0.000720333 0.000623273
          0.000721342 0.00071898 0.000719984 0.000737181 0.000710523 0.000692788 0.000672258 0.00068836 0.000634765 0.000616383 0.000622195 0.000573119
          0.000545024 0.000514808 0.000462779 0.000694764 0.000643003 0.000590295 0.000529809 0.000500353 0.000479074 0.000459907 0.000439255 0.000449894
          0.000399458 0.00038016 0.000360807 0.000281435 0.000320019 0.00029519 0.000343423 0.00024574 0.000218545 0.000192552 0.000149497 0.000413415
          0.000419432 0.000589494 0.000438561 0.000453433 0.000468964 0.0003654 0.000479421 0.00045727 0.000434532 0.000454827 0.000333226 0.000168755
          0.000496222 0.000615157 0.000465778 0.000380028 0.00028986 0.000320341 0.000361224 0.000283589 0.000256031 0.00022287 0.00135963 0.00103336
          0.00070269 0.000495948 0.000453531 0.000412 0.000369092 0.000331665 0.000352437 0.000442394 0.000587856 0.000537757 0.000459103 0.000428129
          0.000363246 0.000313145 0.000408549 0.000362384 0.000316063 0.000270259 0.000422357 0.000406316 0.000389813 0.000372505 0.000356287 0.000339751
          0.000322316 0.000306079 0.000263178 0.00134236 0.00098502 0.000587189 0.000423288 0.000423557 0.000423756 0.000423557 0.000378885 0.000422954
          0.000420256 0.000418537 0.000509377 0.000411462 0.000404703 0.000398624 0.000369241 0.0003759 0.000279688 0.000326541 0.000307108 0.000288815
          0.000332849 0.000329166 0.000427385 0.000332119 0.0003514 0.000369464 0.00037086 0.000391754 0.000379852 0.000367454 0.000355665 0.0003433
          0.000330807 0.000404529 0.000382252 0.000360901 0.0003393 0.000313479 0.00164225 0.00119411 0.000598898 0.000475512 0.000475794 0.000533978
          0.000482173 0.000489778 0.000499023 0.000534744 0.000505788 0.000497556 0.000488051 0.000554297 0.000475553 0.000478625 0.000480695 0.000448324