<?xml version="1.0"?>
<VTKFile type="UnstructuredGrid" version="0.1" byte_order="LittleEndian">
  <UnstructuredGrid>
    <Piece NumberOfCells="5448" NumberOfPoints="5705">
      <CellData Scalars="S_aq">
        <DataArray type="Float32" Name="S_aq" NumberOfComponents="1" format="ascii">
          1 1 1 1 1 1 1 1 1 1 1 1
          1 1 1 1 1 1 1 1 1 1 1 1
          1 1 1 1 1 1 1 1 1 1 1 1
          1 1 1 1 1 1 1 1 1 1 1 1
          1 1 1 1 1 1 1 1 1 1 1 1
          1 1 1 1 1 1 1 1 1 1 1 1
          1 1 1 1 1 1 1 1 1 1 1 1
          1 1 1 1 1 1 1 1 1 1 1 1
          1 1 1 1 1 1 1 1 1 1 1 1
          1 1 1 1 1 1 1 1 1 1 1 1
          1 1 1 1 1 1 1 1 1 1 1 1
          1 1 1 1 1 1 1 1 1 1 1 1
          1 1 1 1 1 1 1 1 1 1 1 1
          1 1 1 1 1 1 1 1 1 1 1 1
          1 1 1 1 1 1 1 1 1 1 1 1
          1 1 1 1 1 1 1 1 1 1 1 1
          1 1 1 1 1 1 1 1 1 1 1 1
          1 1 1 1 1 1 1 1 1 1 1 1
          1 1 1 1 1 1 1 1 1 1 1 1
          1 1 1 1 1 1 1 1 1 1 1 1
          1 1 1 1 1 1 1 1 1 1 1 1
          1 1 1 1 1 1 1 1 1 1 1 1
          1 1 1 1 1 1 1 1 1 1 1 1
          1 1 1 1 1 1 1 1 1 1 1 1
          1 1 1 1 1 1 1 1 1 1 1 1
          1 1 1 1 1 1 1 1 1 1 1 1
          1 1 1 1 1 1 1 1 1 1 1 1
          1 1 1 1 1 1 1 1 1 1 1 1
          1 1 1 1 1 1 1 1 1 1 1 1
          1 1 1 1 1 1 1 1 1 1 1 1
          1 1 1 1 1 1 1 1 1 1 1 1
          1 1 1 1 1 1 1 1 1 1 1 1
          1 1 1 1 1 1 1 1 1 1 1 1
          1 1 1 1 1 1 1 1 1 1 1 1
          1 1 1 1 1 1 1 1 1 1 1 1
          1 1 1 1 1 1 1 1 1 1 1 1
          1 1 1 1 1 1 1 1 1 1 1 1
          1 1 1 1 1 1 1 1 1 1 1 1
          1 1 1 1 1 1 1 1 1 1 1 1
          1 1 1 1 1 1 1 1 1 1 1 1
          1 1 1 0.999996 0.999996 1 1 0.999999 0.999999 1 1 1
          1 1 1 1 1 1 1 1 1 1 0.999989 0.99999
          0.999396 0.999389 0.999151 0.999189 0.9999 0.9999 0.99988 0.999881 0.999799 0.999799 0.99972 0.999725
          0.999598 0.999597 0.999453 0.99946 0.99792 0.997889 0.997087 0.997166 0.998473 0.998435 0.997844 0.997964
          1 1 1 1 1 1 1 1 1 1 1 1
          1 1 1 1 1 1 1 1 1 1 1 1
          1 1 1 1 1 1 1 1 1 1 1 1
          1 1 1 1 1 1 1 1 1 1 1 1
          1 1 1 1 1 1 1 1 1 1 1 1
          1 1 1 1 1 1 1 1 0.999998 0.999998 1 1
          1 1 1 0.999697 0.999698 0.999585 0.999578 0.999899 0.9999 0.999869 0.999864 0.998933
          0.998983 0.998666 0.998504 0.998091 0.998126 0.997449 0.997349 1 1 0.999999 0.999999 1
          1 1 1 0.999999 0.999786 0.999799 0.999755 0.999713 1 1 1 1
          1 1 1 1 1 1 1 1 1 1 1 1
          1 1 1 1 1 1 1 1 1 1 1 1
          1 1 1 1 1 1 1 1 1 1 1 1
          1 1 1 1 1 1 1 1 1 1 1 1
          1 1 1 1 1 1 1 1 1 1 1 1
          1 1 1 1 1 1 1 1 1 0.999991 0.999993 1
          1 1 1 1 0.9999 0.9999 0.999885 0.999886 0.999295 0.999283 0.998998 0.99906
          1 1 0.999998 0.999998 0.999192 0.999177 0.998825 0.998901 0.997431 0.997285 0.996262 0.996602
          0.993916 0.993329 0.99133 0.992273 0.996927 0.996694 0.995535 0.996015 0.995669 0.995405 0.993854 0.994326
          0.994516 0.994369 0.992575 0.992815 0.989107 0.988775 0.986045 0.986438 0.991022 0.990304 0.987675 0.988636
          0.999699 0.999697 0.999572 0.999593 0.997242 0.99703 0.995971 0.996422 0.993796 0.993048 0.991151 0.992362
          0.998179 0.998075 0.997374 0.997647 0.993289 0.992504 0.990392 0.991644 0.988625 0.987331 0.984635 0.986233
          0.982211 0.980416 0.977514 0.979528 0.988043 0.986409 0.983795 0.985804 0.984496 0.983378 0.980459 0.981739
          0.982174 0.981757 0.978784 0.979229 0.975089 0.974655 0.971651 0.972072 0.977614 0.976261 0.973229 0.97468
          1 1 1 1 1 1 1 1 1 0.999497 0.999437 0.999173
          0.999328 0.997678 0.997466 0.996665 0.997061 1 1 0.999995 0.999999 1 1 1
          1 1 1 1 1 1 1 1 0.9998 0.999661 0.999462 0.999728
          0.994762 0.994038 0.992618 0.993762 0.991088 0.989442 0.987541 0.989648 0.998488 0.998146 0.997655 0.998074
          0.995401 0.994861 0.993436 0.99434 0.989058 0.987356 0.984963 0.987105 0.983552 0.981094 0.978505 0.981324
          0.9915 0.99016 0.988053 0.989897 0.981978 0.979723 0.976939 0.979478 0.97557 0.973449 0.970494 0.972758
          0.968929 0.966608 0.963682 0.966093 0.975707 0.973015 0.970182 0.973072 0.970683 0.969203 0.966206 0.967732
          0.968143 0.967767 0.964857 0.965187 0.96151 0.961256 0.958524 0.958697 0.963932 0.962416 0.959535 0.961052
          0.986659 0.9844 0.982085 0.984804 0.977772 0.974731 0.972063 0.975379 0.971882 0.96841 0.965692 0.969383
          0.981518 0.978474 0.976029 0.979462 0.969401 0.966415 0.96359 0.966718 0.962417 0.959982 0.957123 0.95961
          0.956089 0.953601 0.950769 0.953279 0.963164 0.959971 0.957137 0.960438 0.957484 0.956009 0.953222 0.95467
          0.955309 0.955247 0.95269 0.952625 0.949468 0.949697 0.947349 0.946931 0.951261 0.94988 0.947192 0.948503
          1 1 1 1 1 1 1 1 1 1 1 1
          1 1 1 1 1 1 1 1 1 1 1 1
          1 1 1 0.999954 0.999901 1 1 0.999653 0.999522 1 1 0.996009
          0.995545 0.994549 0.995324 0.986659 0.984192 0.982111 0.985091 0.982158 0.978777 0.976552 0.980421 0.993207
          0.991988 0.990582 0.992359 1 1 1 1 1 1 0.999181 0.999025 1
          0.9999 0.99863 0.998471 0.999899 1 1 1 1 0.990084 0.987671 0.9861 0.989105
          0.977473 0.973222 0.970843 0.975591 0.972577 0.967419 0.964729 0.970436 0.986804 0.983221 0.981465 0.985736
          0.976188 0.972496 0.969955 0.973978 0.96593 0.962115 0.959345 0.963344 0.959903 0.955791 0.952904 0.957188
          0.970697 0.966453 0.963804 0.968352 0.956939 0.95359 0.950723 0.954158 0.949829 0.947341 0.944517 0.946998
          0.94358 0.941153 0.938289 0.940665 0.950665 0.947195 0.944227 0.947764 0.945231 0.944033 0.941437 0.942512
          0.94402 0.944674 0.942577 0.941649 0.939002 0.94027 0.938512 0.936849 0.939341 0.938443 0.935958 0.936648
          0.96503 0.960262 0.957406 0.962483 0.953656 0.949258 0.946154 0.950716 0.946944 0.942272 0.938803 0.943622
          0.958969 0.953649 0.950421 0.956067 0.944171 0.940618 0.937474 0.94106 0.93719 0.934922 0.932013 0.93415
          0.930585 0.928662 0.925742 0.927395 0.93725 0.933694 0.930293 0.93381 0.933572 0.933164 0.930864 0.930937
          0.934547 0.936688 0.935414 0.932729 0.930929 0.934265 0.933706 0.929649 0.928019 0.928383 0.926421 0.925541
          1 1 1 1 1 1 1 1 0.9998 0.998116 0.997971 0.9998
          0.9998 0.997696 0.997593 0.999801 1 1 1 1 0.983415 0.978479 0.976369 0.982164
          0.967128 0.960938 0.957721 0.964549 0.960644 0.953227 0.949023 0.957202 0.979606 0.972918 0.970128 0.978056
          1 1 1 0.99745 0.997473 1 1 0.997636 0.998776 1 1 0.974962
          0.965594 0.961115 0.972594 0.951982 0.943124 0.937056 0.946662 0.938408 0.928477 0.919145 0.928648 0.967578
          0.95346 0.943419 0.960997 0.952125 0.946215 0.9424 0.948648 0.939399 0.9345 0.930509 0.935499 0.930582
          0.92561 0.920955 0.925842 0.943963 0.937454 0.932688 0.939487 0.929645 0.92626 0.922587 0.925783 0.923743
          0.922486 0.919716 0.920477 0.916904 0.916815 0.914556 0.913834 0.921203 0.918353 0.91455 0.916914 0.92294
          0.92447 0.923133 0.920857 0.928626 0.933518 0.933959 0.928194 0.928321 0.935051 0.936746 0.929098 0.918916
          0.922088 0.921783 0.917638 0.933468 0.926542 0.92039 0.927322 0.919965 0.915387 0.910169 0.91421 0.907456
          0.904373 0.899593 0.901377 0.919181 0.912691 0.9053 0.910816 0.912046 0.91042 0.907013 0.907688 0.910782
          0.91251 0.91136 0.908521 0.906776 0.910855 0.911374 0.906079 0.903239 0.903779 0.901707 0.899862 0.91687
          0.92211 0.92325 0.916922 0.930751 0.939345 0.942377 0.933031 0.936448 0.946477 0.950502 0.940194 0.917865
          0.925338 0.928132 0.919643 0.994722 0.994913 0.993307 0.992999 0.996353 0.996731 0.995772 0.995078 0.992079
          0.993107 0.991268 0.989789 0.98933 0.989746 0.987179 0.986647 0.998586 0.998781 0.998488 0.998047 0.999878
          0.9999 0.999886 0.999841 0.999092 0.999294 0.999175 0.998792 0.995972 0.996765 0.996049 0.994776 1
          1 1 1 1 1 0.999994 1 0.999999 0.99999 0.982468 0.983112 0.980315
          0.97954 0.98597 0.987689 0.985405 0.983358 0.97965 0.981958 0.979639 0.977017 0.975507 0.976394 0.973594
          0.972569 0.992214 0.993973 0.992815 0.990403 0.997284 0.997959 0.997683 0.996656 0.995057 0.99644 0.996019
          0.994222 0.987381 0.990351 0.988805 0.985386 0.999729 0.9998 0.999787 0.999681 1 1 1
          1 0.999994 1 1 0.999993 0.999055 0.999297 0.999266 0.998928 1 1 1
          1 1 1 1 1 1 0.968813 0.969971 0.967327 0.966006 0.973609 0.976478
          0.974332 0.971156 0.968163 0.971606 0.969768 0.966002 0.962583 0.964071 0.961678 0.95999 0.982541 0.986255
          0.984848 0.980714 0.992601 0.994782 0.994337 0.991736 0.990272 0.993306 0.992937 0.989521 0.978357 0.982815
          0.981704 0.97685 0.99825 0.998784 0.998723 0.998058 0.99988 0.9999 0.9999 0.999877 0.999846 0.9999
          0.999899 0.99984 0.997353 0.998168 0.998109 0.997184 0.956937 0.958841 0.956737 0.954576 0.963484 0.967559
          0.96613 0.961689 0.959707 0.964519 0.9636 0.958371 0.951881 0.95433 0.952588 0.949806 0.975044 0.980211
          0.979475 0.973966 0.988442 0.992181 0.991959 0.987989 0.98742 0.991552 0.991526 0.987332 0.972789 0.978574
          0.97831 0.972248 0.996715 0.997749 0.997714 0.996617 0.999714 0.9998 0.999798 0.999709 0.999597 0.9997
          0.999701 0.999599 0.99639 0.997538 0.997536 0.996385 1 1 1 1 1 1
          1 1 1 1 1 1 1 1 1 1 1 1
          0.999999 1 1 0.999999 1 1 1 1 1 1 1 1
          1 1 1 1 1 1 1 1 1 1 1 1
          1 1 1 1 1 1 0.947527 0.950689 0.949401 0.945809 0.957024 0.962686
          0.962338 0.95623 0.955595 0.962164 0.962482 0.955474 0.944036 0.948119 0.947413 0.94279 0.971804 0.978097
          0.978308 0.971838 0.987325 0.991524 0.991668 0.987577 0.988063 0.991996 0.992278 0.988617 0.972149 0.978762
          0.979424 0.972789 0.9964 0.997544 0.997572 0.996474 0.999695 0.9998 0.9998 0.999699 0.999717 0.9998
          0.9998 0.999724 0.99671 0.997754 0.997804 0.996847 0.941665 0.946898 0.946934 0.941061 0.955709 0.963162
          0.964178 0.956375 0.957594 0.965729 0.9674 0.959127 0.940795 0.947373 0.948321 0.941061 0.973879 0.980516
          0.981543 0.975085 0.989591 0.992951 0.993298 0.990327 0.991634 0.994235 0.99456 0.992321 0.97691 0.983223
          0.984452 0.978535 0.997314 0.998169 0.998218 0.997469 0.999849 0.9999 0.9999 0.999853 0.999878 0.9999
          0.9999 0.99988 0.998081 0.998684 0.998716 0.998205 1 1 1 1 1 1
          1 1 1 1 1 1 1 1 1 1 1 1
          1 1 1 1 1 1 0.94192 0.949897 0.951846 0.943279 0.961397 0.969774
          0.971906 0.963726 0.966933 0.974904 0.977188 0.96979 0.945483 0.954616 0.957446 0.948028 0.98092 0.986538
          0.987723 0.982714 0.993663 0.995594 0.995857 0.994235 0.995594 0.996936 0.997109 0.996012 0.985418 0.989971
          0.990892 0.987093 0.998838 0.999194 0.999208 0.998911 0.999993 1 1 0.999993 0.999999 1
          1 0.999999 0.999439 0.999599 0.999603 0.999468 0.951598 0.961224 0.964563 0.955162 0.973645 0.980558
          0.982664 0.976594 0.980693 0.986204 0.987808 0.983234 0.959822 0.968953 0.972224 0.963849 0.98986 0.99295
          0.993536 0.991142 0.997349 0.998171 0.998251 0.997599 0.998801 0.999193 0.99921 0.9989 0.99347 0.995348
          0.99571 0.994228 0.999853 0.9999 0.9999 0.999859 1 1 1 1 1 0.999994
          1 1 0.999994 1 1 1 1 1 1 1 1 1
          1 1 1 1 1 1 1 1 1 1 1 1
          1 1 1 1 1 1 1 1 1 1 1 1
          1 1 1 1 1 1 1 1 1 1 1 1
          1 1 1 1 1 1 1 1 1 1 1 1
          1 1 1 1 1 1 1 1 1 1 1 1
          1 1 1 1 1 1 1 1 1 1 1 1
          1 1 1 1 1 1 1 1 1 1 1 1
          1 1 1 1 1 1 1 1 1 1 1 1
          1 1 1 1 1 1 1 1 1 1 1 1
          1 1 1 1 1 1 1 1 1 1 1 1
          1 1 1 1 1 1 1 1 1 1 1 1
          1 1 1 1 1 1 1 1 1 1 1 1
          1 1 1 1 1 1 1 1 1 1 1 1
          1 1 1 1 1 1 1 1 1 1 1 1
          1 1 1 1 1 1 1 1 1 1 1 1
          1 1 1 1 1 1 1 1 1 1 1 1
          1 1 1 1 1 1 1 1 1 1 0.9995 0.9995
          0.999371 0.999452 1 1 0.99998 0.999991 1 1 1 1 1 1
          1 1 1 1 1 1 1 1 0.999999 0.999999 1 1
          0.999999 0.999999 0.998701 0.998701 0.9987 0.998701 0.998901 0.9989 0.9989 0.998901 1 1
          0.999999 0.999999 1 1 0.999998 0.999998 0.998502 0.998502 0.9985 0.998501 0.998601 0.998601
          0.9986 0.998601 1 1 0.999998 0.999998 1 1 0.999997 0.999997 0.998303 0.998302
          0.998301 0.998301 0.998402 0.998402 0.998401 0.998401 1 1 1 1 1 1
          1 1 1 1 1 1 1 1 1 1 1 1
          1 1 1 1 1 1 1 1 1 1 1 1
          1 1 1 1 1 0.999997 0.999997 1 1 0.999997 0.999997 0.998203
          0.998203 0.998201 0.998201 0.998302 0.998302 0.998301 0.998301 1 1 0.999996 0.999996 0.9999
          0.9999 0.999896 0.999896 0.998103 0.998103 0.998101 0.998101 0.998104 0.998103 0.998101 0.998102 0.9999
          0.9999 0.999896 0.999896 0.9999 0.9999 0.999896 0.999896 0.998004 0.998004 0.998002 0.998002 0.998004
          0.998004 0.998002 0.998002 1 1 1 1 1 1 1 1 1
          1 1 1 1 1 1 1 1 1 1 1 1
          1 1 1 1 1 1 1 1 1 0.9999 0.9999 0.999896
          0.999896 0.9999 0.9999 0.999895 0.999895 0.997905 0.997904 0.997902 0.997902 0.998004 0.998004 0.998001
          0.998002 0.9999 0.9999 0.999895 0.999895 0.9999 0.9999 0.999895 0.999895 0.997904 0.997904 0.997902
          0.997902 0.997904 0.997904 0.997902 0.997902 0.9999 0.9999 0.999894 0.999894 0.9999 0.9999 0.999894
          0.999894 0.997805 0.997805 0.997802 0.997802 0.997805 0.997805 0.997802 0.997803 1 1 1
          1 1 1 1 1 1 1 1 1 1 1 1
          1 1 1 1 1 1 1 1 1 1 1 1
          1 1 1 1 1 1 1 1 1 1 1 1
          1 1 1 1 1 1 1 1 1 1 1 1
          1 1 1 1 1 1 1 1 1 1 1 1
          1 1 1 1 1 1 1 1 1 1 1 1
          1 1 1 1 1 1 1 1 1 1 1 1
          1 1 1 1 1 1 1 1 1 1 1 1
          1 1 1 1 1 0.9999 0.999837 0.999859 0.9999 1 1 1
          1 1 0.997087 0.996 0.99695 0.99744 0.988083 0.97898 0.990482 0.991777 0.998886 0.998646
          0.998699 0.998904 1 0.999998 0.999998 1 1 1 1 1 1 1
          0.999998 0.999998 1 0.998904 0.998713 0.998695 0.998891 0.998707 0.998508 0.998477 0.998683 1
          0.999996 0.999996 1 0.951149 0.925144 0.974455 0.97729 0.881504 0.838358 0.951472 0.957399 0.98572
          0.983437 0.98471 0.986635 0.994864 0.993954 0.994263 0.995078 0.784449 0.736374 0.919273 0.929576 0.685693
          0.643332 0.884889 0.898902 0.954889 0.950599 0.955903 0.959174 0.968532 0.964393 0.967437 0.970903 0.601876
          0.568711 0.845105 0.86329 0.536822 0.512414 0.797845 0.820625 0.933075 0.928965 0.941513 0.943525 0.94333
          0.939198 0.947579 0.950217 0.995206 0.994411 0.994368 0.995174 0.987068 0.985147 0.984956 0.986935 0.986613
          0.984573 0.984314 0.986437 0.995024 0.994215 0.994155 0.994979 0.9717 0.968239 0.967847 0.971388 0.9605
          0.957344 0.956998 0.960153 0.959528 0.95636 0.955755 0.958948 0.970816 0.967181 0.966608 0.97036 0.952338
          0.949937 0.949775 0.952113 0.946687 0.945026 0.945119 0.946682 0.946346 0.944849 0.944481 0.945923 0.951592
          0.949296 0.948783 0.951048 1 1 1 1 1 1 0.999991 0.999991 1
          0.998415 0.99821 0.998184 0.998396 0.998221 0.998003 0.997975 0.9982 1 0.999987 0.999986 1
          1 1 1 1 1 1 1 1 1 0.999981 0.999979 1
          0.998028 0.997797 0.99777 0.998006 0.997835 0.997601 0.997573 0.997811 0.9999 0.999875 0.999874 0.9999
          0.994825 0.993999 0.993943 0.99478 0.986091 0.983893 0.983659 0.985952 0.985697 0.98331 0.983069 0.985567
          0.994633 0.993796 0.99374 0.994588 0.969692 0.965829 0.965212 0.969211 0.958193 0.954987 0.954337 0.957566
          0.956765 0.953527 0.952843 0.956099 0.968516 0.964387 0.963729 0.96801 0.950374 0.948149 0.947608 0.949795
          0.945413 0.944029 0.943627 0.944955 0.944418 0.943153 0.942766 0.943967 0.949099 0.94696 0.946404 0.948495
          0.994446 0.993599 0.99356 0.994417 0.985328 0.982719 0.982486 0.985227 0.98505 0.982166 0.981931 0.984973
          0.994337 0.993478 0.993445 0.994313 0.967287 0.96286 0.962164 0.966762 0.955258 0.951998 0.95129 0.954562
          0.953692 0.950422 0.949657 0.952931 0.966019 0.96125 0.960479 0.965447 0.947772 0.945739 0.94518 0.947158
          0.94345 0.942318 0.941924 0.94299 0.94246 0.941466 0.941059 0.94198 0.946431 0.944521 0.943927 0.94577
          0.488346 0.470613 0.743734 0.770114 0.452279 0.439197 0.686558 0.714145 0.912917 0.907977 0.933244 0.934499
          0.923213 0.918832 0.936924 0.938472 0.424967 0.415102 0.631456 0.657527 0.403921 0.396328 0.582493 0.605245
          0.88861 0.882007 0.926952 0.928044 0.901516 0.895827 0.930034 0.931146 0.387415 0.381455 0.54125 0.560142
          0.374276 0.369511 0.507555 0.522832 0.857086 0.84844 0.920358 0.921623 0.873856 0.866226 0.923764 0.924923
          0.94294 0.941856 0.942247 0.943216 0.940552 0.939868 0.940552 0.941119 0.941203 0.940697 0.940572 0.941036
          0.943105 0.942205 0.941967 0.942815 0.939032 0.938598 0.939586 0.9399 0.938048 0.937752 0.939046 0.939221
          0.939648 0.939515 0.939514 0.93963 0.940168 0.939906 0.939861 0.940094 0.937322 0.937081 0.938689 0.938802
          0.936709 0.936498 0.938441 0.938515 0.939207 0.939169 0.939223 0.939252 0.939364 0.939287 0.939323 0.939388
          0.363646 0.359759 0.480351 0.492598 0.354887 0.351648 0.458377 0.468221 0.818141 0.80803 0.912781 0.914282
          0.838394 0.828875 0.916698 0.918082 0.347534 0.344778 0.440516 0.448484 0.34125 0.338863 0.425906 0.432393
          0.775726 0.76571 0.904628 0.906196 0.796975 0.786667 0.908702 0.910284 0.335797 0.333708 0.413954 0.419215
          0.331054 0.329224 0.404364 0.408527 0.737552 0.730114 0.898824 0.899473 0.755476 0.746371 0.901056 0.90237
          0.936163 0.935966 0.938263 0.938312 0.935642 0.935448 0.938119 0.938158 0.939108 0.939106 0.939204 0.9392
          0.93913 0.939117 0.939198 0.939202 0.935141 0.934958 0.938003 0.938027 0.934688 0.934572 0.938005 0.937959
          0.939156 0.939241 0.939386 0.939294 0.939091 0.939104 0.939231 0.939208 0.934539 0.934677 0.938489 0.938192
          0.9353 0.93607 0.940273 0.939342 0.940852 0.941869 0.942148 0.941076 0.939521 0.939866 0.940047 0.939685
          0.942459 0.941665 0.941401 0.942143 0.940821 0.940398 0.940229 0.940616 0.940384 0.940033 0.939861 0.940178
          0.941784 0.941097 0.940836 0.941473 0.939977 0.93977 0.93966 0.939844 0.939562 0.939459 0.939388 0.93948
          0.939387 0.939305 0.939208 0.939284 0.939692 0.939531 0.939415 0.939558 0.93936 0.939301 0.939232 0.939289
          0.939232 0.939209 0.939146 0.93916 0.939063 0.939199 0.939146 0.939056 0.939107 0.941121 0.940536 0.940278
          0.940812 0.939947 0.939663 0.939487 0.939741 0.939511 0.939284 0.939084 0.939287 0.940465 0.939983 0.939713
          0.940147 0.939407 0.939283 0.939146 0.939257 0.939164 0.939093 0.938973 0.93904 0.938897 0.938833 0.938667
          0.938729 0.939084 0.938986 0.938815 0.938902 0.938997 0.938949 0.93882 0.938867 0.938867 0.938593 0.938706
          0.938664 0.938474 0.938506 0.939206 0.939206 0.93915 0.939148 0.939211 0.939217 0.939163 0.939158 0.939085
          0.939072 0.939242 0.93927 0.939231 0.9392 0.939336 0.939432 0.939397 0.939298 0.939245 0.939345 0.939283
          0.939179 0.939145 0.939176 0.939108 0.939081 0.939748 0.940125 0.940108 0.939718 0.941201 0.942333 0.94242
          0.941228 0.941255 0.942514 0.942585 0.941257 0.939671 0.940074 0.940029 0.939613 0.938894 0.938912 0.938665
          0.938644 0.938992 0.939026 0.938927 0.938897 0.9391 0.939207 0.939117 0.939004 0.938889 0.939008 0.938878
          0.938751 0.938769 0.938807 0.938663 0.938632 0.939543 0.939973 0.939901 0.939458 0.941263 0.942668 0.942725
          0.94124 0.941215 0.942791 0.942824 0.941155 0.939355 0.939812 0.9397 0.939231 1 1 1
          1 1 1 1 1 1 1 1 0.9999 0.999866 0.999866 0.9999
          0.997648 0.99741 0.997406 0.997646 0.997646 0.997405 0.997404 0.997646 0.9999 0.999866 0.999865 0.9999
          1 1 1 1 1 1 1 1 1 1 1 0.9999
          0.999865 0.999865 0.9999 0.997647 0.997405 0.997418 0.997658 0.997742 0.997505 0.997533 0.997764 0.9999
          0.999869 0.99987 0.9999 0.994239 0.993371 0.993354 0.994236 0.984842 0.981624 0.981367 0.984777 0.984665
          0.981035 0.980751 0.984622 0.994235 0.993336 0.993325 0.994236 0.96464 0.959474 0.958627 0.964025 0.951984
          0.94872 0.947888 0.951146 0.950112 0.946878 0.945952 0.94916 0.963168 0.957532 0.956553 0.962469 0.944988
          0.943226 0.942603 0.944282 0.941429 0.940587 0.940163 0.940929 0.94036 0.939676 0.939217 0.939821 0.943454
          0.941873 0.941196 0.942677 0.994241 0.993317 0.993325 0.994262 0.98456 0.980399 0.980052 0.984537 0.984514
          0.979628 0.979208 0.984558 0.99434 0.99338 0.993416 0.994385 0.961501 0.955292 0.954108 0.960659 0.947993
          0.944836 0.94378 0.946875 0.945518 0.942519 0.941291 0.944172 0.959502 0.952594 0.951117 0.958437 0.941771
          0.940408 0.939663 0.940905 0.93921 0.938691 0.938171 0.938607 0.937921 0.937574 0.936955 0.937213 0.939907
          0.938803 0.937941 0.938904 1 1 1 1 1 1 1 1 1
          1 1 0.9999 0.999877 0.999878 0.9999 0.997932 0.997709 0.99775 0.997962 0.998221 0.998025
          0.998074 0.998254 0.9999 0.999886 0.999887 0.9999 1 1 1 1 1 1
          0.999993 0.999994 1 0.998611 0.998456 0.998514 0.998646 0.999201 0.999122 0.999159 0.999219 1
          0.999999 0.999999 1 0.99454 0.993548 0.993632 0.994621 0.984674 0.978724 0.978182 0.984828 0.985167
          0.977608 0.976946 0.985504 0.994919 0.993907 0.994052 0.995036 0.956986 0.949246 0.947349 0.955541 0.942559
          0.939844 0.938407 0.940918 0.938986 0.936744 0.935076 0.937001 0.953583 0.944979 0.942498 0.95145 0.937757
          0.936948 0.935934 0.936591 0.936407 0.936249 0.935497 0.935544 0.934559 0.934655 0.933755 0.933465 0.935273
          0.934774 0.933537 0.933893 0.995493 0.99451 0.994782 0.995685 0.986246 0.976437 0.975941 0.98691 0.988724
          0.976361 0.978355 0.99038 0.99661 0.995769 0.996259 0.996862 0.948562 0.939463 0.936293 0.945176 0.93473
          0.93319 0.931288 0.932412 0.929872 0.929186 0.92703 0.927338 0.940521 0.932557 0.928828 0.934518 0.932345
          0.932121 0.930577 0.930698 0.932204 0.932792 0.931845 0.930776 0.929101 0.930985 0.930259 0.927115 0.928859
          0.928813 0.926861 0.926871 0.93979 0.939403 0.939094 0.939444 0.939031 0.93885 0.938592 0.938754 0.938431
          0.938286 0.937957 0.938088 0.939049 0.938734 0.938364 0.938654 0.938688 0.938612 0.938389 0.938455 0.938527
          0.938473 0.938252 0.938302 0.938032 0.937989 0.937675 0.937705 0.938181 0.938127 0.937817 0.937861 0.93824
          0.938215 0.937671 0.937689 0.938199 0.93793 0.937468 0.937729 0.937688 0.937568 0.937125 0.937235 0.936698
          0.9366 0.935979 0.936059 0.937184 0.936922 0.936289 0.936568 0.937479 0.937451 0.937021 0.93704 0.937289
          0.936411 0.936518 0.936509 0.935894 0.935896 0.936893 0.938297 0.938317 0.937828 0.937816 0.938447 0.938486
          0.938275 0.938248 0.938586 0.938723 0.938539 0.938388 0.938154 0.938321 0.938063 0.937878 0.937979 0.938016
          0.937705 0.937688 0.939081 0.939562 0.939391 0.9389 0.941083 0.94286 0.942854 0.940964 0.94082 0.942841
          0.942771 0.940612 0.938683 0.93918 0.93892 0.938421 0.937159 0.937143 0.936189 0.936259 0.937294 0.937322
          0.936859 0.936863 0.937555 0.93776 0.937404 0.937185 0.93677 0.936985 0.936505 0.936315 0.93626 0.938105
          0.938601 0.938226 0.937741 0.940358 0.942678 0.942506 0.940015 0.939591 0.942282 0.941962 0.93905 0.937307
          0.93777 0.937214 0.936786 0.935842 0.935536 0.934673 0.935014 0.935297 0.935246 0.934377 0.934408 0.93331
          0.934025 0.933652 0.932422 0.932844 0.93513 0.935231 0.933584 0.933516 0.934823 0.931395 0.930959 0.929216
          0.929586 0.931055 0.928229 0.927115 0.931308 0.931361 0.928425 0.928399 0.931374 0.931376 0.92843 0.928429
          0.934832 0.934975 0.935703 0.935931 0.935268 0.935091 0.934283 0.93448 0.933568 0.93351 0.933194 0.936157
          0.936539 0.935737 0.935419 0.93838 0.941552 0.94101 0.937556 0.936538 0.940316 0.939405 0.935301 0.934532
          0.934772 0.933634 0.933485 0.931373 0.931304 0.928369 0.928427 0.930462 0.932511 0.932475 0.931188 0.931713
          0.930762 0.929575 0.927533 0.930348 0.92689 0.93223 0.932283 0.930732 0.930761 0.933781 0.938205 0.936614
          0.932004 0.929859 0.934348 0.930949 0.927455 0.929016 0.928939 0.926918 0.926987 1 1 1
          1 1 1 1 1 1 1 1 1 1 1 1
          1 1 1 1 1 1 1 1 1 1 1 1
          1 1 1 0.99984 0.999698 1 0.9999 0.999631 0.999599 0.9999 1 1
          1 1 0.93207 0.923466 0.908691 0.914815 0.914012 0.906961 0.897009 0.901844 0.890985 0.888048
          0.881946 0.883656 0.900384 0.89548 0.886956 0.891283 1 1 1 1 1 1
          1 1 0.9998 0.999574 0.999557 0.9998 0.9997 0.999541 0.999529 0.9997 1 1
          1 1 0.88401 0.879932 0.875033 0.878977 0.87758 0.876836 0.873348 0.873301 0.869552 0.870363
          0.868187 0.86663 0.874397 0.870612 0.867114 0.870729 0.900997 0.897274 0.891227 0.89322 0.895335 0.895085
          0.892166 0.890951 0.887431 0.890109 0.889474 0.885476 0.886315 0.885914 0.882528 0.881615 0.897086 0.900351
          0.900289 0.895676 0.90633 0.912862 0.915237 0.907618 0.910041 0.9187 0.922567 0.913084 0.895302 0.901248
          0.903172 0.896062 0.922585 0.93206 0.936247 0.926087 0.945143 0.955599 0.959902 0.949821 0.955599 0.965273
          0.969075 0.960301 0.9308 0.941528 0.94633 0.935488 0.877878 0.880006 0.878706 0.875476 0.884485 0.889763
          0.890913 0.884472 0.885194 0.892776 0.894994 0.886375 0.873682 0.878009 0.877953 0.872562 0.897854 0.906052
          0.909286 0.900221 0.91717 0.927421 0.932036 0.921301 0.926292 0.937438 0.942049 0.930851 0.903391 0.913252
          0.917116 0.906637 0.941217 0.952063 0.956576 0.946204 0.965988 0.974045 0.976959 0.969979 0.974997 0.981245
          0.983274 0.977992 0.952018 0.961947 0.965641 0.956544 1 1 1 1 1 1
          1 1 0.9997 0.999518 0.999507 0.9997 0.9997 0.999496 0.999486 0.9997 1 1
          1 1 0.867065 0.863667 0.860665 0.863816 0.863872 0.866217 0.864682 0.861523 0.859204 0.86324
          0.862051 0.857099 0.86041 0.857553 0.85469 0.85722 1 1 1 1 1 1
          1 1 0.9996 0.999475 0.999465 0.9996 0.9996 0.999455 0.999445 0.9996 1 1
          1 1 0.853805 0.851652 0.848775 0.850519 0.85497 0.860913 0.85996 0.852975 0.850943 0.859061
          0.858322 0.849 0.846968 0.845689 0.842698 0.84346 0.871803 0.878291 0.878943 0.871375 0.888094 0.897737
          0.900506 0.889953 0.892251 0.903702 0.906725 0.894514 0.871202 0.87989 0.880999 0.871204 0.910486 0.921585
          0.925625 0.914087 0.936106 0.947315 0.951409 0.940546 0.945575 0.956137 0.959542 0.949577 0.918217 0.930184
          0.934096 0.921928 0.961808 0.970266 0.973062 0.96552 0.982085 0.986805 0.988098 0.984163 0.987393 0.990836
          0.991529 0.988745 0.970002 0.976903 0.978968 0.97291 0.871437 0.882383 0.883849 0.871771 0.897178 0.910129
          0.913289 0.899735 0.902706 0.91686 0.920133 0.905523 0.872349 0.885606 0.887419 0.87301 0.926141 0.938497
          0.942143 0.929851 0.954147 0.963642 0.96642 0.957634 0.961741 0.969997 0.972224 0.964709 0.934069 0.946307
          0.94962 0.937695 0.976689 0.982198 0.983723 0.978914 0.991128 0.993319 0.993734 0.991925 0.993591 0.995104
          0.995367 0.99408 0.982064 0.98646 0.987521 0.983714 1 1 1 1 1 1
          1 1 1 1 1 1 1 1 1 1 1 1
          1 1 1 1 1 1 1 1 1 1 1 1
          1 1 1 1 1 1 1 1 1 1 1 1
          0.9999 0.9999 0.999894 0.999894 0.9999 0.9999 0.999894 0.999894 0.997805 0.997805 0.997802 0.997802
          0.997805 0.997805 0.997802 0.997802 0.9999 0.9999 0.999894 0.999894 0.9999 0.9999 0.999893 0.999893
          0.997706 0.997706 0.997703 0.997703 0.997805 0.997805 0.997802 0.997802 0.9999 0.9999 0.999893 0.999893
          0.9999 0.9999 0.999893 0.999893 0.997706 0.997706 0.997703 0.997703 0.997706 0.997706 0.997703 0.997703
          1 1 1 1 1 1 1 1 1 1 1 1
          1 1 1 1 1 1 1 1 1 1 1 1
          1 1 1 1 1 1 0.9999 0.9999 0.999893 0.999893 0.9999 0.9999
          0.999893 0.999893 0.997706 0.997706 0.997703 0.997703 0.997706 0.997706 0.997703 0.997703 0.9999 0.9999
          0.999893 0.999893 0.9999 0.9999 0.999893 0.999893 0.997706 0.997706 0.997703 0.997703 0.997706 0.997706
          0.997703 0.997703 0.9999 0.9999 0.999893 0.999893 0.9999 0.9999 0.999893 0.999893 0.997706 0.997706
          0.997703 0.997703 0.997706 0.997706 0.997703 0.997703 1 1 1 1 1 1
          1 1 0.9996 0.999435 0.999425 0.9996 0.9996 0.999414 0.999404 0.9996 1 1
          1 1 0.83964 0.839468 0.836294 0.835803 0.847027 0.857668 0.857176 0.845122 0.843212 0.856826
          0.856679 0.841377 0.831599 0.832854 0.829444 0.82731 1 1 1 1 1 1
          1 1 0.9995 0.999392 0.999381 0.9995 0.9995 0.99937 0.999358 0.9995 1 1
          1 1 0.822581 0.825747 0.822063 0.817684 0.839592 0.856776 0.857168 0.83793 0.836431 0.857976
          0.859246 0.835173 0.81224 0.81808 0.814114 0.806491 0.873961 0.889571 0.891771 0.874998 0.908783 0.92386
          0.927246 0.911869 0.91547 0.931142 0.934639 0.918894 0.876403 0.894384 0.897063 0.877936 0.941849 0.953507
          0.956499 0.945355 0.96835 0.97532 0.97713 0.970878 0.974168 0.979905 0.981393 0.976314 0.949439 0.960152
          0.962833 0.952793 0.986289 0.98972 0.990418 0.987499 0.995354 0.996444 0.996609 0.995673 0.996738 0.99751
          0.997609 0.996948 0.98962 0.992102 0.992546 0.99049 0.879957 0.900257 0.903542 0.882188 0.922921 0.938721
          0.942294 0.926728 0.931231 0.946534 0.950158 0.935468 0.885083 0.907474 0.911498 0.888298 0.956784 0.966267
          0.968655 0.959961 0.979313 0.983961 0.985171 0.981099 0.983807 0.987502 0.988436 0.985271 0.963857 0.971913
          0.97405 0.966852 0.992144 0.993848 0.994165 0.992706 0.997876 0.998398 0.998448 0.998003 0.998772 0.999098
          0.999114 0.998838 0.994004 0.995252 0.995495 0.994425 1 1 1 1 1 1