<?xml version="1.0"?>
<VTKFile type="UnstructuredGrid" version="0.1" byte_order="LittleEndian">
  <UnstructuredGrid>
    <Piece NumberOfCells="200" NumberOfPoints="231">
      <PointData Scalars="S_liq" Vectors="velocity_liq (m/s)">
        <DataArray type="Float32" Name="S_liq" NumberOfComponents="1" format="ascii">
          0.95 0.972686 0.95 0.960566 1 0.997903 1 1 1 1 1 1
          1 1 1 1 1 1 1 1 1 1 1 1
          1 1 1 1 1 0.975265 0.945595 0.921823 0.924892 0.891822 0.883205 0.816924
          0.628552 0.470631 0.389146 0.366447 0.2 0.2 0.95 0.955521 0.99522 1 1 1
          1 1 1 1 1 1 1 1 0.965235 0.910242 0.87132 0.747203
          0.404911 0.366156 0.2 0.95 0.953717 0.99317 1 1 1 1 1 1
          1 1 1 1 1 0.960768 0.902789 0.854251 0.663446 0.379771 0.366099 0.2
          0.95 0.952917 0.991345 1 1 1 1 1 1 1 1 1
          1 1 0.958531 0.897259 0.838005 0.588578 0.372039 0.366084 0.2 0.95 0.95239 0.989625
          1 1 1 1 1 1 1 1 1 1 1 0.95707
          0.892492 0.821072 0.527611 0.369589 0.366079 0.2 0.95 0.951964 0.987762 1 1 1
          1 1 1 1 1 1 1 1 0.955619 0.887706 0.801366 0.476441
          0.368711 0.366077 0.2 0.95 0.951589 0.985925 1 1 1 1 1 1
          1 1 1 1 1 0.953665 0.882189 0.774471 0.433338 0.368357 0.366061 0.2
          0.95 0.95124 0.983892 1 1 1 1 1 1 1 1 1
          1 1 0.950477 0.875013 0.730513 0.399767 0.368042 0.365882 0.2 0.95 0.950761 0.981913
          1 1 1 1 1 1 1 1 1 1 1 0.943507
          0.86362 0.646984 0.376952 0.366162 0.364082 0.2 0.95 0.934341 0.955121 1 1 1
          1 1 1 1 1 1 1 1 0.8834 0.765085 0.450991 0.352054
          0.351124 0.349363 0.2
        </DataArray>
        <DataArray type="Float32" Name="p_liq" NumberOfComponents="1" format="ascii">
          1.29995e+07 1.29961e+07 1.29995e+07 1.29876e+07 1.2978e+07 1.29689e+07 1.29563e+07 1.29468e+07 1.28781e+07 1.28692e+07 1.26852e+07 1.26762e+07
          1.24282e+07 1.24188e+07 1.21425e+07 1.21326e+07 1.18444e+07 1.18341e+07 1.15411e+07 1.15305e+07 1.14238e+07 1.14131e+07 1.13789e+07 1.13681e+07
          1.13336e+07 1.13228e+07 1.12878e+07 1.12769e+07 1.12405e+07 1.12302e+07 1.1193e+07 1.11821e+07 1.11314e+07 1.11204e+07 1.10693e+07 1.10559e+07
          1.10101e+07 1.10091e+07 1.10042e+07 1.10037e+07 1.09925e+07 1.09925e+07 1.29995e+07 1.29818e+07 1.29605e+07 1.29384e+07 1.28618e+07 1.26698e+07
          1.24112e+07 1.21238e+07 1.18244e+07 1.15201e+07 1.14025e+07 1.13574e+07 1.13121e+07 1.12663e+07 1.12202e+07 1.11714e+07 1.11093e+07 1.10411e+07
          1.10091e+07 1.10036e+07 1.09925e+07 1.29995e+07 1.29772e+07 1.29531e+07 1.29304e+07 1.28551e+07 1.26648e+07 1.24049e+07 1.21158e+07 1.18152e+07
          1.15099e+07 1.13919e+07 1.13468e+07 1.13014e+07 1.12558e+07 1.12101e+07 1.1161e+07 1.10983e+07 1.10294e+07 1.10094e+07 1.10037e+07 1.09925e+07
          1.29995e+07 1.29732e+07 1.29462e+07 1.29226e+07 1.28487e+07 1.26606e+07 1.23994e+07 1.21085e+07 1.18063e+07 1.14998e+07 1.13814e+07 1.13362e+07
          1.12909e+07 1.12454e+07 1.11999e+07 1.11507e+07 1.10877e+07 1.10229e+07 1.10094e+07 1.10038e+07 1.09925e+07 1.29995e+07 1.29694e+07 1.29397e+07
          1.29148e+07 1.28423e+07 1.26567e+07 1.23944e+07 1.21015e+07 1.17976e+07 1.14897e+07 1.1371e+07 1.13257e+07 1.12803e+07 1.1235e+07 1.11896e+07
          1.11404e+07 1.10776e+07 1.10191e+07 1.10092e+07 1.10038e+07 1.09925e+07 1.29995e+07 1.29658e+07 1.29331e+07 1.29067e+07 1.28358e+07 1.26528e+07
          1.23894e+07 1.20945e+07 1.17888e+07 1.14797e+07 1.13605e+07 1.13151e+07 1.12698e+07 1.12246e+07 1.11793e+07 1.113e+07 1.10673e+07 1.10168e+07
          1.10091e+07 1.10037e+07 1.09925e+07 1.29995e+07 1.29618e+07 1.29263e+07 1.28983e+07 1.28289e+07 1.26485e+07 1.23841e+07 1.20872e+07 1.178e+07
          1.14696e+07 1.135e+07 1.13046e+07 1.12593e+07 1.12142e+07 1.1169e+07 1.11195e+07 1.10563e+07 1.10156e+07 1.10089e+07 1.10036e+07 1.09925e+07
          1.29995e+07 1.29573e+07 1.29191e+07 1.28893e+07 1.28214e+07 1.26433e+07 1.23778e+07 1.20794e+07 1.17708e+07 1.14594e+07 1.13395e+07 1.1294e+07
          1.12487e+07 1.12037e+07 1.11588e+07 1.11087e+07 1.10448e+07 1.10152e+07 1.10088e+07 1.10033e+07 1.09925e+07 1.29995e+07 1.29517e+07 1.29112e+07
          1.28798e+07 1.28129e+07 1.26363e+07 1.23702e+07 1.20707e+07 1.17612e+07 1.14491e+07 1.13289e+07 1.12833e+07 1.1238e+07 1.11933e+07 1.11489e+07
          1.10975e+07 1.1035e+07 1.10155e+07 1.10084e+07 1.10029e+07 1.09925e+07 1.29995e+07 1.29439e+07 1.29027e+07 1.287e+07 1.2803e+07 1.26269e+07
          1.23606e+07 1.20608e+07 1.1751e+07 1.14386e+07 1.13183e+07 1.12726e+07 1.12272e+07 1.11823e+07 1.11403e+07 1.10842e+07 1.10313e+07 1.10155e+07
          1.10076e+07 1.10021e+07 1.09925e+07
        </DataArray>
        <DataArray type="Float32" Name="rho_liq" NumberOfComponents="1" format="ascii">
          929.152 933.406 929.152 930.446 940.96 935.444 1053.77 1050.35 1068.67 1066.21 1073.61 1071.45
          1076.7 1074.65 1079.61 1077.66 1082.84 1081.05 1086.55 1084.96 1094.46 1093.37 1102.16 1101.62
          1108.66 1108.67 1113.54 1114.03 1116.82 1117.06 1117.17 1117.17 1117.17 1117.17 1117.15 1117.14
          1117.12 1117.12 1117.12 1117.12 1219.48 1219.48 929.152 929.592 932.486 1036.91 1062.99 1069.52
          1072.86 1075.87 1079.27 1083.25 1091.97 1100.64 1108.16 1113.95 1117.05 1117.17 1117.16 1117.13
          1117.12 1117.12 1219.48 929.152 929.354 931.155 1020.64 1059.45 1067.99 1071.66 1074.67 1078.05
          1082.04 1090.92 1099.86 1107.7 1113.81 1117.04 1117.16 1117.16 1117.13 1117.12 1117.12 1219.48
          929.152 929.254 930.44 1007.79 1056.36 1066.7 1070.73 1073.77 1077.1 1081.08 1090.06 1099.21
          1107.31 1113.66 1117.03 1117.16 1117.15 1117.13 1117.12 1117.12 1219.48 929.152 929.201 930.011
          997.17 1053.65 1065.55 1069.94 1073.01 1076.31 1080.25 1089.3 1098.62 1106.95 1113.53 1117.02
          1117.15 1117.15 1117.12 1117.12 1117.12 1219.48 929.152 929.171 929.734 987.501 1051.08 1064.47
          1069.22 1072.33 1075.59 1079.49 1088.59 1098.07 1106.61 1113.4 1117.01 1117.14 1117.14 1117.12
          1117.12 1117.12 1219.48 929.152 929.152 929.548 979.213 1048.7 1063.43 1068.54 1071.7 1074.91
          1078.78 1087.9 1097.53 1106.28 1113.28 1117 1117.14 1117.14 1117.12 1117.12 1117.12 1219.48
          929.152 929.14 929.424 971.545 1046.34 1062.38 1067.89 1071.11 1074.29 1078.11 1087.24 1097.01
          1105.98 1113.2 1116.99 1117.13 1117.13 1117.12 1117.12 1117.12 1219.48 929.152 929.131 929.349
          965.262 1044.26 1061.46 1067.34 1070.63 1073.78 1077.54 1086.68 1096.58 1105.78 1113.24 1116.99
          1117.13 1117.13 1117.12 1117.12 1117.12 1219.48 929.152 929.123 929.357 970.377 1045.89 1062.03
          1067.54 1070.7 1073.78 1077.53 1086.78 1097.02 1106.75 1114.76 1117.04 1117.13 1117.13 1117.12
          1117.12 1117.12 1219.48
        </DataArray>
        <DataArray type="Float32" Name="mob_liq" NumberOfComponents="1" format="ascii">
          4371.12 4623.47 4371.12 4516.25 4874.08 5132.21 2982.23 2987.76 2956.99 2958.19 2953.51 2954.03
          2952.44 2952.79 2951.88 2952.14 2951.44 2951.64 2951.04 2951.19 2950.48 2950.53 2950.24 2950.25
          2950.3 2950.3 2950.5 2950.53 2950.7 2615.41 2237.47 1965.47 1999.12 1658.53 1577.44 1048.75
          244.209 38.8377 9.26686 5.55717 0 0 4371.12 4459.67 5245.71 3031.8 2961.14 2954.69
          2953.13 2952.41 2951.86 2951.37 2950.62 2950.26 2950.28 2950.52 2482.68 1842.35 1470.5 649.143
          12.7645 5.51832 0 4371.12 4437.02 5285.18 3115.14 2965.9 2955.49 2953.43 2952.6 2952.02
          2951.5 2950.69 2950.28 2950.27 2950.51 2425.21 1766.23 1326.55 333.996 7.56175 5.51081 0
          4371.12 4427.34 5291.45 3207.99 2971.05 2956.34 2953.71 2952.77 2952.15 2951.61 2950.75 2950.29
          2950.27 2950.5 2396.8 1711.29 1199.62 165.066 6.34248 5.50885 0 4371.12 4419.91 5280.81
          3308.24 2976.31 2957.21 2953.99 2952.92 2952.27 2951.71 2950.8 2950.31 2950.26 2950.5 2378.4
          1664.97 1077.24 83.4028 5.98881 5.5082 0 4371.12 4412.82 5255.18 3424.02 2982.01 2958.15
          2954.28 2953.07 2952.38 2951.8 2950.86 2950.32 2950.25 2950.49 2360.21 1619.41 946.897 42.282
          5.86565 5.50782 0 4371.12 4405.78 5223.11 3547.68 2987.87 2959.15 2954.58 2953.22 2952.49
          2951.89 2950.92 2950.34 2950.25 2950.48 2335.89 1568.07 788.532 21.4629 5.8166 5.50582 0
          4371.12 4398.66 5180.85 3688.58 2994.32 2960.28 2954.9 2953.37 2952.6 2951.98 2950.97 2950.36
          2950.24 2950.48 2296.61 1503.12 573.498 11.5304 5.7732 5.4821 0 4371.12 4388.07 5135.79
          3828.29 3000.48 2961.36 2955.21 2953.5 2952.69 2952.06 2951.02 2950.38 2950.24 2950.48 2212.48
          1404.18 289.011 7.0985 5.51913 5.24793 0 4371.12 4016.93 4466.1 3713.51 2995.56 2960.61
          2955.04 2953.46 2952.68 2952.06 2951.01 2950.36 2950.25 2950.55 1579.22 738.245 28.7328 3.87021
          3.77637 3.6035 0
        </DataArray>
        <DataArray type="Float32" Name="S_gas" NumberOfComponents="1" format="ascii">
          0.05 0.0273138 0.05 0.0394344 0 0.00209724 0 0 0 0 0 0
          0 0 0 0 0 0 0 0 0 0 0 0
          0 0 0 0 0 0.0247353 0.0544047 0.0781774 0.0751083 0.108178 0.116795 0.183076
          0.371448 0.529369 0.610854 0.633553 0.8 0.8 0.05 0.044479 0.00477997 0 0 0
          0 0 0 0 0 0 0 0 0.0347646 0.0897579 0.12868 0.252797
          0.595089 0.633844 0.8 0.05 0.0462834 0.00683048 0 0 0 0 0 0
          0 0 0 0 0 0.0392322 0.0972107 0.145749 0.336554 0.620229 0.633901 0.8
          0.05 0.0470827 0.00865529 0 0 0 0 0 0 0 0 0
          0 0 0.0414692 0.102741 0.161995 0.411422 0.627961 0.633916 0.8 0.05 0.04761 0.0103753
          0 0 0 0 0 0 0 0 0 0 0 0.0429297
          0.107508 0.178928 0.472389 0.630411 0.633921 0.8 0.05 0.0480364 0.0122377 0 0 0
          0 0 0 0 0 0 0 0 0.044381 0.112294 0.198634 0.523559
          0.631289 0.633923 0.8 0.05 0.0484114 0.0140751 0 0 0 0 0 0
          0 0 0 0 0 0.0463347 0.117811 0.225529 0.566662 0.631643 0.633939 0.8
[...]
      <CellData Scalars="process rank">
        <DataArray type="Float32" Name="process rank" NumberOfComponents="1" format="ascii">
          0 0 0 0 0 0 0 0 0 0 0 0
          0 0 0 0 0 0 0 0 0 0 0 0
          0 0 0 0 0 0 0 0 0 0 0 0
          0 0 0 0 0 0 0 0 0 0 0 0
          0 0 0 0 0 0 0 0 0 0 0 0
          0 0 0 0 0 0 0 0 0 0 0 0
          0 0 0 0 0 0 0 0 0 0 0 0
          0 0 0 0 0 0 0 0 0 0 0 0
          0 0 0 0 0 0 0 0 0 0 0 0
          0 0 0 0 0 0 0 0 0 0 0 0
          0 0 0 0 0 0 0 0 0 0 0 0
          0 0 0 0 0 0 0 0 0 0 0 0
          0 0 0 0 0 0 0 0 0 0 0 0
          0 0 0 0 0 0 0 0 0 0 0 0
          0 0 0 0 0 0 0 0 0 0 0 0
          0 0 0 0 0 0 0 0 0 0 0 0
          0 0 0 0 0 0 0 0
        </DataArray>
      </CellData>
      <Points>
        <DataArray type="Float32" Name="Coordinates" NumberOfComponents="3" format="ascii">
          0 0 0 2 0 0 0 1 0 2 1 0
          4 0 0 4 1 0 6 0 0 6 1 0
          8 0 0 8 1 0 10 0 0 10 1 0
          12 0 0 12 1 0 14 0 0 14 1 0
          16 0 0 16 1 0 18 0 0 18 1 0
          20 0 0 20 1 0 22 0 0 22 1 0
          24 0 0 24 1 0 26 0 0 26 1 0
          28 0 0 28 1 0 30 0 0 30 1 0
          32 0 0 32 1 0 34 0 0 34 1 0
          36 0 0 36 1 0 38 0 0 38 1 0
          40 0 0 40 1 0 0 2 0 2 2 0
          4 2 0 6 2 0 8 2 0 10 2 0
          12 2 0 14 2 0 16 2 0 18 2 0
          20 2 0 22 2 0 24 2 0 26 2 0
          28 2 0 30 2 0 32 2 0 34 2 0
          36 2 0 38 2 0 40 2 0 0 3 0
          2 3 0 4 3 0 6 3 0 8 3 0
          10 3 0 12 3 0 14 3 0 16 3 0
          18 3 0 20 3 0 22 3 0 24 3 0
          26 3 0 28 3 0 30 3 0 32 3 0
          34 3 0 36 3 0 38 3 0 40 3 0
          0 4 0 2 4 0 4 4 0 6 4 0
          8 4 0 10 4 0 12 4 0 14 4 0
          16 4 0 18 4 0 20 4 0 22 4 0
          24 4 0 26 4 0 28 4 0 30 4 0
          32 4 0 34 4 0 36 4 0 38 4 0
          40 4 0 0 5 0 2 5 0 4 5 0
          6 5 0 8 5 0 10 5 0 12 5 0
          14 5 0 16 5 0 18 5 0 20 5 0
          22 5 0 24 5 0 26 5 0 28 5 0
          30 5 0 32 5 0 34 5 0 36 5 0
          38 5 0 40 5 0 0 6 0 2 6 0
          4 6 0 6 6 0 8 6 0 10 6 0
          12 6 0 14 6 0 16 6 0 18 6 0
          20 6 0 22 6 0 24 6 0 26 6 0
          28 6 0 30 6 0 32 6 0 34 6 0
          36 6 0 38 6 0 40 6 0 0 7 0
          2 7 0 4 7 0 6 7 0 8 7 0
          10 7 0 12 7 0 14 7 0 16 7 0
          18 7 0 20 7 0 22 7 0 24 7 0
          26 7 0 28 7 0 30 7 0 32 7 0
          34 7 0 36 7 0 38 7 0 40 7 0
          0 8 0 2 8 0 4 8 0 6 8 0
          8 8 0 10 8 0 12 8 0 14 8 0
          16 8 0 18 8 0 20 8 0 22 8 0
          24 8 0 26 8 0 28 8 0 30 8 0
          32 8 0 34 8 0 36 8 0 38 8 0
          40 8 0 0 9 0 2 9 0 4 9 0
          6 9 0 8 9 0 10 9 0 12 9 0
          14 9 0 16 9 0 18 9 0 20 9 0
          22 9 0 24 9 0 26 9 0 28 9 0
          30 9 0 32 9 0 34 9 0 36 9 0
          38 9 0 40 9 0 0 10 0 2 10 0
          4 10 0 6 10 0 8 10 0 10 10 0
          12 10 0 14 10 0 16 10 0 18 10 0
          20 10 0 22 10 0 24 10 0 26 10 0
          28 10 0 30 10 0 32 10 0 34 10 0
          36 10 0 38 10 0 40 10 0
        </DataArray>
      </Points>
      <Cells>
        <DataArray type="Int32" Name="connectivity" NumberOfComponents="1" format="ascii">
          0 1 3 2 1 4 5 3 4 6 7 5
          6 8 9 7 8 10 11 9 10 12 13 11
          12 14 15 13 14 16 17 15 16 18 19 17
          18 20 21 19 20 22 23 21 22 24 25 23
          24 26 27 25 26 28 29 27 28 30 31 29
          30 32 33 31 32 34 35 33 34 36 37 35
          36 38 39 37 38 40 41 39 2 3 43 42
          3 5 44 43 5 7 45 44 7 9 46 45
          9 11 47 46 11 13 48 47 13 15 49 48
          15 17 50 49 17 19 51 50 19 21 52 51
          21 23 53 52 23 25 54 53 25 27 55 54
          27 29 56 55 29 31 57 56 31 33 58 57
          33 35 59 58 35 37 60 59 37 39 61 60
          39 41 62 61 42 43 64 63 43 44 65 64
          44 45 66 65 45 46 67 66 46 47 68 67
          47 48 69 68 48 49 70 69 49 50 71 70
          50 51 72 71 51 52 73 72 52 53 74 73
          53 54 75 74 54 55 76 75 55 56 77 76
          56 57 78 77 57 58 79 78 58 59 80 79
          59 60 81 80 60 61 82 81 61 62 83 82
          63 64 85 84 64 65 86 85 65 66 87 86
          66 67 88 87 67 68 89 88 68 69 90 89
          69 70 91 90 70 71 92 91 71 72 93 92
          72 73 94 93 73 74 95 94 74 75 96 95
          75 76 97 96 76 77 98 97 77 78 99 98
          78 79 100 99 79 80 101 100 80 81 102 101
          81 82 103 102 82 83 104 103 84 85 106 105
          85 86 107 106 86 87 108 107 87 88 109 108
          88 89 110 109 89 90 111 110 90 91 112 111
          91 92 113 112 92 93 114 113 93 94 115 114
          94 95 116 115 95 96 117 116 96 97 118 117
          97 98 119 118 98 99 120 119 99 100 121 120
          100 101 122 121 101 102 123 122 102 103 124 123
          103 104 125 124 105 106 127 126 106 107 128 127
          107 108 129 128 108 109 130 129 109 110 131 130
          110 111 132 131 111 112 133 132 112 113 134 133
          113 114 135 134 114 115 136 135 115 116 137 136
          116 117 138 137 117 118 139 138 118 119 140 139
          119 120 141 140 120 121 142 141 121 122 143 142
          122 123 144 143 123 124 145 144 124 125 146 145
          126 127 148 147 127 128 149 148 128 129 150 149
          129 130 151 150 130 131 152 151 131 132 153 152
          132 133 154 153 133 134 155 154 134 135 156 155
          135 136 157 156 136 137 158 157 137 138 159 158
          138 139 160 159 139 140 161 160 140 141 162 161
          141 142 163 162 142 143 164 163 143 144 165 164
          144 145 166 165 145 146 167 166 147 148 169 168
          148 149 170 169 149 150 171 170 150 151 172 171
          151 152 173 172 152 153 174 173 153 154 175 174
          154 155 176 175 155 156 177 176 156 157 178 177
          157 158 179 178 158 159 180 179 159 160 181 180
          160 161 182 181 161 162 183 182 162 163 184 183
          163 164 185 184 164 165 186 185 165 166 187 186
          166 167 188 187 168 169 190 189 169 170 191 190
          170 171 192 191 171 172 193 192 172 173 194 193
          173 174 195 194 174 175 196 195 175 176 197 196
          176 177 198 197 177 178 199 198 178 179 200 199
          179 180 201 200 180 181 202 201 181 182 203 202
          182 183 204 203 183 184 205 204 184 185 206 205
          185 186 207 206 186 187 208 207 187 188 209 208
          189 190 211 210 190 191 212 211 191 192 213 212
          192 193 214 213 193 194 215 214 194 195 216 215
          195 196 217 216 196 197 218 217 197 198 219 218
          198 199 220 219 199 200 221 220 200 201 222 221
          201 202 223 222 202 203 224 223 203 204 225 224
          204 205 226 225 205 206 227 226 206 207 228 227
          207 208 229 228 208 209 230 229
        </DataArray>
        <DataArray type="Int32" Name="offsets" NumberOfComponents="1" format="ascii">
          4 8 12 16 20 24 28 32 36 40 44 48
          52 56 60 64 68 72 76 80 84 88 92 96
          100 104 108 112 116 120 124 128 132 136 140 144
          148 152 156 160 164 168 172 176 180 184 188 192
          196 200 204 208 212 216 220 224 228 232 236 240
          244 248 252 256 260 264 268 272 276 280 284 288
          292 296 300 304 308 312 316 320 324 328 332 336
          340 344 348 352 356 360 364 368 372 376 380 384
          388 392 396 400 404 408 412 416 420 424 428 432
          436 440 444 448 452 456 460 464 468 472 476 480
          484 488 492 496 500 504 508 512 516 520 524 528
          532 536 540 544 548 552 556 560 564 568 572 576
          580 584 588 592 596 600 604 608 612 616 620 624
          628 632 636 640 644 648 652 656 660 664 668 672
          676 680 684 688 692 696 700 704 708 712 716 720
          724 728 732 736 740 744 748 752 756 760 764 768
          772 776 780 784 788 792 796 800
        </DataArray>
        <DataArray type="UInt8" Name="types" NumberOfComponents="1" format="ascii">
          9 9 9 9 9 9 9 9 9 9 9 9
          9 9 9 9 9 9 9 9 9 9 9 9
          9 9 9 9 9 9 9 9 9 9 9 9
          9 9 9 9 9 9 9 9 9 9 9 9
          9 9 9 9 9 9 9 9 9 9 9 9
          9 9 9 9 9 9 9 9 9 9 9 9
          9 9 9 9 9 9 9 9 9 9 9 9
          9 9 9 9 9 9 9 9 9 9 9 9
          9 9 9 9 9 9 9 9 9 9 9 9
          9 9 9 9 9 9 9 9 9 9 9 9
          9 9 9 9 9 9 9 9 9 9 9 9
          9 9 9 9 9 9 9 9 9 9 9 9
          9 9 9 9 9 9 9 9 9 9 9 9
          9 9 9 9 9 9 9 9 9 9 9 9
          9 9 9 9 9 9 9 9 9 9 9 9
          9 9 9 9 9 9 9 9 9 9 9 9
          9 9 9 9 9 9 9 9
        </DataArray>
      </Cells>
    </Piece>
  </UnstructuredGrid>
</VTKFile>
