<?xml version="1.0"?>
<VTKFile type="PolyData" version="0.1" byte_order="LittleEndian">
  <PolyData>
    <Piece NumberOfLines="137" NumberOfPoints="90">
      <PointData Scalars="S_liq">
        <DataArray type="Float32" Name="S_liq" NumberOfComponents="1" format="ascii">
          0.0677175 0.0296144 0.0390818 0.10292 0.0551806 0.0388055 0.0651755 0.649819 0.0378174 0.0466456 0.0360963 0.105158
          0.0974088 1 1 1 1 1 1 1 1 1 0.0890476 1
          1 1 1 1 0.125833 0.0594666 0.208134 0.0617461 0.881741 0.993309 0.0690048 1
          1 0.100917 0.0448591 0.0526294 1 1 0.128235 1 1 1 0.0645327 0.0914599
          1 1 1 0.0692475 1 0.0665535 1 1 0.0569614 0.0243486 1 1
          1 1 1 1 1 1 1 1 1 1 1 1
          1 1 1 1 1 0.942022 1 1 0.676868 1 1 1
          1 1 1 1 1 1
        </DataArray>
        <DataArray type="Float32" Name="p_liq" NumberOfComponents="1" format="ascii">
          101387 101501 101709 101688 101748 101342 102118 102476 101229 101386 101357 102476
          101258 104520 104520 104520 101292 101162 101162 104520 104520 101162 101264 101229
          101177 101921 101921 101170 101880 102237 101879 101256 104520 103375 101213 101242
          101427 101358 101350 101473 101093 101214 101921 101100 100623 101194 101265 101306
          101262 101252 101206 101164 101649 101627 101279 102185 101042 101266 101192 101043
          101881 101083 101132 100274 100978 100910 100659 101008 100829 100526 100304 101154
          101124 101132 101127 101047 101231 102856 101164 101080 104004 101649 101008 100000
          100000 100630 100526 100526 100000 100659
        </DataArray>
        <DataArray type="Float32" Name="rho_liq" NumberOfComponents="1" format="ascii">
          1000 1000 1000 1000 1000 1000 1000 1000 1000 1000 1000 1000
          1000 1000 1000 1000 1000 1000 1000 1000 1000 1000 1000 1000
          1000 1000 1000 1000 1000 1000 1000 1000 1000 1000 1000 1000
          1000 1000 1000 1000 1000 1000 1000 1000 1000 1000 1000 1000
          1000 1000 1000 1000 1000 1000 1000 1000 1000 1000 1000 1000
          1000 1000 1000 1000 1000 1000 1000 1000 1000 1000 1000 1000
          1000 1000 1000 1000 1000 1000 1000 1000 1000 1000 1000 1000
          1000 1000 1000 1000 1000 1000
        </DataArray>
        <DataArray type="Float32" Name="mob_liq" NumberOfComponents="1" format="ascii">
          1000 1000 1000 1000 1000 1000 1000 1000 1000 1000 1000 1000
          1000 1000 1000 1000 1000 1000 1000 1000 1000 1000 1000 1000
          1000 1000 1000 1000 1000 1000 1000 1000 1000 1000 1000 1000
          1000 1000 1000 1000 1000 1000 1000 1000 1000 1000 1000 1000
          1000 1000 1000 1000 1000 1000 1000 1000 1000 1000 1000 1000
          1000 1000 1000 1000 1000 1000 1000 1000 1000 1000 1000 1000
          1000 1000 1000 1000 1000 1000 1000 1000 1000 1000 1000 1000
          1000 1000 1000 1000 1000 1000
        </DataArray>
        <DataArray type="Float32" Name="S_gas" NumberOfComponents="1" format="ascii">
          0.932282 0.970386 0.960918 0.89708 0.944819 0.961195 0.934825 0.350181 0.962183 0.953354 0.963904 0.894842
          0.902591 0 0 0 0 0 0 0 0 0 0.910952 0
          0 0 0 0 0.874167 0.940533 0.791866 0.938254 0.118259 0.00669102 0.930995 0
          0 0.899083 0.955141 0.947371 0 0 0.871765 0 0 0 0.935467 0.90854
          0 0 0 0.930752 0 0.933446 0 0 0.943039 0.975651 0 0
          0 0 0 0 0 0 0 0 0 0 0 0
          0 0 0 0 0 0.0579783 0 0 0.323132 0 0 0
          0 0 0 0 0 0
        </DataArray>
        <DataArray type="Float32" Name="p_gas" NumberOfComponents="1" format="ascii">
          104999 105000 104988 105000 104989 105000 105000 105000 104966 104998 104985 105000
          104988 104520 104520 104520 101292 101162 101162 104520 104520 101162 104956 101229
          101177 101921 101921 101170 104983 104981 104987 104977 104956 104983 104968 101242
          101427 104966 104986 104956 101093 101214 104980 101100 100623 101194 104982 104977
          101262 101252 101206 104980 101649 104929 101279 102185 104968 104926 101192 101043
          101881 101083 101132 100274 100978 100910 100659 101008 100829 100526 100304 101154
          101124 101132 101127 101047 101231 104980 101164 101080 104854 101649 101008 100000
          100000 100630 100526 100526 100000 100659
        </DataArray>
        <DataArray type="Float32" Name="rho_gas" NumberOfComponents="1" format="ascii">
          1.29161 1.29163 1.29148 1.29163 1.29149 1.29163 1.29163 1.29163 1.29121 1.29161 1.29145 1.29163
          1.29148 1.28572 1.28572 1.28572 1.24602 1.24442 1.24442 1.28572 1.28572 1.24442 1.29109 1.24524
          1.2446 1.25375 1.25375 1.24451 1.29141 1.29139 1.29147 1.29135 1.29108 1.29141 1.29123 1.2454
          1.24767 1.29121 1.29145 1.29109 1.24356 1.24505 1.29138 1.24364 1.23778 1.24481 1.2914 1.29134
          1.24565 1.24553 1.24495 1.29138 1.2504 1.29075 1.24585 1.257 1.29123 1.29071 1.24478 1.24295
          1.25325 1.24344 1.24404 1.23349 1.24215 1.24132 1.23823 1.24252 1.24032 1.23659 1.23386 1.24431
          1.24394 1.24405 1.24399 1.24299 1.24526 1.29138 1.24444 1.2434 1.28983 1.2504 1.24252 1.23012
          1.23012 1.23787 1.23659 1.23659 1.23012 1.23823
        </DataArray>
        <DataArray type="Float32" Name="mob_gas" NumberOfComponents="1" format="ascii">
          56557.2 56557.2 56557.2 56557.2 56557.2 56557.2 56557.2 56557.2 56557.2 56557.2 56557.2 56557.2
          56557.2 56557.5 56557.5 56557.5 56559.4 56559.4 56559.4 56557.5 56557.5 56559.4 56557.2 56559.4
          56559.4 56559 56559 56559.4 56557.2 56557.2 56557.2 56557.2 56557.2 56557.2 56557.2 56559.4
          56559.3 56557.2 56557.2 56557.2 56559.5 56559.4 56557.2 56559.5 56559.7 56559.4 56557.2 56557.2
          56559.4 56559.4 56559.4 56557.2 56559.1 56557.2 56559.4 56558.8 56557.2 56557.2 56559.4 56559.5
          56559 56559.5 56559.4 56559.9 56559.5 56559.6 56559.7 56559.5 56559.6 56559.8 56559.9 56559.4
          56559.5 56559.4 56559.5 56559.5 56559.4 56557.2 56559.4 56559.5 56557.3 56559.1 56559.5 56560.1
          56560.1 56559.7 56559.8 56559.8 56560.1 56559.7
        </DataArray>
        <DataArray type="Float32" Name="pc" NumberOfComponents="1" format="ascii">
          3611.65 3498.98 3279.67 3312.16 3241.45 3658.26 2881.59 2523.93 3737.58 3612.53 3628.53 2523.77
          3729.86 -0 -0 -0 0 -0 -0 -0 -0 -0 3692.57 0
          -0 -0 -0 -0 3103.04 2743.81 3107.95 3721.68 435.878 1607.56 3755.42 0
          0 3607.56 3635.63 3483.89 0 0 3059.54 -0 -0 -0 3716.31 3671.02
          0 0 0 3816.44 -0 3301.97 0 0 3925.79 3659.51 0 -0
          -0 -0 -0 -0 -0 -0 -0 -0 -0 -0 -0 -0
          -0 -0 -0 -0 -0 2124.72 0 0 850.497 -0 -0 0
          -0 -0 -0 -0 -0 -0
        </DataArray>
        <DataArray type="Float32" Name="porosity" NumberOfComponents="1" format="ascii">
          1 1 1 1 1 1 1 1 1 1 1 1
          1 1 1 1 1 1 1 1 1 1 1 1
          1 1 1 1 1 1 1 1 1 1 1 1
          1 1 1 1 1 1 1 1 1 1 1 1
          1 1 1 1 1 1 1 1 1 1 1 1
          1 1 1 1 1 1 1 1 1 1 1 1
          1 1 1 1 1 1 1 1 1 1 1 1
          1 1 1 1 1 1
        </DataArray>
        <DataArray type="Float32" Name="poreInscribedRadius" NumberOfComponents="1" format="ascii">
          0.00010842 0.0002263 0.00018872 8.6711e-05 0.00014246 0.00017024 0.00014006 5.8137e-05 0.00017043 0.00014712 0.00018289 0.00011213
          8.001e-05 0.00026652 0.00010984 0.00018149 0.0001191 0.00010862 6.7563e-05 0.00013353 8.8091e-05 0.00011873 8.6177e-05 0.00014165
          9.7691e-05 0.00014071 8.5166e-05 0.00010965 8.1041e-05 0.00015832 6.1496e-05 0.00011323 0.00033347 6.7184e-05 0.00010274 0.00016438
          0.00011759 8.0701e-05 0.00015113 0.00013784 9.8161e-05 0.00013 8.1223e-05 0.00014997 0.00013153 0.00020701 0.00010946 8.5023e-05
          7.8721e-05 0.00017262 0.00012575 0.00010082 0.00015856 0.00012022 0.00019603 9.1747e-05 0.0001146 0.00025862 0.00012908 0.00025963
          0.00010958 6.7231e-05 0.00012907 0.00015315 9.4275e-05 0.00019972 7.1623e-05 0.00014025 0.00011092 0.00015744 5.0362e-05 0.00022549
          0.00010874 9.8868e-05 0.00010793 0.00015434 8.0185e-05 6.8354e-05 0.00014551 0.00014525 0.00017218 0.00012177 9.0671e-05 0.00015715
          0.00012027 0.00015784 0.00022979 0.00010367 5.3866e-05 0.00024136
        </DataArray>
        <DataArray type="Float32" Name="coordinationNumber" NumberOfComponents="1" format="ascii">
          6 1 4 1 3 1 5 2 6 3 4 1
          2 4 2 3 2 6 1 1 1 1 4 2
          3 2 1 2 3 7 2 4 3 4 6 2
          3 4 3 5 5 3 4 6 4 5 4 4
          4 4 5 7 3 3 2 3 2 5 2 4
          3 2 2 2 3 4 5 4 4 6 2 5
          4 3 2 2 2 1 1 4 2 1 1 3
          1 2 1 1 1 1
        </DataArray>
        <DataArray type="Float32" Name="poreLabel" NumberOfComponents="1" format="ascii">
          -1 2 -1 2 -1 2 2 -1 -1 -1 -1 2
          -1 -1 -1 -1 -1 -1 -1 -1 -1 -1 -1 -1
          -1 -1 -1 -1 -1 -1 -1 -1 -1 -1 -1 -1
          -1 -1 -1 -1 -1 -1 -1 -1 -1 -1 -1 -1
          -1 -1 -1 -1 -1 -1 -1 -1 -1 -1 -1 -1
          -1 -1 -1 -1 -1 -1 -1 -1 -1 -1 -1 -1
          -1 -1 -1 -1 -1 -1 -1 -1 -1 -1 -1 3
          3 -1 -1 -1 3 -1
        </DataArray>
      </PointData>
      <CellData Scalars="process rank" Vectors="velocity_liq (m/s)">
        <DataArray type="Float32" Name="velocity_liq (m/s)" NumberOfComponents="3" format="ascii">
          0.153478 0.153478 -0.153478 -0.00183686 0 0.00183686 -0.0295694 0.0295694 0 0.0260357 -0 -0
          -0.0211201 0.0211201 0 0.0168506 0.0168506 0.0168506 0.0184189 -0 0.0184189 0.0279145 -0 -0.0279145
          0.000171369 -0.000171369 -0.000171369 -0.00843986 0.00843986 0.00843986 0.0262216 0.0262216 -0.0262216 -0 0 0
          -0 0 -0 0.149295 -0 -0 -0.0859737 0.0859737 0.0859737 -0 -0 0
          -0 0 -0 -0 0 -0 -0 0 0 -0.0582422 0.0582422 0
          0.0475686 0.0475686 -0.0475686 -0 0 -0 -0.0118848 0 0 0.00843075 -0.00843075 -0
          -0.00875489 0 0 -0.0450616 -0.0450616 0 -0.0109964 0 0 0.0320696 -0 -0.0320696
          0.208632 -0 -0 1.90798 1.90798 -0 0 -0 -0 -0.040424 -0.040424 0.040424
          0.00268053 0.00268053 0.00268053 0.127274 -0 0.127274 -0 -0 0.00385177 0.194151 0.194151 -0
          -0.0658577 0 0.0658577 -0 -0 0.130483 0.0377613 -0 -0 -0 0.14971 -0
          -0 0.00449242 -0.00449242 0 0 -0 -0.0167121 0.0167121 0 -0 0.226193 -0.226193
          0.0829615 0.0829615 -0 -0.0124067 0.0124067 0.0124067 -0 0 0 -0.0163352 0 0
          0 0 -0.328368 0.647396 0.647396 0.647396 -0.339013 0 0.339013 0 -0.0712817 0
          -0.172231 0 -0.172231 0 -0.0509268 0 0.0433103 -0 0.0433103 -0 -0 0.00488658
          0 -0.281902 0 0.11696 0.11696 -0.11696 0.0887533 -0 -0.0887533 0.0448004 0.0448004 0.0448004
          0 -0.00766399 -0.00766399 -0 0.0195296 0.0195296 0 -0.10442 0 0.0556849 -0.0556849 0.0556849
          0.0357621 -0 0.0357621 -0 0.010895 0.010895 -0.205573 -0.205573 0.205573 0.123711 -0 0.123711
          -0.0125399 0 -0.0125399 -0 0.00918484 -0.00918484 -0 0.170168 -0 1.95364 1.95364 -0
          -0.721283 -0.721283 0.721283 -0 0.915465 0.915465 0.0105497 -0.0105497 -0 0.133225 -0.133225 -0.133225
          -0 0.0630125 -0.0630125 -0.249628 0 -0.249628 0.249569 -0 -0.249569 0.0998937 -0.0998937 -0.0998937
          -1.42952 0 0 -0 -0 1.06911 0.259246 -0.259246 -0 -0 -0 0.146735
          -0 0.366281 0.366281 -0.0299241 0.0299241 0.0299241 0.915677 -0 -0.915677 -0 0.135372 -0.135372
          -0 0.457639 -0 0.279244 0.279244 -0 -0.164941 0.164941 0 -0.360659 0.360659 0.360659
          -0.0890523 0.0890523 0 0 0 -0.501089 0.404893 -0.404893 0.404893 0.0868192 -0.0868192 0.0868192
          1.05402 -0 -1.05402 0 0 -0.0610394 0 -0.0473243 0 0.134059 0.134059 0.134059
          -0 0.00488207 -0.00488207 -0 -0 0.0415085 0.00583582 0.00583582 -0 -0.0290041 -0.0290041 0.0290041
          0 -0.130847 0 -0.00492635 -0.00492635 0.00492635 0.105351 0.105351 0.105351 0.0879584 0.0879584 0.0879584
          0.0479716 -0 -0 -0.110805 -0.110805 0 -0.0905923 0.0905923 0.0905923 -0 0 -0
          0.229126 0.229126 0.229126 -0 0.0383811 0.0383811 0.171581 0.171581 -0.171581 -0 0.0122754 -0
          -0.0698263 0 0.0698263 -0 -0 0 -0.0368719 0.0368719 0 -0.0881313 0 0
          -0.100911 0.100911 0.100911 -0 0 0 -0.105401 0.105401 -0.105401 4.18169 4.18169 -0
          -3.65468 3.65468 3.65468 0.746354 0.746354 -0.746354 -0 -0 0.474527 -0.420001 0.420001 0
          -0 0.571377 0.571377 -0 -0 0.486924 0.830751 -0 -0 -0 0 0
          -0 0 0 0 -0.14665 0.14665 1.0216 -0 1.0216 -0 0 0
          0.592758 -0.592758 0.592758
        </DataArray>
        <DataArray type="Float32" Name="velocity_gas (m/s)" NumberOfComponents="3" format="ascii">
          -0 -0 0 2.13177 -0 -2.13177 2.01076 -2.01076 -0 0.0755935 -0 -0
          0.00268501 -0.00268501 -0 1.68017 1.68017 1.68017 0.0985975 -0 0.0985975 1.35095 -0 -1.35095
          -0 0 0 -0.0260274 0.0260274 0.0260274 -0 -0 0 -0 0 0
          -0 0 -0 -0 0 0 -0 0 0 -0 -0 0
          -0 0 -0 -0 0 -0 -0 0 0 -0 0 0
          -0 -0 0 -0 0 -0 -0 0 0 -0 0 0
          0.789583 -0 -0 1.48534 1.48534 -0 0.154523 -0 -0 2.00063 -0 -2.00063
          -3.10919 0 0 -0 -0 0 0 -0 -0 0.129183 0.129183 -0.129183
          0.863661 0.863661 0.863661 -0 0 -0 0 0 -0 -0 -0 0
          -0 0 0 0 0 -0 -0 0 0 0 -0 0
          0 -0.0427985 0.0427985 0 0 -0 1.86208 -1.86208 -0 0 -0 0
          -0 -0 0 -0.030804 0.030804 0.030804 -0 0 0 -0 0 0
          0 0 -0 -0 -0 -0 -0 0 0 0 -0 0
          -0 0 -0 -0 0.486386 -0 0.196937 -0 0.196937 0 0 -0.0437007
          0 -0 0 -0 -0 0 -0 0 0 -0 -0 -0
          -0 1.90498 1.90498 -0 0.103651 0.103651 0 -0.242021 0 -0.124573 0.124573 -0.124573
          0.039032 -0 0.039032 -0 0.033447 0.033447 -0 -0 0 -0 0 -0
          4.97934 -0 4.97934 0 -1.05742 1.05742 0 -0 0 -0 -0 0
          -0 -0 0 0 -0 -0 0.0394817 -0.0394817 -0 -0 0 0
          0 -0 0 -0 0 -0 -0 0 0 -0 0 0
          -0 0 0 0 0 -0 -0 0 0 0 0 -0
          0 -0 -0 -0 0 0 -0 0 0 0 -0 0
          0 -0 0 -0 -0 0 -0 0 0 -0 0 0
          -0 0 0 0 0 -0 -0 0 -0 -0 0 -0
          -0 0 0 0 0 -0 0 -0 0 -0 -0 -0
          0 -0 0 0 0 -0 -0 -0 0 -0 -0 0
          0 -0 0 -0 -0 0 -0 -0 -0 -0 -0 -0
          -0 0 0 -0 -0 0 0.00637888 -0.00637888 -0.00637888 -0 0 -0
          -0 -0 -0 0 -0 -0 -0 -0 0 -0 0.242285 -0
          4.57475 -0 -4.57475 -0 -0 0 -0 0 0 -0 0 0
          -0 0 0 -0 0 0 -0 0 -0 -0 -0 0
          -0 0 0 -0 -0 0 0 0 -0 -0 0 0
          0 -0 -0 0 0 -0 -0 0 0 -0 0 0
          -0 0 0 0 -0 0 -0 0 -0 -0 0 0
          -0 0 -0
        </DataArray>
        <DataArray type="Float32" Name="process rank" NumberOfComponents="1" format="ascii">
          0 0 0 0 0 0 0 0 0 0 0 0
          0 0 0 0 0 0 0 0 0 0 0 0
          0 0 0 0 0 0 0 0 0 0 0 0
          0 0 0 0 0 0 0 0 0 0 0 0
          0 0 0 0 0 0 0 0 0 0 0 0
          0 0 0 0 0 0 0 0 0 0 0 0
          0 0 0 0 0 0 0 0 0 0 0 0
          0 0 0 0 0 0 0 0 0 0 0 0
          0 0 0 0 0 0 0 0 0 0 0 0
          0 0 0 0 0 0 0 0 0 0 0 0
          0 0 0 0 0 0 0 0 0 0 0 0
          0 0 0 0 0
        </DataArray>
        <DataArray type="Float32" Name="throatLabel" NumberOfComponents="1" format="ascii">
          2 2 2 2 2 2 2 2 2 -1 -1 -1
          -1 -1 -1 -1 -1 -1 -1 -1 -1 -1 -1 -1
          -1 -1 -1 -1 -1 -1 -1 -1 -1 -1 -1 -1
          -1 -1 -1 -1 -1 -1 -1 -1 -1 -1 -1 -1
          -1 -1 -1 -1 -1 -1 -1 -1 -1 -1 -1 -1
          -1 -1 -1 -1 -1 -1 -1 -1 -1 -1 -1 -1
          -1 -1 -1 -1 -1 -1 -1 -1 -1 -1 -1 -1
          -1 -1 -1 -1 -1 -1 -1 -1 -1 -1 -1 -1
          -1 -1 -1 -1 -1 -1 -1 -1 -1 -1 -1 -1
          -1 -1 -1 -1 -1 -1 -1 -1 -1 -1 -1 -1
          -1 -1 -1 3 -1 3 -1 -1 -1 -1 3 -1
          -1 -1 3 -1 3
        </DataArray>
        <DataArray type="Float32" Name="throatInscribedRadius" NumberOfComponents="1" format="ascii">
          3.3304e-05 3.384e-05 3.3615e-05 3.3259e-05 3.3423e-05 3.3717e-05 3.3301e-05 3.3963e-05 3.3418e-05 3.4247e-05 3.3272e-05 3.37e-05
          3.3125e-05 3.3391e-05 3.3434e-05 3.3768e-05 3.3951e-05 3.3734e-05 3.3508e-05 3.3908e-05 3.3903e-05 3.3674e-05 3.3826e-05 3.3772e-05
          3.3303e-05 3.389e-05 3.3413e-05 3.3431e-05 3.3693e-05 3.353e-05 3.3589e-05 3.3834e-05 3.3987e-05 3.3567e-05 3.3743e-05 3.3553e-05
          3.371e-05 3.3781e-05 3.3426e-05 3.3726e-05 3.3836e-05 3.3664e-05 3.422e-05 3.3429e-05 3.3386e-05 3.305e-05 3.3941e-05 3.3926e-05
          3.3606e-05 3.3937e-05 3.3695e-05 3.3731e-05 3.3671e-05 3.3781e-05 3.3667e-05 3.4584e-05 3.3243e-05 3.3015e-05 3.3252e-05 3.3267e-05
          3.3488e-05 3.3576e-05 3.356e-05 3.3816e-05 3.3764e-05 3.3887e-05 3.4237e-05 3.4047e-05 3.3204e-05 3.2859e-05 3.3938e-05 3.3021e-05
          3.3656e-05 3.3645e-05 3.4391e-05 3.361e-05 3.3463e-05 3.3712e-05 3.3716e-05 3.3657e-05 3.3429e-05 3.3224e-05 3.374e-05 3.3184e-05
          3.3288e-05 3.4084e-05 3.3492e-05 3.3586e-05 3.3937e-05 3.3532e-05 3.3981e-05 3.3517e-05 3.3975e-05 3.3845e-05 3.3562e-05 3.3343e-05
          3.3284e-05 3.3542e-05 3.3486e-05 3.3496e-05 3.3966e-05 3.3533e-05 3.402e-05 3.3455e-05 3.3962e-05 3.3458e-05 3.3693e-05 3.3961e-05
          3.3494e-05 3.3486e-05 3.4314e-05 3.3954e-05 3.3488e-05 3.3852e-05 3.3512e-05 3.3871e-05 3.4113e-05 3.3098e-05 3.3981e-05 3.4127e-05
          3.3649e-05 3.4226e-05 3.3685e-05 3.322e-05 3.2903e-05 3.3521e-05 3.3874e-05 3.374e-05 3.3772e-05 3.344e-05 3.3682e-05 3.3086e-05
          3.3378e-05 3.3359e-05 3.3808e-05 3.3628e-05 3.3247e-05
        </DataArray>
        <DataArray type="Float32" Name="throatLength" NumberOfComponents="1" format="ascii">
          6.6609e-05 3.384e-05 3.3615e-05 9.9777e-05 6.6846e-05 0.00010115 9.9902e-05 6.7925e-05 0.00010025 0.00010274 9.9816e-05 3.37e-05
          9.9376e-05 6.6781e-05 0.0001003 6.7537e-05 6.7903e-05 0.0001012 3.3508e-05 6.7817e-05 0.00010171 6.7347e-05 0.00010148 0.00010132
          6.6606e-05 3.389e-05 6.6826e-05 3.3431e-05 6.7385e-05 6.706e-05 0.00010077 0.0001015 0.00010196 0.0001007 6.7487e-05 0.00010066
          6.7421e-05 3.3781e-05 3.3426e-05 0.00010118 6.7672e-05 0.00010099 3.422e-05 6.6858e-05 6.6772e-05 3.305e-05 6.7881e-05 6.7852e-05
          3.3606e-05 6.7873e-05 3.3695e-05 3.3731e-05 3.3671e-05 3.3781e-05 3.3667e-05 3.4584e-05 6.6486e-05 3.3015e-05 6.6503e-05 9.9802e-05
          6.6975e-05 6.7153e-05 6.7119e-05 3.3816e-05 6.7529e-05 0.00010166 0.00010271 3.4047e-05 3.3204e-05 6.5718e-05 6.7876e-05 6.6043e-05
          3.3656e-05 0.00010094 3.4391e-05 3.361e-05 3.3463e-05 3.3712e-05 6.7432e-05 6.7313e-05 3.3429e-05 9.9673e-05 0.00010122 9.9553e-05
          3.3288e-05 0.00010225 0.00010048 0.00010076 0.00010181 0.0001006 6.7962e-05 3.3517e-05 6.7951e-05 3.3845e-05 3.3562e-05 0.00010003
          3.3284e-05 3.3542e-05 3.3486e-05 6.6992e-05 6.7931e-05 3.3533e-05 0.00010206 6.691e-05 0.00010189 6.6916e-05 6.7385e-05 3.3961e-05
          3.3494e-05 6.6972e-05 3.4314e-05 0.00010186 3.3488e-05 0.00010156 6.7024e-05 0.00010161 0.00010234 3.3098e-05 6.7962e-05 6.8254e-05
          0.00010095 0.00010268 3.3685e-05 3.322e-05 6.5807e-05 3.3521e-05 6.7748e-05 6.748e-05 3.3772e-05 3.344e-05 0.00010104 9.9259e-05
          6.6757e-05 0.00010008 3.3808e-05 0.00010088 9.974e-05
        </DataArray>
        <DataArray type="Float32" Name="pcEntry" NumberOfComponents="1" format="ascii">
          4106.16 4041.12 4068.17 4111.71 4091.54 4055.86 4106.53 4026.48 4092.15 3993.09 4110.11 4057.91
          4128.35 4095.46 4090.19 4049.74 4027.91 4053.82 4081.16 4033.01 4033.61 4061.04 4042.79 4049.26
          4106.28 4035.16 4092.76 4090.56 4058.75 4078.48 4071.32 4041.84 4023.64 4073.98 4052.74 4075.68
          4056.7 4048.18 4091.17 4054.78 4041.6 4062.25 3996.24 4090.8 4096.07 4137.71 4029.09 4030.87
          4069.26 4029.57 4058.51 4054.18 4061.4 4048.18 4061.88 3954.18 4113.69 4142.1 4112.58 4110.72
          4083.6 4072.89 4074.83 4043.99 4050.21 4035.51 3994.26 4016.55 4118.52 4161.77 4029.45 4141.35
          4063.21 4064.54 3976.37 4068.77 4086.65 4056.46 4055.98 4063.09 4090.8 4116.04 4053.1 4121.01
          4108.13 4012.19 4083.11 4071.68 4029.57 4078.24 4024.35 4080.06 4025.06 4040.52 4074.59 4101.35
          4108.62 4077.02 4083.84 4082.62 4026.13 4078.12 4019.74 4087.62 4026.6 4087.26 4058.75 4026.72
          4082.86 4083.84 3985.3 4027.55 4083.6 4039.69 4080.67 4037.42 4008.78 4131.71 4024.35 4007.13
          4064.06 3995.54 4059.71 4116.54 4156.2 4079.58 4037.06 4053.1 4049.26 4089.46 4060.08 4133.21
          4097.05 4099.39 4044.94 4066.59 4113.2
        </DataArray>
        <DataArray type="Float32" Name="transmissibilityW" NumberOfComponents="1" format="ascii">
          1.03853e-14 5.13592e-17 3.47424e-17 1.23208e-17 4.53826e-17 1.05966e-17 1.22935e-17 1.7764e-17 6.99529e-15 1.05192e-17 6.90373e-15 2.15208e-14
          6.81256e-15 1.04673e-14 7.0052e-15 1.08255e-14 1.10024e-14 7.19547e-15 2.1155e-14 1.09607e-14 7.30394e-15 1.07357e-14 7.25421e-15 7.21938e-15
          2.84459e-17 5.59065e-17 2.70538e-17 3.26127e-17 5.47666e-17 1.05984e-14 7.10273e-15 1.18879e-17 1.03141e-17 7.08906e-15 1.08015e-14 7.08005e-15
          1.07698e-14 2.16763e-14 2.10001e-14 7.19006e-15 1.58388e-17 7.15077e-15 3.13221e-17 1.05029e-14 1.04624e-14 3.40414e-17 1.09931e-14 1.09783e-14
          2.13412e-14 1.09892e-14 2.15112e-14 2.15802e-14 2.14653e-14 6.67837e-17 3.25718e-17 3.15254e-17 1.03285e-14 2.02349e-14 1.03371e-14 6.90054e-15
          1.62788e-17 1.78282e-17 5.49836e-17 3.24282e-17 1.46006e-17 2.34811e-17 7.52208e-15 2.21924e-14 4.27609e-17 1.6002e-17 1.099e-14 1.01228e-14
          2.14366e-14 7.13817e-15 2.56059e-17 2.13488e-14 2.10699e-14 2.15438e-14 1.07757e-14 1.07194e-14 2.10058e-14 6.87382e-15 7.19916e-15 6.84902e-15
          2.07411e-14 7.42176e-15 7.0413e-15 7.10089e-15 7.32608e-15 7.06656e-15 1.10318e-14 2.11721e-14 1.10258e-14 2.17998e-14 2.12575e-14 6.94795e-15
          2.07336e-14 2.12195e-14 2.11134e-14 1.05662e-14 1.10174e-14 2.12024e-14 7.37989e-15 1.05274e-14 7.34192e-15 1.05302e-14 1.07538e-14 2.20247e-14
          2.11285e-14 1.05567e-14 2.87335e-17 7.33716e-15 2.11172e-14 7.27081e-15 1.05813e-14 1.1478e-17 1.71931e-17 2.03879e-14 1.10318e-14 1.11746e-14
          7.14086e-15 7.51462e-15 2.1492e-14 2.06142e-14 1.00147e-14 2.11797e-14 1.09279e-14 1.07987e-14 2.1659e-14 2.10265e-14 7.16253e-15 6.78852e-15
          1.04547e-14 6.95781e-15 2.17283e-14 7.12799e-15 6.88824e-15
        </DataArray>
        <DataArray type="Float32" Name="transmissibilityN" NumberOfComponents="1" format="ascii">
          0 1.90116e-14 1.91097e-14 6.13336e-15 8.67771e-15 6.46582e-15 6.15907e-15 9.85999e-15 0 6.7966e-15 0 0
          0 0 0 0 0 0 0 0 0 0 0 0
          8.95474e-15 1.89788e-14 9.08733e-15 1.88509e-14 8.73139e-15 0 0 6.49269e-15 6.64178e-15 0 0 0
          0 0 0 0 9.80969e-15 0 2.03473e-14 0 0 1.81281e-14 0 0
          0 0 0 0 0 1.85081e-14 1.92786e-14 2.10332e-14 0 0 0 0
          9.47776e-15 9.50419e-15 8.61264e-15 1.9556e-14 9.7885e-15 6.2037e-15 0 0 1.81246e-14 8.93214e-15 0 0
          0 0 2.08931e-14 0 0 0 0 0 0 0 0 0
          0 0 0 0 0 0 0 0 0 0 0 0
          0 0 0 0 0 0 0 0 0 0 0 0
          0 0 2.06222e-14 0 0 0 0 6.52931e-15 6.50135e-15 0 0 0
          0 0 0 0 0 0 0 0 0 0 0 0
          0 0 0 0 0
        </DataArray>
        <DataArray type="Float32" Name="volumeFluxW" NumberOfComponents="1" format="ascii">
          1.17939e-09 1.06841e-12 1.40986e-11 9.00591e-12 1.623e-11 9.4268e-12 9.00589e-12 1.35286e-11 1.32591e-12 4.7411e-12 2.01112e-10 0
          0 6.65829e-10 6.65829e-10 0 0 0 0 3.78806e-10 3.78806e-10 0 5.43945e-11 5.43945e-11
          3.75959e-12 2.7366e-11 4.61278e-12 1.47741e-11 1.25038e-10 1.21343e-08 0 2.39943e-11 1.48537e-12 8.11222e-10 1.75424e-11 1.23645e-09
          4.2335e-10 5.95605e-10 1.68762e-10 6.81148e-10 2.05203e-12 0 7.63367e-12 1.42988e-09 5.23094e-10 7.111e-12 0 7.52056e-11
          1.48339e-09 5.1658e-09 2.17732e-09 3.24412e-10 1.10458e-09 2.38639e-11 2.00102e-11 1.59183e-12 1.24612e-09 8.83244e-10 5.5513e-10 3.43503e-10
          3.5307e-12 9.42798e-12 6.25816e-11 3.15097e-11 1.56672e-11 7.42675e-12 1.66947e-09 8.11222e-10 6.59251e-12 4.15565e-12 7.83988e-10 1.20504e-08
          5.66045e-09 5.86216e-09 4.36789e-12 1.04266e-09 3.99146e-10 1.60486e-09 1.60486e-09 7.83988e-10 6.38993e-09 4.72046e-09 1.66947e-09 6.46327e-10
          2.29596e-09 2.40848e-10 5.81031e-09 8.63817e-10 2.10829e-09 1.77614e-09 1.0774e-09 2.80703e-09 5.81485e-10 2.29596e-09 3.15978e-09 6.68722e-10
          6.60536e-09 2.74693e-10 2.12261e-10 1.04208e-09 3.18616e-11 1.86699e-10 3.82072e-11 2.24906e-10 6.03685e-10 3.82072e-11 8.28592e-10 7.02844e-10
          2.15267e-10 7.02844e-10 4.86077e-11 0 1.78022e-09 2.48806e-10 1.33503e-09 4.13579e-12 4.08655e-11 0 2.40848e-10 4.10569e-10
          7.91598e-10 0 8.28592e-10 2.61052e-08 2.7412e-08 5.81031e-09 2.17798e-09 2.70468e-09 3.68648e-09 2.17798e-09 3.76987e-09 0
          0 9.23171e-10 6.60536e-09 0 4.53945e-09
        </DataArray>
        <DataArray type="Float32" Name="volumeFluxN" NumberOfComponents="1" format="ascii">
          0 1.25695e-08 1.18942e-08 3.08326e-10 1.49039e-11 1.22935e-08 5.70313e-10 8.16035e-09 0 1.96872e-10 0 0
          0 0 0 0 0 0 0 0 0 0 0 0
          3.1638e-09 8.74834e-09 6.25235e-10 1.17269e-08 1.2255e-08 0 0 9.47873e-10 6.4332e-09 0 0 0
          0 0 0 0 2.5763e-10 0 1.14843e-08 0 0 2.1546e-10 0 0
          0 0 0 0 0 1.99225e-09 1.17174e-09 1.94838e-10 0 0 0 0
          1.12073e-08 6.10972e-10 9.45279e-10 9.16444e-10 2.34612e-10 1.94469e-10 0 0 2.84369e-08 5.98004e-09 0 0
          0 0 2.47809e-10 0 0 0 0 0 0 0 0 0
          0 0 0 0 0 0 0 0 0 0 0 0
          0 0 0 0 0 0 0 0 0 0 0 0
          0 0 4.86139e-11 0 0 0 0 1.03021e-09 2.74376e-08 0 0 0
          0 0 0 0 0 0 0 0 0 0 0 0
          0 0 0 0 0
        </DataArray>
      </CellData>
      <Points>
        <DataArray type="Float32" Name="Coordinates" NumberOfComponents="3" format="ascii">
          2 2 3 1 1 4 2 1 4 1 1 5
          2 1 1 1 2 1 1 2 3 2 1 3
          2 3 4 2 2 4 2 2 2 1 2 4
          1 2 5 2 3 2 1 3 2 2 3 3
          1 3 4 2 4 4 1 3 5 1 4 1
          1 4 2 1 4 4 2 3 5 1 4 5
          2 5 4 2 4 2 1 5 1 1 5 4
          3 1 1 3 2 1 3 1 4 3 1 3
          2 2 1 3 3 1 3 3 3 3 2 3
          3 2 2 2 2 5 3 2 5 3 2 4
          2 4 3 3 4 5 3 3 2 3 4 3
          3 5 4 3 4 2 4 1 2 3 1 2
          4 2 1 4 1 1 4 2 4 4 2 2
          4 3 1 4 2 5 3 3 5 4 4 1
          4 2 3 4 3 5 3 3 4 4 3 3
          3 4 1 3 5 3 4 3 2 4 4 2
          3 5 2 3 4 4 4 5 4 4 3 4
          4 4 3 4 4 5 4 5 3 5 2 2
          4 1 4 4 1 3 5 2 3 5 2 5
          5 3 2 5 1 1 5 1 3 5 3 3
          5 2 4 5 4 1 5 3 4 5 4 5
          5 5 1 4 4 4 5 3 5 5 4 4
          5 5 4 5 4 3
        </DataArray>
      </Points>
      <Lines>
        <DataArray type="Int32" Name="connectivity" NumberOfComponents="1" format="ascii">
          0 1 2 3 4 5 0 6 7 6 8 6
          9 6 10 6 7 11 2 12 8 12 13 14
          15 14 8 16 0 16 17 18 13 19 15 20
          17 21 22 23 24 23 25 26 24 27 17 27
          28 4 29 4 30 2 31 2 29 32 33 32
          13 32 33 10 34 10 35 10 9 0 34 0
          36 0 37 9 38 37 22 37 8 37 15 13
          39 8 40 8 41 22 39 22 42 25 43 40
          17 40 44 40 45 40 24 17 41 17 29 28
          46 28 31 47 36 47 48 47 49 47 50 31
          39 31 38 30 33 29 46 29 51 29 42 29
          52 36 50 35 53 39 34 39 54 38 55 33
          55 42 43 42 56 34 51 34 45 34 57 58
          59 58 50 54 55 60 45 60 52 60 43 45
          61 45 62 43 63 43 64 43 44 65 66 65
          67 65 59 65 57 41 61 64 68 64 69 44
          70 44 46 49 48 49 71 49 48 46 72 73
          74 73 71 73 50 72 74 72 75 72 76 48
          71 51 76 51 77 51 78 51 79 51 67 56
          79 50 57 53 80 53 81 52 71 62 79 59
          71 59 82 67 75 67 83 57 80 57 84 63
          85 68 79 68 66 68 69 85 83 69 86 69
          87 69 66 69 88 70 89 66 83 66
        </DataArray>
        <DataArray type="Int32" Name="offsets" NumberOfComponents="1" format="ascii">
          2 4 6 8 10 12 14 16 18 20 22 24
          26 28 30 32 34 36 38 40 42 44 46 48
          50 52 54 56 58 60 62 64 66 68 70 72
          74 76 78 80 82 84 86 88 90 92 94 96
          98 100 102 104 106 108 110 112 114 116 118 120
          122 124 126 128 130 132 134 136 138 140 142 144
          146 148 150 152 154 156 158 160 162 164 166 168
          170 172 174 176 178 180 182 184 186 188 190 192
          194 196 198 200 202 204 206 208 210 212 214 216
          218 220 222 224 226 228 230 232 234 236 238 240
          242 244 246 248 250 252 254 256 258 260 262 264
          266 268 270 272 274
        </DataArray>
      </Lines>
    </Piece>
  </PolyData>
</VTKFile>
