<?xml version="1.0"?>
<VTKFile type="UnstructuredGrid" version="0.1" byte_order="LittleEndian">
  <UnstructuredGrid>
    <Piece NumberOfCells="80" NumberOfPoints="162">
      <PointData Scalars="p">
        <DataArray type="Float32" Name="p" NumberOfComponents="1" format="ascii">
          139057 138831 139057 138831 138601 138601 138367 138367 138129 138129 137887 137887
          137639 137639 137387 137387 137128 137128 136862 136862 136588 136588 136306 136306
          136012 136012 135707 135707 135388 135388 135054 135054 134704 134704 134335 134335
          133947 133947 133540 133540 133113 133113 132667 132667 132202 132202 131721 131721
          131225 131225 130715 130715 130195 130195 129665 129665 129128 129128 128584 128584
          128036 128036 127484 127484 126929 126929 126372 126372 125814 125814 125255 125255
          124695 124695 124135 124135 123575 123575 123014 123014 122453 122453 121892 121892
          121330 121330 120769 120769 120208 120208 119647 119647 119085 119085 118524 118524
          117963 117963 117401 117401 116840 116840 116279 116279 115717 115717 115156 115156
          114595 114595 114033 114033 113472 113472 112911 112911 112349 112349 111788 111788
          111227 111227 110665 110665 110104 110104 109543 109543 108981 108981 108420 108420
          107859 107859 107297 107297 106736 106736 106175 106175 105613 105613 105052 105052
          104491 104491 103929 103929 103368 103368 102807 102807 102245 102245 101684 101684
          101123 101123 100561 100561 100000 100000
        </DataArray>
        <DataArray type="Float32" Name="rho" NumberOfComponents="1" format="ascii">
          985.276 985.78 985.276 985.78 986.297 986.297 986.826 986.826 987.361 987.361 987.926 987.926
          988.515 988.515 989.129 989.129 989.796 989.796 990.484 990.484 991.235 991.235 992.004 992.004
          992.817 992.817 993.63 993.63 994.433 994.433 995.216 995.216 995.935 995.935 996.586 996.586
          997.173 997.173 997.654 997.654 998.07 998.07 998.397 998.397 998.679 998.679 998.873 998.873
          999.035 999.035 999.167 999.167 999.264 999.264 999.326 999.326 999.374 999.374 999.411 999.411
          999.438 999.438 999.458 999.458 999.473 999.473 999.484 999.484 999.492 999.492 999.497 999.497
          999.501 999.501 999.503 999.503 999.505 999.505 999.506 999.506 999.506 999.506 999.507 999.507
          999.507 999.507 999.507 999.507 999.507 999.507 999.507 999.507 999.506 999.506 999.506 999.506
          999.506 999.506 999.506 999.506 999.505 999.505 999.505 999.505 999.505 999.505 999.505 999.505
          999.504 999.504 999.504 999.504 999.504 999.504 999.504 999.504 999.503 999.503 999.503 999.503
          999.503 999.503 999.503 999.503 999.502 999.502 999.502 999.502 999.502 999.502 999.501 999.501
          999.501 999.501 999.501 999.501 999.501 999.501 999.5 999.5 999.5 999.5 999.5 999.5
          999.5 999.5 999.499 999.499 999.499 999.499 999.499 999.499 999.499 999.499 999.498 999.498
          999.498 999.498 999.498 999.498 999.498 999.498
        </DataArray>
        <DataArray type="Float32" Name="mu" NumberOfComponents="1" format="ascii">
          0.000496655 0.000505072 0.000496655 0.000505072 0.000513712 0.000513712 0.000522957 0.000522957 0.000533273 0.000533273 0.000544157 0.000544157
          0.000556218 0.000556218 0.000569973 0.000569973 0.000584899 0.000584899 0.000602843 0.000602843 0.000622554 0.000622554 0.000646211 0.000646211
          0.000672468 0.000672468 0.000702811 0.000702811 0.000736834 0.000736834 0.000773569 0.000773569 0.000813958 0.000813958 0.000856649 0.000856649
          0.000899348 0.000899348 0.000943901 0.000943901 0.000985989 0.000985989 0.00102701 0.00102701 0.0010628 0.0010628 0.00109774 0.00109774
          0.00112687 0.00112687 0.0011507 0.0011507 0.00117084 0.00117084 0.00118847 0.00118847 0.00120217 0.00120217 0.00121267 0.00121267
          0.0012206 0.0012206 0.0012265 0.0012265 0.00123083 0.00123083 0.00123397 0.00123397 0.00123622 0.00123622 0.00123781 0.00123781
          0.00123893 0.00123893 0.0012397 0.0012397 0.00124023 0.00124023 0.00124059 0.00124059 0.00124084 0.00124084 0.001241 0.001241
          0.00124111 0.00124111 0.00124118 0.00124118 0.00124122 0.00124122 0.00124125 0.00124125 0.00124127 0.00124127 0.00124129 0.00124129
          0.00124129 0.00124129 0.0012413 0.0012413 0.0012413 0.0012413 0.0012413 0.0012413 0.00124131 0.00124131 0.00124131 0.00124131
          0.00124131 0.00124131 0.00124131 0.00124131 0.00124131 0.00124131 0.00124131 0.00124131 0.00124131 0.00124131 0.00124131 0.00124131
          0.00124131 0.00124131 0.00124131 0.00124131 0.00124131 0.00124131 0.00124131 0.00124131 0.00124131 0.00124131 0.00124131 0.00124131
          0.00124132 0.00124132 0.00124132 0.00124132 0.00124132 0.00124132 0.00124132 0.00124132 0.00124132 0.00124132 0.00124132 0.00124132
          0.00124132 0.00124132 0.00124132 0.00124132 0.00124132 0.00124132 0.00124132 0.00124132 0.00124132 0.00124132 0.00124132 0.00124132
          0.00124132 0.00124132 0.00124132 0.00124132 0.00124138 0.00124138
        </DataArray>
        <DataArray type="Float32" Name="delp" NumberOfComponents="1" format="ascii">
          39057 38830.9 39057 38830.9 38601 38601 38367.3 38367.3 38129.4 38129.4 37886.9 37886.9
          37639.4 37639.4 37386.6 37386.6 37127.6 37127.6 36861.9 36861.9 36588.1 36588.1 36305.5 36305.5
          36012.2 36012.2 35707.2 35707.2 35388.5 35388.5 35054.5 35054.5 34703.9 34703.9 34335.2 34335.2
          33947.3 33947.3 33540.1 33540.1 33112.9 33112.9 32666.7 32666.7 32202.1 32202.1 31721.3 31721.3
          31224.7 31224.7 30715 30715 30194.6 30194.6 29665.1 29665.1 29127.6 29127.6 28583.9 28583.9
          28035.5 28035.5 27483.5 27483.5 26928.9 26928.9 26372.3 26372.3 25814.3 25814.3 25255.2 25255.2
          24695.5 24695.5 24135.2 24135.2 23574.6 23574.6 23013.8 23013.8 22452.8 22452.8 21891.7 21891.7
          21330.5 21330.5 20769.2 20769.2 20208 20208 19646.7 19646.7 19085.4 19085.4 18524 18524
          17962.7 17962.7 17401.4 17401.4 16840.1 16840.1 16278.7 16278.7 15717.4 15717.4 15156.1 15156.1
          14594.7 14594.7 14033.4 14033.4 13472.1 13472.1 12910.7 12910.7 12349.4 12349.4 11788.1 11788.1
          11226.7 11226.7 10665.4 10665.4 10104.1 10104.1 9542.74 9542.74 8981.41 8981.41 8420.07 8420.07
          7858.74 7858.74 7297.4 7297.4 6736.06 6736.06 6174.73 6174.73 5613.39 5613.39 5052.05 5052.05
          4490.72 4490.72 3929.38 3929.38 3368.04 3368.04 2806.7 2806.7 2245.36 2245.36 1684.02 1684.02
          1122.68 1122.68 561.341 561.341 0 0
        </DataArray>
        <DataArray type="Float32" Name="x^H2O_liq" NumberOfComponents="1" format="ascii">
          0.999709 0.999715 0.999709 0.999715 0.999721 0.999721 0.999727 0.999727 0.999733 0.999733 0.999739 0.999739
          0.999746 0.999746 0.999752 0.999752 0.999759 0.999759 0.999766 0.999766 0.999773 0.999773 0.99978 0.99978
          0.999787 0.999787 0.999795 0.999795 0.999803 0.999803 0.999811 0.999811 0.99982 0.99982 0.999829 0.999829
          0.999838 0.999838 0.999847 0.999847 0.999856 0.999856 0.999866 0.999866 0.999875 0.999875 0.999884 0.999884
          0.999894 0.999894 0.999903 0.999903 0.999912 0.999912 0.99992 0.99992 0.999928 0.999928 0.999936 0.999936
          0.999943 0.999943 0.99995 0.99995 0.999956 0.999956 0.999962 0.999962 0.999967 0.999967 0.999972 0.999972
          0.999976 0.999976 0.99998 0.99998 0.999983 0.999983 0.999986 0.999986 0.999988 0.999988 0.99999 0.99999
          0.999992 0.999992 0.999993 0.999993 0.999995 0.999995 0.999996 0.999996 0.999996 0.999996 0.999997 0.999997
          0.999998 0.999998 0.999998 0.999998 0.999999 0.999999 0.999999 0.999999 0.999999 0.999999 0.999999 0.999999
          0.999999 0.999999 1 1 1 1 1 1 1 1 1 1
          1 1 1 1 1 1 1 1 1 1 1 1
          1 1 1 1 1 1 1 1 1 1 1 1
          1 1 1 1 1 1 1 1 1 1 1 1
          1 1 1 1 1 1
        </DataArray>
        <DataArray type="Float32" Name="x^N2_liq" NumberOfComponents="1" format="ascii">
          0.00029057 0.000284745 0.00029057 0.000284745 0.000278873 0.000278873 0.00027292 0.00027292 0.000266861 0.000266861 0.000260675 0.000260675
          0.000254348 0.000254348 0.000247864 0.000247864 0.000241207 0.000241207 0.000234363 0.000234363 0.000227317 0.000227317 0.000220053 0.000220053
          0.000212556 0.000212556 0.000204815 0.000204815 0.00019682 0.00019682 0.000188566 0.000188566 0.000180058 0.000180058 0.000171306 0.000171306
          0.000162332 0.000162332 0.000153167 0.000153167 0.000143854 0.000143854 0.000134445 0.000134445 0.000125002 0.000125002 0.000115593 0.000115593
          0.000106289 0.000106289 9.71658e-05 9.71658e-05 8.82948e-05 8.82948e-05 7.97443e-05 7.97443e-05 7.15759e-05 7.15759e-05 6.38421e-05 6.38421e-05
          5.65854e-05 5.65854e-05 4.98369e-05 4.98369e-05 4.36166e-05 4.36166e-05 3.79329e-05 3.79329e-05 3.27842e-05 3.27842e-05 2.81593e-05 2.81593e-05
          2.40391e-05 2.40391e-05 2.03981e-05 2.03981e-05 1.72059e-05 1.72059e-05 1.44285e-05 1.44285e-05 1.203e-05 1.203e-05 9.97377e-06 9.97377e-06
          8.2234e-06 8.2234e-06 6.74357e-06 6.74357e-06 5.5008e-06 5.5008e-06 4.46385e-06 4.46385e-06 3.60406e-06 3.60406e-06 2.8955e-06 2.8955e-06
          2.31502e-06 2.31502e-06 1.84219e-06 1.84219e-06 1.4592e-06 1.4592e-06 1.15064e-06 1.15064e-06 9.03357e-07 9.03357e-07 7.06189e-07 7.06189e-07
          5.49755e-07 5.49755e-07 4.26236e-07 4.26236e-07 3.2916e-07 3.2916e-07 2.53212e-07 2.53212e-07 1.94053e-07 1.94053e-07 1.48169e-07 1.48169e-07
          1.1273e-07 1.1273e-07 8.54669e-08 8.54669e-08 6.45766e-08 6.45766e-08 4.86303e-08 4.86303e-08 3.6503e-08 3.6503e-08 2.73134e-08 2.73134e-08
          2.03742e-08 2.03742e-08 1.51522e-08 1.51522e-08 1.12356e-08 1.12356e-08 8.30747e-09 8.30747e-09 6.12528e-09 6.12528e-09 4.50399e-09 4.50399e-09
          3.30301e-09 3.30301e-09 2.41597e-09 2.41597e-09 1.76266e-09 1.76266e-09 1.28283e-09 1.28283e-09 9.31357e-10 9.31357e-10 6.74583e-10 6.74583e-10
          4.87473e-10 4.87473e-10 3.51465e-10 3.51465e-10 0 0
        </DataArray>
        <DataArray type="Float32" Name="X^H2O_liq" NumberOfComponents="1" format="ascii">
          0.999548 0.999557 0.999548 0.999557 0.999566 0.999566 0.999576 0.999576 0.999585 0.999585 0.999595 0.999595
          0.999605 0.999605 0.999615 0.999615 0.999625 0.999625 0.999636 0.999636 0.999647 0.999647 0.999658 0.999658
          0.999669 0.999669 0.999682 0.999682 0.999694 0.999694 0.999707 0.999707 0.99972 0.99972 0.999734 0.999734
          0.999748 0.999748 0.999762 0.999762 0.999776 0.999776 0.999791 0.999791 0.999806 0.999806 0.99982 0.99982
          0.999835 0.999835 0.999849 0.999849 0.999863 0.999863 0.999876 0.999876 0.999889 0.999889 0.999901 0.999901
          0.999912 0.999912 0.999923 0.999923 0.999932 0.999932 0.999941 0.999941 0.999949 0.999949 0.999956 0.999956
          0.999963 0.999963 0.999968 0.999968 0.999973 0.999973 0.999978 0.999978 0.999981 0.999981 0.999985 0.999985
          0.999987 0.999987 0.99999 0.99999 0.999991 0.999991 0.999993 0.999993 0.999994 0.999994 0.999995 0.999995
          0.999996 0.999996 0.999997 0.999997 0.999998 0.999998 0.999998 0.999998 0.999999 0.999999 0.999999 0.999999
          0.999999 0.999999 0.999999 0.999999 0.999999 0.999999 1 1 1 1 1 1
          1 1 1 1 1 1 1 1 1 1 1 1
          1 1 1 1 1 1 1 1 1 1 1 1
          1 1 1 1 1 1 1 1 1 1 1 1
          1 1 1 1 1 1
        </DataArray>
        <DataArray type="Float32" Name="X^N2_liq" NumberOfComponents="1" format="ascii">
          0.00045176 0.000442705 0.00045176 0.000442705 0.000433577 0.000433577 0.000424323 0.000424323 0.000414904 0.000414904 0.000405289 0.000405289
          0.000395453 0.000395453 0.000385372 0.000385372 0.000375024 0.000375024 0.000364385 0.000364385 0.000353431 0.000353431 0.000342138 0.000342138
          0.000330483 0.000330483 0.000318449 0.000318449 0.000306019 0.000306019 0.000293188 0.000293188 0.00027996 0.00027996 0.000266354 0.000266354
          0.000252402 0.000252402 0.000238153 0.000238153 0.000223674 0.000223674 0.000209045 0.000209045 0.000194364 0.000194364 0.000179734 0.000179734
          0.000165269 0.000165269 0.000151083 0.000151083 0.000137291 0.000137291 0.000123996 0.000123996 0.000111295 0.000111295 9.92702e-05 9.92702e-05
          8.79868e-05 8.79868e-05 7.74937e-05 7.74937e-05 6.78216e-05 6.78216e-05 5.8984e-05 5.8984e-05 5.09781e-05 5.09781e-05 4.37867e-05 4.37867e-05
          3.738e-05 3.738e-05 3.17185e-05 3.17185e-05 2.67547e-05 2.67547e-05 2.24359e-05 2.24359e-05 1.87064e-05 1.87064e-05 1.5509e-05 1.5509e-05
          1.27872e-05 1.27872e-05 1.04861e-05 1.04861e-05 8.55366e-06 8.55366e-06 6.94122e-06 6.94122e-06 5.60426e-06 5.60426e-06 4.50246e-06 4.50246e-06
          3.59982e-06 3.59982e-06 2.86458e-06 2.86458e-06 2.26903e-06 2.26903e-06 1.78923e-06 1.78923e-06 1.40471e-06 1.40471e-06 1.09811e-06 1.09811e-06
          8.54863e-07 8.54863e-07 6.62793e-07 6.62793e-07 5.11841e-07 5.11841e-07 3.93741e-07 3.93741e-07 3.0175e-07 3.0175e-07 2.30402e-07 2.30402e-07
          1.75293e-07 1.75293e-07 1.329e-07 1.329e-07 1.00416e-07 1.00416e-07 7.56196e-08 7.56196e-08 5.67618e-08 5.67618e-08 4.2472e-08 4.2472e-08
          3.16816e-08 3.16816e-08 2.35615e-08 2.35615e-08 1.74712e-08 1.74712e-08 1.2918e-08 1.2918e-08 9.52475e-09 9.52475e-09 7.00365e-09 7.00365e-09
          5.13614e-09 5.13614e-09 3.7568e-09 3.7568e-09 2.74092e-09 2.74092e-09 1.99478e-09 1.99478e-09 1.44825e-09 1.44825e-09 1.04897e-09 1.04897e-09
          7.58015e-10 7.58015e-10 5.46523e-10 5.46523e-10 0 0
        </DataArray>
        <DataArray type="Float32" Name="T" NumberOfComponents="1" format="ascii">
          329.057 328.013 329.057 328.013 326.942 326.942 325.83 325.83 324.666 324.666 323.439 323.439
          322.131 322.131 320.725 320.725 319.199 319.199 317.533 317.533 315.713 315.713 313.733 313.733
          311.602 311.602 309.343 309.343 306.992 306.992 304.598 304.598 302.217 302.217 299.902 299.902
          297.706 297.706 295.671 295.671 293.827 293.827 292.193 292.193 290.775 290.775 289.571 289.571
          288.567 288.567 287.746 287.746 287.086 287.086 286.564 286.564 286.159 286.159 285.848 285.848
          285.614 285.614 285.44 285.44 285.311 285.311 285.219 285.219 285.152 285.152 285.105 285.105
          285.072 285.072 285.049 285.049 285.033 285.033 285.023 285.023 285.015 285.015 285.011 285.011
          285.008 285.008 285.005 285.005 285.004 285.004 285.003 285.003 285.003 285.003 285.002 285.002
          285.002 285.002 285.002 285.002 285.002 285.002 285.002 285.002 285.002 285.002 285.002 285.002
          285.002 285.002 285.002 285.002 285.002 285.002 285.002 285.002 285.002 285.002 285.002 285.002
          285.002 285.002 285.002 285.002 285.002 285.002 285.002 285.002 285.002 285.002 285.002 285.002
          285.002 285.002 285.002 285.002 285.002 285.002 285.002 285.002 285.002 285.002 285.002 285.002
          285.002 285.002 285.002 285.002 285.002 285.002 285.002 285.002 285.002 285.002 285.002 285.002
          285.002 285.002 285.002 285.002 285 285
        </DataArray>
      </PointData>
      <CellData Scalars="process rank">
        <DataArray type="Float32" Name="process rank" NumberOfComponents="1" format="ascii">
          0 0 0 0 0 0 0 0 0 0 0 0
          0 0 0 0 0 0 0 0 0 0 0 0
          0 0 0 0 0 0 0 0 0 0 0 0
          0 0 0 0 0 0 0 0 0 0 0 0
          0 0 0 0 0 0 0 0 0 0 0 0
          0 0 0 0 0 0 0 0 0 0 0 0
          0 0 0 0 0 0 0 0
        </DataArray>
      </CellData>
      <Points>
        <DataArray type="Float32" Name="Coordinates" NumberOfComponents="3" format="ascii">
          0 0 0 0.25 0 0 0 1 0 0.25 1 0
          0.5 0 0 0.5 1 0 0.75 0 0 0.75 1 0
          1 0 0 1 1 0 1.25 0 0 1.25 1 0
          1.5 0 0 1.5 1 0 1.75 0 0 1.75 1 0
          2 0 0 2 1 0 2.25 0 0 2.25 1 0
          2.5 0 0 2.5 1 0 2.75 0 0 2.75 1 0
          3 0 0 3 1 0 3.25 0 0 3.25 1 0
          3.5 0 0 3.5 1 0 3.75 0 0 3.75 1 0
          4 0 0 4 1 0 4.25 0 0 4.25 1 0
          4.5 0 0 4.5 1 0 4.75 0 0 4.75 1 0
          5 0 0 5 1 0 5.25 0 0 5.25 1 0
          5.5 0 0 5.5 1 0 5.75 0 0 5.75 1 0
          6 0 0 6 1 0 6.25 0 0 6.25 1 0
          6.5 0 0 6.5 1 0 6.75 0 0 6.75 1 0
          7 0 0 7 1 0 7.25 0 0 7.25 1 0
          7.5 0 0 7.5 1 0 7.75 0 0 7.75 1 0
          8 0 0 8 1 0 8.25 0 0 8.25 1 0
          8.5 0 0 8.5 1 0 8.75 0 0 8.75 1 0
          9 0 0 9 1 0 9.25 0 0 9.25 1 0
          9.5 0 0 9.5 1 0 9.75 0 0 9.75 1 0
          10 0 0 10 1 0 10.25 0 0 10.25 1 0
          10.5 0 0 10.5 1 0 10.75 0 0 10.75 1 0
          11 0 0 11 1 0 11.25 0 0 11.25 1 0
          11.5 0 0 11.5 1 0 11.75 0 0 11.75 1 0
          12 0 0 12 1 0 12.25 0 0 12.25 1 0
          12.5 0 0 12.5 1 0 12.75 0 0 12.75 1 0
          13 0 0 13 1 0 13.25 0 0 13.25 1 0
          13.5 0 0 13.5 1 0 13.75 0 0 13.75 1 0
          14 0 0 14 1 0 14.25 0 0 14.25 1 0
          14.5 0 0 14.5 1 0 14.75 0 0 14.75 1 0
          15 0 0 15 1 0 15.25 0 0 15.25 1 0
          15.5 0 0 15.5 1 0 15.75 0 0 15.75 1 0
          16 0 0 16 1 0 16.25 0 0 16.25 1 0
          16.5 0 0 16.5 1 0 16.75 0 0 16.75 1 0
          17 0 0 17 1 0 17.25 0 0 17.25 1 0
          17.5 0 0 17.5 1 0 17.75 0 0 17.75 1 0
          18 0 0 18 1 0 18.25 0 0 18.25 1 0
          18.5 0 0 18.5 1 0 18.75 0 0 18.75 1 0
          19 0 0 19 1 0 19.25 0 0 19.25 1 0
          19.5 0 0 19.5 1 0 19.75 0 0 19.75 1 0
          20 0 0 20 1 0
        </DataArray>
      </Points>
      <Cells>
        <DataArray type="Int32" Name="connectivity" NumberOfComponents="1" format="ascii">
          0 1 3 2 1 4 5 3 4 6 7 5
          6 8 9 7 8 10 11 9 10 12 13 11
          12 14 15 13 14 16 17 15 16 18 19 17
          18 20 21 19 20 22 23 21 22 24 25 23
          24 26 27 25 26 28 29 27 28 30 31 29
          30 32 33 31 32 34 35 33 34 36 37 35
          36 38 39 37 38 40 41 39 40 42 43 41
          42 44 45 43 44 46 47 45 46 48 49 47
          48 50 51 49 50 52 53 51 52 54 55 53
          54 56 57 55 56 58 59 57 58 60 61 59
          60 62 63 61 62 64 65 63 64 66 67 65
          66 68 69 67 68 70 71 69 70 72 73 71
          72 74 75 73 74 76 77 75 76 78 79 77
          78 80 81 79 80 82 83 81 82 84 85 83
          84 86 87 85 86 88 89 87 88 90 91 89
          90 92 93 91 92 94 95 93 94 96 97 95
          96 98 99 97 98 100 101 99 100 102 103 101
          102 104 105 103 104 106 107 105 106 108 109 107
          108 110 111 109 110 112 113 111 112 114 115 113
          114 116 117 115 116 118 119 117 118 120 121 119
          120 122 123 121 122 124 125 123 124 126 127 125
          126 128 129 127 128 130 131 129 130 132 133 131
          132 134 135 133 134 136 137 135 136 138 139 137
          138 140 141 139 140 142 143 141 142 144 145 143
          144 146 147 145 146 148 149 147 148 150 151 149
          150 152 153 151 152 154 155 153 154 156 157 155
          156 158 159 157 158 160 161 159
        </DataArray>
        <DataArray type="Int32" Name="offsets" NumberOfComponents="1" format="ascii">
          4 8 12 16 20 24 28 32 36 40 44 48
          52 56 60 64 68 72 76 80 84 88 92 96
          100 104 108 112 116 120 124 128 132 136 140 144
          148 152 156 160 164 168 172 176 180 184 188 192
          196 200 204 208 212 216 220 224 228 232 236 240
          244 248 252 256 260 264 268 272 276 280 284 288
          292 296 300 304 308 312 316 320
        </DataArray>
        <DataArray type="UInt8" Name="types" NumberOfComponents="1" format="ascii">
          9 9 9 9 9 9 9 9 9 9 9 9
          9 9 9 9 9 9 9 9 9 9 9 9
          9 9 9 9 9 9 9 9 9 9 9 9
          9 9 9 9 9 9 9 9 9 9 9 9
          9 9 9 9 9 9 9 9 9 9 9 9
          9 9 9 9 9 9 9 9 9 9 9 9
          9 9 9 9 9 9 9 9
        </DataArray>
      </Cells>
    </Piece>
  </UnstructuredGrid>
</VTKFile>
