<?xml version="1.0"?>
<VTKFile type="UnstructuredGrid" version="0.1" byte_order="LittleEndian">
  <UnstructuredGrid>
    <Piece NumberOfCells="3200" NumberOfPoints="3321">
      <CellData Scalars="S_liq">
        <DataArray type="Float32" Name="S_liq" NumberOfComponents="1" format="ascii">
          0.159416 0.232948 0.264254 0.290225 0.31697 0.358404 0.520624 0.379248 0.140985 0.100106 0.100016 0.100003
          0.100001 0.1 0.1 0.1 0.1 0.1 0.1 0.1 0.1 0.1 0.1 0.1
          0.1 0.1 0.1 0.1 0.1 0.1 0.1 0.1 0.1 0.1 0.1 0.1
          0.1 0.1 0.1 0.1 0.1 0.1 0.1 0.1 0.1 0.1 0.1 0.1
          0.1 0.1 0.1 0.1 0.1 0.1 0.1 0.1 0.1 0.1 0.1 0.1
          0.1 0.1 0.1 0.1 0.1 0.1 0.1 0.1 0.1 0.1 0.1 0.1
          0.1 0.1 0.1 0.1 0.1 0.1 0.1 0.1 0.19661 0.235984 0.257629 0.276365
          0.297032 0.329836 0.411605 0.240121 0.106044 0.100076 0.100014 0.100003 0.100001 0.1 0.1 0.1
          0.1 0.1 0.1 0.1 0.1 0.1 0.1 0.1 0.1 0.1 0.1 0.1
          0.1 0.1 0.1 0.1 0.1 0.1 0.1 0.1 0.1 0.1 0.1 0.1
          0.1 0.1 0.1 0.1 0.1 0.1 0.1 0.1 0.1 0.1 0.1 0.1
          0.1 0.1 0.1 0.1 0.1 0.1 0.1 0.1 0.1 0.1 0.1 0.1
          0.1 0.1 0.1 0.1 0.1 0.1 0.1 0.1 0.1 0.1 0.1 0.1
          0.1 0.1 0.1 0.1 0.202565 0.240016 0.26049 0.278127 0.297985 0.330477 0.401642 0.213129
          0.102814 0.100066 0.100012 0.100003 0.100001 0.1 0.1 0.1 0.1 0.1 0.1 0.1
          0.1 0.1 0.1 0.1 0.1 0.1 0.1 0.1 0.1 0.1 0.1 0.1
          0.1 0.1 0.1 0.1 0.1 0.1 0.1 0.1 0.1 0.1 0.1 0.1
          0.1 0.1 0.1 0.1 0.1 0.1 0.1 0.1 0.1 0.1 0.1 0.1
          0.1 0.1 0.1 0.1 0.1 0.1 0.1 0.1 0.1 0.1 0.1 0.1
          0.1 0.1 0.1 0.1 0.1 0.1 0.1 0.1 0.1 0.1 0.1 0.1
          0.204501 0.242234 0.262912 0.28069 0.30095 0.335394 0.397005 0.192651 0.101371 0.100055 0.10001 0.100002
          0.1 0.1 0.1 0.1 0.1 0.1 0.1 0.1 0.1 0.1 0.1 0.1
          0.1 0.1 0.1 0.1 0.1 0.1 0.1 0.1 0.1 0.1 0.1 0.1
          0.1 0.1 0.1 0.1 0.1 0.1 0.1 0.1 0.1 0.1 0.1 0.1
          0.1 0.1 0.1 0.1 0.1 0.1 0.1 0.1 0.1 0.1 0.1 0.1
          0.1 0.1 0.1 0.1 0.1 0.1 0.1 0.1 0.1 0.1 0.1 0.1
          0.1 0.1 0.1 0.1 0.1 0.1 0.1 0.1 0.205457 0.24351 0.26456 0.282766
          0.303829 0.341078 0.383916 0.173979 0.100666 0.100046 0.100009 0.100002 0.1 0.1 0.1 0.1
          0.1 0.1 0.1 0.1 0.1 0.1 0.1 0.1 0.1 0.1 0.1 0.1
          0.1 0.1 0.1 0.1 0.1 0.1 0.1 0.1 0.1 0.1 0.1 0.1
          0.1 0.1 0.1 0.1 0.1 0.1 0.1 0.1 0.1 0.1 0.1 0.1
          0.1 0.1 0.1 0.1 0.1 0.1 0.1 0.1 0.1 0.1 0.1 0.1
          0.1 0.1 0.1 0.1 0.1 0.1 0.1 0.1 0.1 0.1 0.1 0.1
          0.1 0.1 0.1 0.1 0.20595 0.244274 0.265678 0.284369 0.306375 0.346649 0.36884 0.158924
          0.100374 0.100039 0.100008 0.100002 0.1 0.1 0.1 0.1 0.1 0.1 0.1 0.1
          0.1 0.1 0.1 0.1 0.1 0.1 0.1 0.1 0.1 0.1 0.1 0.1
          0.1 0.1 0.1 0.1 0.1 0.1 0.1 0.1 0.1 0.1 0.1 0.1
          0.1 0.1 0.1 0.1 0.1 0.1 0.1 0.1 0.1 0.1 0.1 0.1
          0.1 0.1 0.1 0.1 0.1 0.1 0.1 0.1 0.1 0.1 0.1 0.1
          0.1 0.1 0.1 0.1 0.1 0.1 0.1 0.1 0.1 0.1 0.1 0.1
          0.206196 0.244742 0.26645 0.28562 0.308605 0.351711 0.353494 0.146809 0.10025 0.100034 0.100007 0.100001
          0.1 0.1 0.1 0.1 0.1 0.1 0.1 0.1 0.1 0.1 0.1 0.1
          0.1 0.1 0.1 0.1 0.1 0.1 0.1 0.1 0.1 0.1 0.1 0.1
          0.1 0.1 0.1 0.1 0.1 0.1 0.1 0.1 0.1 0.1 0.1 0.1
          0.1 0.1 0.1 0.1 0.1 0.1 0.1 0.1 0.1 0.1 0.1 0.1
          0.1 0.1 0.1 0.1 0.1 0.1 0.1 0.1 0.1 0.1 0.1 0.1
          0.1 0.1 0.1 0.1 0.1 0.1 0.1 0.1 0.206316 0.245036 0.266991 0.286596
          0.310572 0.356312 0.338535 0.137286 0.100191 0.10003 0.100006 0.100001 0.1 0.1 0.1 0.1
          0.1 0.1 0.1 0.1 0.1 0.1 0.1 0.1 0.1 0.1 0.1 0.1
          0.1 0.1 0.1 0.1 0.1 0.1 0.1 0.1 0.1 0.1 0.1 0.1
          0.1 0.1 0.1 0.1 0.1 0.1 0.1 0.1 0.1 0.1 0.1 0.1
          0.1 0.1 0.1 0.1 0.1 0.1 0.1 0.1 0.1 0.1 0.1 0.1
          0.1 0.1 0.1 0.1 0.1 0.1 0.1 0.1 0.1 0.1 0.1 0.1
          0.1 0.1 0.1 0.1 0.206375 0.245232 0.267381 0.287361 0.312267 0.360423 0.324849 0.130024
          0.100161 0.100027 0.100005 0.100001 0.1 0.1 0.1 0.1 0.1 0.1 0.1 0.1
          0.1 0.1 0.1 0.1 0.1 0.1 0.1 0.1 0.1 0.1 0.1 0.1
          0.1 0.1 0.1 0.1 0.1 0.1 0.1 0.1 0.1 0.1 0.1 0.1
          0.1 0.1 0.1 0.1 0.1 0.1 0.1 0.1 0.1 0.1 0.1 0.1
          0.1 0.1 0.1 0.1 0.1 0.1 0.1 0.1 0.1 0.1 0.1 0.1
          0.1 0.1 0.1 0.1 0.1 0.1 0.1 0.1 0.1 0.1 0.1 0.1
          0.206405 0.245368 0.267673 0.287966 0.313697 0.36401 0.312783 0.124661 0.100143 0.100025 0.100005 0.100001
          0.1 0.1 0.1 0.1 0.1 0.1 0.1 0.1 0.1 0.1 0.1 0.1
          0.1 0.1 0.1 0.1 0.1 0.1 0.1 0.1 0.1 0.1 0.1 0.1
          0.1 0.1 0.1 0.1 0.1 0.1 0.1 0.1 0.1 0.1 0.1 0.1
          0.1 0.1 0.1 0.1 0.1 0.1 0.1 0.1 0.1 0.1 0.1 0.1
          0.1 0.1 0.1 0.1 0.1 0.1 0.1 0.1 0.1 0.1 0.1 0.1
          0.1 0.1 0.1 0.1 0.1 0.1 0.1 0.1 0.20642 0.245468 0.267898 0.28845
          0.314884 0.367017 0.302339 0.120733 0.100132 0.100023 0.100005 0.100001 0.1 0.1 0.1 0.1
          0.1 0.1 0.1 0.1 0.1 0.1 0.1 0.1 0.1 0.1 0.1 0.1
          0.1 0.1 0.1 0.1 0.1 0.1 0.1 0.1 0.1 0.1 0.1 0.1
          0.1 0.1 0.1 0.1 0.1 0.1 0.1 0.1 0.1 0.1 0.1 0.1
          0.1 0.1 0.1 0.1 0.1 0.1 0.1 0.1 0.1 0.1 0.1 0.1
          0.1 0.1 0.1 0.1 0.1 0.1 0.1 0.1 0.1 0.1 0.1 0.1
          0.1 0.1 0.1 0.1 0.206427 0.245542 0.268072 0.288837 0.315868 0.369521 0.293384 0.117824
          0.100124 0.100022 0.100005 0.100001 0.1 0.1 0.1 0.1 0.1 0.1 0.1 0.1
          0.1 0.1 0.1 0.1 0.1 0.1 0.1 0.1 0.1 0.1 0.1 0.1
          0.1 0.1 0.1 0.1 0.1 0.1 0.1 0.1 0.1 0.1 0.1 0.1
          0.1 0.1 0.1 0.1 0.1 0.1 0.1 0.1 0.1 0.1 0.1 0.1
          0.1 0.1 0.1 0.1 0.1 0.1 0.1 0.1 0.1 0.1 0.1 0.1
          0.1 0.1 0.1 0.1 0.1 0.1 0.1 0.1 0.1 0.1 0.1 0.1
          0.20643 0.245599 0.268209 0.289146 0.316679 0.371625 0.285928 0.115633 0.100118 0.100022 0.100004 0.100001
          0.1 0.1 0.1 0.1 0.1 0.1 0.1 0.1 0.1 0.1 0.1 0.1
          0.1 0.1 0.1 0.1 0.1 0.1 0.1 0.1 0.1 0.1 0.1 0.1
          0.1 0.1 0.1 0.1 0.1 0.1 0.1 0.1 0.1 0.1 0.1 0.1
          0.1 0.1 0.1 0.1 0.1 0.1 0.1 0.1 0.1 0.1 0.1 0.1
          0.1 0.1 0.1 0.1 0.1 0.1 0.1 0.1 0.1 0.1 0.1 0.1
          0.1 0.1 0.1 0.1 0.1 0.1 0.1 0.1 0.206431 0.245642 0.268317 0.289393
          0.31734 0.373379 0.279827 0.11398 0.100114 0.100021 0.100004 0.100001 0.1 0.1 0.1 0.1
          0.1 0.1 0.1 0.1 0.1 0.1 0.1 0.1 0.1 0.1 0.1 0.1
          0.1 0.1 0.1 0.1 0.1 0.1 0.1 0.1 0.1 0.1 0.1 0.1
          0.1 0.1 0.1 0.1 0.1 0.1 0.1 0.1 0.1 0.1 0.1 0.1
          0.1 0.1 0.1 0.1 0.1 0.1 0.1 0.1 0.1 0.1 0.1 0.1
          0.1 0.1 0.1 0.1 0.1 0.1 0.1 0.1 0.1 0.1 0.1 0.1
          0.1 0.1 0.1 0.1 0.20643 0.245676 0.2684 0.289589 0.317871 0.374807 0.274896 0.11274
          0.100111 0.100021 0.100004 0.100001 0.1 0.1 0.1 0.1 0.1 0.1 0.1 0.1
          0.1 0.1 0.1 0.1 0.1 0.1 0.1 0.1 0.1 0.1 0.1 0.1
          0.1 0.1 0.1 0.1 0.1 0.1 0.1 0.1 0.1 0.1 0.1 0.1
          0.1 0.1 0.1 0.1 0.1 0.1 0.1 0.1 0.1 0.1 0.1 0.1
          0.1 0.1 0.1 0.1 0.1 0.1 0.1 0.1 0.1 0.1 0.1 0.1
          0.1 0.1 0.1 0.1 0.1 0.1 0.1 0.1 0.1 0.1 0.1 0.1
          0.206428 0.245701 0.268465 0.289741 0.318291 0.37595 0.270958 0.11181 0.100109 0.10002 0.100004 0.100001
          0.1 0.1 0.1 0.1 0.1 0.1 0.1 0.1 0.1 0.1 0.1 0.1
          0.1 0.1 0.1 0.1 0.1 0.1 0.1 0.1 0.1 0.1 0.1 0.1
          0.1 0.1 0.1 0.1 0.1 0.1 0.1 0.1 0.1 0.1 0.1 0.1
          0.1 0.1 0.1 0.1 0.1 0.1 0.1 0.1 0.1 0.1 0.1 0.1
          0.1 0.1 0.1 0.1 0.1 0.1 0.1 0.1 0.1 0.1 0.1 0.1
          0.1 0.1 0.1 0.1 0.1 0.1 0.1 0.1 0.206427 0.245721 0.268514 0.289857
          0.318618 0.376847 0.267866 0.111121 0.100108 0.10002 0.100004 0.100001 0.1 0.1 0.1 0.1
          0.1 0.1 0.1 0.1 0.1 0.1 0.1 0.1 0.1 0.1 0.1 0.1
          0.1 0.1 0.1 0.1 0.1 0.1 0.1 0.1 0.1 0.1 0.1 0.1
          0.1 0.1 0.1 0.1 0.1 0.1 0.1 0.1 0.1 0.1 0.1 0.1
          0.1 0.1 0.1 0.1 0.1 0.1 0.1 0.1 0.1 0.1 0.1 0.1
          0.1 0.1 0.1 0.1 0.1 0.1 0.1 0.1 0.1 0.1 0.1 0.1
          0.1 0.1 0.1 0.1 0.206425 0.245735 0.268551 0.289944 0.318864 0.377535 0.265506 0.11062
          0.100106 0.10002 0.100004 0.100001 0.1 0.1 0.1 0.1 0.1 0.1 0.1 0.1
          0.1 0.1 0.1 0.1 0.1 0.1 0.1 0.1 0.1 0.1 0.1 0.1
          0.1 0.1 0.1 0.1 0.1 0.1 0.1 0.1 0.1 0.1 0.1 0.1
          0.1 0.1 0.1 0.1 0.1 0.1 0.1 0.1 0.1 0.1 0.1 0.1
          0.1 0.1 0.1 0.1 0.1 0.1 0.1 0.1 0.1 0.1 0.1 0.1
          0.1 0.1 0.1 0.1 0.1 0.1 0.1 0.1 0.1 0.1 0.1 0.1
          0.206423 0.245744 0.268576 0.290004 0.319042 0.378043 0.26379 0.110269 0.100106 0.10002 0.100004 0.100001
          0.1 0.1 0.1 0.1 0.1 0.1 0.1 0.1 0.1 0.1 0.1 0.1
          0.1 0.1 0.1 0.1 0.1 0.1 0.1 0.1 0.1 0.1 0.1 0.1
          0.1 0.1 0.1 0.1 0.1 0.1 0.1 0.1 0.1 0.1 0.1 0.1
          0.1 0.1 0.1 0.1 0.1 0.1 0.1 0.1 0.1 0.1 0.1 0.1
          0.1 0.1 0.1 0.1 0.1 0.1 0.1 0.1 0.1 0.1 0.1 0.1
          0.1 0.1 0.1 0.1 0.1 0.1 0.1 0.1 0.206421 0.24575 0.268591 0.290042
          0.319157 0.378395 0.262653 0.110043 0.100105 0.10002 0.100004 0.100001 0.1 0.1 0.1 0.1
          0.1 0.1 0.1 0.1 0.1 0.1 0.1 0.1 0.1 0.1 0.1 0.1
          0.1 0.1 0.1 0.1 0.1 0.1 0.1 0.1 0.1 0.1 0.1 0.1
          0.1 0.1 0.1 0.1 0.1 0.1 0.1 0.1 0.1 0.1 0.1 0.1
          0.1 0.1 0.1 0.1 0.1 0.1 0.1 0.1 0.1 0.1 0.1 0.1
          0.1 0.1 0.1 0.1 0.1 0.1 0.1 0.1 0.1 0.1 0.1 0.1
          0.1 0.1 0.1 0.1 0.20642 0.245752 0.268598 0.290058 0.319215 0.378607 0.262052 0.109928
          0.100105 0.10002 0.100004 0.100001 0.1 0.1 0.1 0.1 0.1 0.1 0.1 0.1
          0.1 0.1 0.1 0.1 0.1 0.1 0.1 0.1 0.1 0.1 0.1 0.1
          0.1 0.1 0.1 0.1 0.1 0.1 0.1 0.1 0.1 0.1 0.1 0.1
          0.1 0.1 0.1 0.1 0.1 0.1 0.1 0.1 0.1 0.1 0.1 0.1
          0.1 0.1 0.1 0.1 0.1 0.1 0.1 0.1 0.1 0.1 0.1 0.1
          0.1 0.1 0.1 0.1 0.1 0.1 0.1 0.1 0.1 0.1 0.1 0.1
          0.206418 0.245751 0.268595 0.290053 0.319219 0.37869 0.261964 0.109914 0.100105 0.10002 0.100004 0.100001
          0.1 0.1 0.1 0.1 0.1 0.1 0.1 0.1 0.1 0.1 0.1 0.1
          0.1 0.1 0.1 0.1 0.1 0.1 0.1 0.1 0.1 0.1 0.1 0.1
          0.1 0.1 0.1 0.1 0.1 0.1 0.1 0.1 0.1 0.1 0.1 0.1
          0.1 0.1 0.1 0.1 0.1 0.1 0.1 0.1 0.1 0.1 0.1 0.1
          0.1 0.1 0.1 0.1 0.1 0.1 0.1 0.1 0.1 0.1 0.1 0.1
          0.1 0.1 0.1 0.1 0.1 0.1 0.1 0.1 0.206417 0.245746 0.268583 0.290027
          0.319169 0.378648 0.262392 0.110003 0.100105 0.10002 0.100004 0.100001 0.1 0.1 0.1 0.1
          0.1 0.1 0.1 0.1 0.1 0.1 0.1 0.1 0.1 0.1 0.1 0.1
          0.1 0.1 0.1 0.1 0.1 0.1 0.1 0.1 0.1 0.1 0.1 0.1
          0.1 0.1 0.1 0.1 0.1 0.1 0.1 0.1 0.1 0.1 0.1 0.1
          0.1 0.1 0.1 0.1 0.1 0.1 0.1 0.1 0.1 0.1 0.1 0.1
          0.1 0.1 0.1 0.1 0.1 0.1 0.1 0.1 0.1 0.1 0.1 0.1
          0.1 0.1 0.1 0.1 0.206415 0.245736 0.268561 0.289979 0.319063 0.378483 0.263356 0.110201
          0.100106 0.10002 0.100004 0.100001 0.1 0.1 0.1 0.1 0.1 0.1 0.1 0.1
          0.1 0.1 0.1 0.1 0.1 0.1 0.1 0.1 0.1 0.1 0.1 0.1
          0.1 0.1 0.1 0.1 0.1 0.1 0.1 0.1 0.1 0.1 0.1 0.1
          0.1 0.1 0.1 0.1 0.1 0.1 0.1 0.1 0.1 0.1 0.1 0.1
          0.1 0.1 0.1 0.1 0.1 0.1 0.1 0.1 0.1 0.1 0.1 0.1
          0.1 0.1 0.1 0.1 0.1 0.1 0.1 0.1 0.1 0.1 0.1 0.1
          0.206413 0.245722 0.268527 0.289906 0.318896 0.378191 0.264906 0.110524 0.100106 0.10002 0.100004 0.100001
          0.1 0.1 0.1 0.1 0.1 0.1 0.1 0.1 0.1 0.1 0.1 0.1
          0.1 0.1 0.1 0.1 0.1 0.1 0.1 0.1 0.1 0.1 0.1 0.1
          0.1 0.1 0.1 0.1 0.1 0.1 0.1 0.1 0.1 0.1 0.1 0.1
          0.1 0.1 0.1 0.1 0.1 0.1 0.1 0.1 0.1 0.1 0.1 0.1
          0.1 0.1 0.1 0.1 0.1 0.1 0.1 0.1 0.1 0.1 0.1 0.1
          0.1 0.1 0.1 0.1 0.1 0.1 0.1 0.1 0.20641 0.245701 0.26848 0.289804
          0.318663 0.377764 0.267117 0.110997 0.100108 0.10002 0.100004 0.100001 0.1 0.1 0.1 0.1
          0.1 0.1 0.1 0.1 0.1 0.1 0.1 0.1 0.1 0.1 0.1 0.1
          0.1 0.1 0.1 0.1 0.1 0.1 0.1 0.1 0.1 0.1 0.1 0.1
          0.1 0.1 0.1 0.1 0.1 0.1 0.1 0.1 0.1 0.1 0.1 0.1
          0.1 0.1 0.1 0.1 0.1 0.1 0.1 0.1 0.1 0.1 0.1 0.1
          0.1 0.1 0.1 0.1 0.1 0.1 0.1 0.1 0.1 0.1 0.1 0.1
          0.1 0.1 0.1 0.1 0.206406 0.245673 0.268415 0.289667 0.318354 0.377194 0.270097 0.111661
          0.100109 0.10002 0.100004 0.100001 0.1 0.1 0.1 0.1 0.1 0.1 0.1 0.1
          0.1 0.1 0.1 0.1 0.1 0.1 0.1 0.1 0.1 0.1 0.1 0.1
          0.1 0.1 0.1 0.1 0.1 0.1 0.1 0.1 0.1 0.1 0.1 0.1
          0.1 0.1 0.1 0.1 0.1 0.1 0.1 0.1 0.1 0.1 0.1 0.1
          0.1 0.1 0.1 0.1 0.1 0.1 0.1 0.1 0.1 0.1 0.1 0.1
          0.1 0.1 0.1 0.1 0.1 0.1 0.1 0.1 0.1 0.1 0.1 0.1
          0.206398 0.245633 0.268328 0.289489 0.317958 0.37647 0.273991 0.112575 0.100111 0.100021 0.100004 0.100001
          0.1 0.1 0.1 0.1 0.1 0.1 0.1 0.1 0.1 0.1 0.1 0.1
          0.1 0.1 0.1 0.1 0.1 0.1 0.1 0.1 0.1 0.1 0.1 0.1
          0.1 0.1 0.1 0.1 0.1 0.1 0.1 0.1 0.1 0.1 0.1 0.1
          0.1 0.1 0.1 0.1 0.1 0.1 0.1 0.1 0.1 0.1 0.1 0.1
          0.1 0.1 0.1 0.1 0.1 0.1 0.1 0.1 0.1 0.1 0.1 0.1
          0.1 0.1 0.1 0.1 0.1 0.1 0.1 0.1 0.206386 0.245577 0.268212 0.289259
          0.317459 0.375585 0.278985 0.113821 0.100114 0.100021 0.100004 0.100001 0.1 0.1 0.1 0.1
          0.1 0.1 0.1 0.1 0.1 0.1 0.1 0.1 0.1 0.1 0.1 0.1
          0.1 0.1 0.1 0.1 0.1 0.1 0.1 0.1 0.1 0.1 0.1 0.1
          0.1 0.1 0.1 0.1 0.1 0.1 0.1 0.1 0.1 0.1 0.1 0.1
          0.1 0.1 0.1 0.1 0.1 0.1 0.1 0.1 0.1 0.1 0.1 0.1
          0.1 0.1 0.1 0.1 0.1 0.1 0.1 0.1 0.1 0.1 0.1 0.1
          0.1 0.1 0.1 0.1 0.206363 0.245497 0.268055 0.288962 0.316838 0.374538 0.285316 0.115514
          0.100118 0.100022 0.100005 0.100001 0.1 0.1 0.1 0.1 0.1 0.1 0.1 0.1
          0.1 0.1 0.1 0.1 0.1 0.1 0.1 0.1 0.1 0.1 0.1 0.1
          0.1 0.1 0.1 0.1 0.1 0.1 0.1 0.1 0.1 0.1 0.1 0.1
          0.1 0.1 0.1 0.1 0.1 0.1 0.1 0.1 0.1 0.1 0.1 0.1
          0.1 0.1 0.1 0.1 0.1 0.1 0.1 0.1 0.1 0.1 0.1 0.1
          0.1 0.1 0.1 0.1 0.1 0.1 0.1 0.1 0.1 0.1 0.1 0.1
          0.206323 0.245379 0.267838 0.288577 0.316073 0.373347 0.293221 0.117798 0.100124 0.100022 0.100005 0.100001
          0.1 0.1 0.1 0.1 0.1 0.1 0.1 0.1 0.1 0.1 0.1 0.1
          0.1 0.1 0.1 0.1 0.1 0.1 0.1 0.1 0.1 0.1 0.1 0.1
          0.1 0.1 0.1 0.1 0.1 0.1 0.1 0.1 0.1 0.1 0.1 0.1
          0.1 0.1 0.1 0.1 0.1 0.1 0.1 0.1 0.1 0.1 0.1 0.1
          0.1 0.1 0.1 0.1 0.1 0.1 0.1 0.1 0.1 0.1 0.1 0.1
          0.1 0.1 0.1 0.1 0.1 0.1 0.1 0.1 0.206245 0.245194 0.267531 0.288077
          0.315137 0.372001 0.302827 0.120904 0.100131 0.100024 0.100005 0.100001 0.1 0.1 0.1 0.1
          0.1 0.1 0.1 0.1 0.1 0.1 0.1 0.1 0.1 0.1 0.1 0.1
          0.1 0.1 0.1 0.1 0.1 0.1 0.1 0.1 0.1 0.1 0.1 0.1
          0.1 0.1 0.1 0.1 0.1 0.1 0.1 0.1 0.1 0.1 0.1 0.1
          0.1 0.1 0.1 0.1 0.1 0.1 0.1 0.1 0.1 0.1 0.1 0.1
          0.1 0.1 0.1 0.1 0.1 0.1 0.1 0.1 0.1 0.1 0.1 0.1
          0.1 0.1 0.1 0.1 0.206087 0.244885 0.267095 0.287463 0.313991 0.370281 0.313619 0.125054
          0.100141 0.100025 0.100005 0.100001 0.1 0.1 0.1 0.1 0.1 0.1 0.1 0.1
          0.1 0.1 0.1 0.1 0.1 0.1 0.1 0.1 0.1 0.1 0.1 0.1
          0.1 0.1 0.1 0.1 0.1 0.1 0.1 0.1 0.1 0.1 0.1 0.1
          0.1 0.1 0.1 0.1 0.1 0.1 0.1 0.1 0.1 0.1 0.1 0.1
          0.1 0.1 0.1 0.1 0.1 0.1 0.1 0.1 0.1 0.1 0.1 0.1
          0.1 0.1 0.1 0.1 0.1 0.1 0.1 0.1 0.1 0.1 0.1 0.1
          0.205761 0.2443 0.266547 0.286892 0.312513 0.366697 0.323545 0.130015 0.100156 0.100027 0.100006 0.100001
          0.1 0.1 0.1 0.1 0.1 0.1 0.1 0.1 0.1 0.1 0.1 0.1
          0.1 0.1 0.1 0.1 0.1 0.1 0.1 0.1 0.1 0.1 0.1 0.1
          0.1 0.1 0.1 0.1 0.1 0.1 0.1 0.1 0.1 0.1 0.1 0.1
          0.1 0.1 0.1 0.1 0.1 0.1 0.1 0.1 0.1 0.1 0.1 0.1
          0.1 0.1 0.1 0.1 0.1 0.1 0.1 0.1 0.1 0.1 0.1 0.1
          0.1 0.1 0.1 0.1 0.1 0.1 0.1 0.1 0.205081 0.242945 0.266263 0.287104
          0.309849 0.349465 0.335465 0.135951 0.100178 0.10003 0.100006 0.100001 0.1 0.1 0.1 0.1
          0.1 0.1 0.1 0.1 0.1 0.1 0.1 0.1 0.1 0.1 0.1 0.1
          0.1 0.1 0.1 0.1 0.1 0.1 0.1 0.1 0.1 0.1 0.1 0.1
          0.1 0.1 0.1 0.1 0.1 0.1 0.1 0.1 0.1 0.1 0.1 0.1
          0.1 0.1 0.1 0.1 0.1 0.1 0.1 0.1 0.1 0.1 0.1 0.1
          0.1 0.1 0.1 0.1 0.1 0.1 0.1 0.1 0.1 0.1 0.1 0.1
          0.1 0.1 0.1 0.1 0.203602 0.238762 0.268485 0.291078 0.29907 0.637639 0.407414 0.166278
          0.100386 0.100035 0.100007 0.100002 0.1 0.1 0.1 0.1 0.1 0.1 0.1 0.1
          0.1 0.1 0.1 0.1 0.1 0.1 0.1 0.1 0.1 0.1 0.1 0.1
          0.1 0.1 0.1 0.1 0.1 0.1 0.1 0.1 0.1 0.1 0.1 0.1
          0.1 0.1 0.1 0.1 0.1 0.1 0.1 0.1 0.1 0.1 0.1 0.1
          0.1 0.1 0.1 0.1 0.1 0.1 0.1 0.1 0.1 0.1 0.1 0.1
          0.1 0.1 0.1 0.1 0.1 0.1 0.1 0.1 0.1 0.1 0.1 0.1
          0.199826 0.220525 0.28626 0.304658 0.319205 0.342183 0.336392 0.1439 0.100275 0.100042 0.100008 0.100002
          0.1 0.1 0.1 0.1 0.1 0.1 0.1 0.1 0.1 0.1 0.1 0.1
          0.1 0.1 0.1 0.1 0.1 0.1 0.1 0.1 0.1 0.1 0.1 0.1
          0.1 0.1 0.1 0.1 0.1 0.1 0.1 0.1 0.1 0.1 0.1 0.1
          0.1 0.1 0.1 0.1 0.1 0.1 0.1 0.1 0.1 0.1 0.1 0.1
          0.1 0.1 0.1 0.1 0.1 0.1 0.1 0.1 0.1 0.1 0.1 0.1
          0.1 0.1 0.1 0.1 0.1 0.1 0.1 0.1 0.186781 0.144669 0.388361 0.278504
          0.285702 0.306347 0.3317 0.139783 0.100326 0.100049 0.10001 0.100002 0.1 0.1 0.1 0.1
          0.1 0.1 0.1 0.1 0.1 0.1 0.1 0.1 0.1 0.1 0.1 0.1
          0.1 0.1 0.1 0.1 0.1 0.1 0.1 0.1 0.1 0.1 0.1 0.1
          0.1 0.1 0.1 0.1 0.1 0.1 0.1 0.1 0.1 0.1 0.1 0.1
          0.1 0.1 0.1 0.1 0.1 0.1 0.1 0.1 0.1 0.1 0.1 0.1
          0.1 0.1 0.1 0.1 0.1 0.1 0.1 0.1 0.1 0.1 0.1 0.1
          0.1 0.1 0.1 0.1 0.185148 0.206254 0.177908 0.268623 0.262347 0.589595 0.444177 0.21507
          0.10265 0.100057 0.100011 0.100002 0.100001 0.1 0.1 0.1 0.1 0.1 0.1 0.1
          0.1 0.1 0.1 0.1 0.1 0.1 0.1 0.1 0.1 0.1 0.1 0.1
          0.1 0.1 0.1 0.1 0.1 0.1 0.1 0.1 0.1 0.1 0.1 0.1
          0.1 0.1 0.1 0.1 0.1 0.1 0.1 0.1 0.1 0.1 0.1 0.1
          0.1 0.1 0.1 0.1 0.1 0.1 0.1 0.1 0.1 0.1 0.1 0.1
          0.1 0.1 0.1 0.1 0.1 0.1 0.1 0.1 0.1 0.1 0.1 0.1
          0.142572 0.20942 0.221693 0.242857 0.261501 0.264799 0.306966 0.137235 0.100359 0.100059 0.100012 0.100003
          0.100001 0.1 0.1 0.1 0.1 0.1 0.1 0.1 0.1 0.1 0.1 0.1
          0.1 0.1 0.1 0.1 0.1 0.1 0.1 0.1 0.1 0.1 0.1 0.1
          0.1 0.1 0.1 0.1 0.1 0.1 0.1 0.1 0.1 0.1 0.1 0.1
          0.1 0.1 0.1 0.1 0.1 0.1 0.1 0.1 0.1 0.1 0.1 0.1
          0.1 0.1 0.1 0.1 0.1 0.1 0.1 0.1 0.1 0.1 0.1 0.1
          0.1 0.1 0.1 0.1 0.1 0.1 0.1 0.1
        </DataArray>
        <DataArray type="Float32" Name="p_liq" NumberOfComponents="1" format="ascii">
          101504 101366 101113 100849 100577 100295 100003 99877.5 99586 98559.8 98554.1 98552.7
          98551.9 98551.2 98550.5 98549.9 98549.1 98548.5 98547.7 98547 98546.3 98545.6 98544.9 98544.2
          98543.5 98542.7 98542 98541.3 98540.5 98539.8 98539.1 98538.4 98537.6 98536.9 98536.1 98535.4
          98534.7 98533.9 98533.2 98532.4 98531.7 98530.9 98530.2 98529.4 98528.7 98527.9 98527.2 98526.4
          98525.7 98524.9 98524.1 98523.4 98522.6 98521.9 98521.1 98520.3 98519.5 98518.8 98518 98517.2
          98516.4 98515.7 98514.9 98514.1 98513.3 98512.5 98511.7 98510.9 98510.1 98509.3 98508.4 98507.6
          98506.8 98505.9 98505.1 98504.2 98503.3 98502.4 98501.4 98500.3 101503 101322 101081 100822
          100552 100273 99985.2 99802.6 98890.2 98558 98553.9 98552.6 98551.8 98551.1 98550.4 98549.7
          98549 98548.3 98547.6 98546.9 98546.2 98545.5 98544.8 98544.1 98543.3 98542.6 98541.9 98541.2
          98540.4 98539.7 98539 98538.2 98537.5 98536.8 98536 98535.3 98534.5 98533.8 98533.1 98532.3
          98531.6 98530.8 98530.1 98529.3 98528.6 98527.8 98527.1 98526.3 98525.5 98524.8 98524 98523.3
          98522.5 98521.7 98521 98520.2 98519.4 98518.7 98517.9 98517.1 98516.3 98515.5 98514.8 98514
          98513.2 98512.4 98511.6 98510.8 98510 98509.2 98508.3 98507.5 98506.7 98505.8 98505 98504.1
          98503.2 98502.3 98501.4 98500.4 101452 101280 101050 100798 100531 100252 99955.6 99773.8
          98710.7 98557.4 98553.7 98552.5 98551.7 98551 98550.3 98549.6 98548.9 98548.2 98547.5 98546.8
          98546.1 98545.4 98544.7 98543.9 98543.2 98542.5 98541.8 98541 98540.3 98539.6 98538.9 98538.1
          98537.4 98536.6 98535.9 98535.2 98534.4 98533.7 98532.9 98532.2 98531.5 98530.7 98530 98529.2
          98528.5 98527.7 98526.9 98526.2 98525.4 98524.7 98523.9 98523.2 98522.4 98521.6 98520.9 98520.1
          98519.3 98518.6 98517.8 98517 98516.2 98515.4 98514.7 98513.9 98513.1 98512.3 98511.5 98510.7
          98509.9 98509.1 98508.2 98507.4 98506.6 98505.7 98504.9 98504 98503.1 98502.2 98501.3 98500.4
          101411 101244 101021 100774 100509 100228 99922 99744.3 98630.6 98556.8 98553.6 98552.4
          98551.6 98550.9 98550.2 98549.5 98548.8 98548.1 98547.4 98546.7 98546 98545.3 98544.6 98543.8
          98543.1 98542.4 98541.7 98540.9 98540.2 98539.5 98538.8 98538 98537.3 98536.5 98535.8 98535.1
          98534.3 98533.6 98532.8 98532.1 98531.3 98530.6 98529.8 98529.1 98528.3 98527.6 98526.8 98526.1
          98525.3 98524.6 98523.8 98523 98522.3 98521.5 98520.8 98520 98519.2 98518.4 98517.7 98516.9
          98516.1 98515.3 98514.5 98513.8 98513 98512.2 98511.4 98510.6 98509.8 98509 98508.1 98507.3
          98506.5 98505.6 98504.8 98503.9 98503.1 98502.2 98501.3 98500.4 101378 101213 100994 100751
          100488 100208 99900.6 99707.2 98591.5 98556.3 98553.5 98552.4 98551.6 98550.8 98550.1 98549.4
          98548.7 98548 98547.3 98546.6 98545.9 98545.2 98544.5 98543.7 98543 98542.3 98541.6 98540.8
          98540.1 98539.4 98538.6 98537.9 98537.2 98536.4 98535.7 98535 98534.2 98533.5 98532.7 98532
          98531.2 98530.5 98529.7 98529 98528.2 98527.5 98526.7 98526 98525.2 98524.5 98523.7 98522.9
          98522.2 98521.4 98520.6 98519.9 98519.1 98518.3 98517.6 98516.8 98516 98515.2 98514.4 98513.7
          98512.9 98512.1 98511.3 98510.5 98509.7 98508.9 98508 98507.2 98506.4 98505.6 98504.7 98503.9
          98503 98502.2 98501.3 98500.4 101350 101187 100971 100730 100470 100192 99887.4 99665.1
          98575.3 98555.8 98553.3 98552.3 98551.5 98550.8 98550 98549.3 98548.6 98547.9 98547.2 98546.5
          98545.8 98545.1 98544.4 98543.6 98542.9 98542.2 98541.5 98540.7 98540 98539.3 98538.5 98537.8
          98537.1 98536.3 98535.6 98534.8 98534.1 98533.4 98532.6 98531.9 98531.1 98530.4 98529.6 98528.9
          98528.1 98527.4 98526.6 98525.9 98525.1 98524.3 98523.6 98522.8 98522.1 98521.3 98520.5 98519.8
          98519 98518.2 98517.5 98516.7 98515.9 98515.1 98514.4 98513.6 98512.8 98512 98511.2 98510.4
          98509.6 98508.8 98508 98507.1 98506.3 98505.5 98504.7 98503.8 98503 98502.1 98501.3 98500.4
          101327 101165 100951 100712 100455 100180 99877.5 99617.2 98568.3 98555.5 98553.2 98552.2
          98551.4 98550.7 98550 98549.2 98548.5 98547.8 98547.1 98546.4 98545.7 98545 98544.2 98543.5
          98542.8 98542.1 98541.4 98540.6 98539.9 98539.2 98538.4 98537.7 98537 98536.2 98535.5 98534.7
          98534 98533.2 98532.5 98531.8 98531 98530.3 98529.5 98528.8 98528 98527.3 98526.5 98525.8
          98525 98524.2 98523.5 98522.7 98522 98521.2 98520.4 98519.7 98518.9 98518.1 98517.4 98516.6
          98515.8 98515 98514.2 98513.5 98512.7 98511.9 98511.1 98510.3 98509.5 98508.7 98507.9 98507.1
          98506.3 98505.4 98504.6 98503.8 98502.9 98502.1 98501.3 98500.4 101308 101147 100933 100697
          100442 100169 99868.9 99564.1 98564.9 98555.1 98553.1 98552.1 98551.3 98550.6 98549.9 98549.2
          98548.4 98547.7 98547 98546.3 98545.6 98544.9 98544.1 98543.4 98542.7 98542 98541.2 98540.5
          98539.8 98539.1 98538.3 98537.6 98536.8 98536.1 98535.4 98534.6 98533.9 98533.1 98532.4 98531.6
          98530.9 98530.2 98529.4 98528.7 98527.9 98527.2 98526.4 98525.6 98524.9 98524.1 98523.4 98522.6
          98521.9 98521.1 98520.3 98519.6 98518.8 98518 98517.3 98516.5 98515.7 98514.9 98514.2 98513.4
          98512.6 98511.8 98511 98510.2 98509.4 98508.6 98507.8 98507 98506.2 98505.4 98504.6 98503.7
          98502.9 98502.1 98501.2 98500.4 101291 101131 100919 100684 100431 100160 99861.4 99507.7
          98563.1 98554.9 98552.9 98552 98551.2 98550.5 98549.8 98549.1 98548.3 98547.6 98546.9 98546.2
          98545.5 98544.8 98544 98543.3 98542.6 98541.9 98541.1 98540.4 98539.7 98539 98538.2 98537.5
          98536.7 98536 98535.3 98534.5 98533.8 98533 98532.3 98531.5 98530.8 98530.1 98529.3 98528.6
          98527.8 98527 98526.3 98525.5 98524.8 98524 98523.3 98522.5 98521.8 98521 98520.2 98519.5
          98518.7 98517.9 98517.2 98516.4 98515.6 98514.8 98514.1 98513.3 98512.5 98511.7 98510.9 98510.1
          98509.4 98508.6 98507.8 98507 98506.1 98505.3 98504.5 98503.7 98502.9 98502.1 98501.2 98500.4
          101277 101117 100906 100672 100421 100152 99854.6 99450.9 98562 98554.6 98552.8 98551.9
          98551.1 98550.4 98549.7 98549 98548.2 98547.5 98546.8 98546.1 98545.4 98544.7 98543.9 98543.2
          98542.5 98541.8 98541 98540.3 98539.6 98538.9 98538.1 98537.4 98536.6 98535.9 98535.2 98534.4
          98533.7 98532.9 98532.2 98531.4 98530.7 98529.9 98529.2 98528.4 98527.7 98526.9 98526.2 98525.4
          98524.7 98523.9 98523.2 98522.4 98521.6 98520.9 98520.1 98519.4 98518.6 98517.8 98517.1 98516.3
          98515.5 98514.8 98514 98513.2 98512.4 98511.6 98510.9 98510.1 98509.3 98508.5 98507.7 98506.9
          98506.1 98505.3 98504.5 98503.7 98502.9 98502 98501.2 98500.4 101265 101105 100895 100662
          100413 100145 99848.5 99395.9 98561.2 98554.4 98552.7 98551.8 98551 98550.3 98549.6 98548.9
          98548.2 98547.4 98546.7 98546 98545.3 98544.6 98543.9 98543.1 98542.4 98541.7 98540.9 98540.2
          98539.5 98538.8 98538 98537.3 98536.5 98535.8 98535.1 98534.3 98533.6 98532.8 98532.1 98531.3
          98530.6 98529.8 98529.1 98528.3 98527.6 98526.8 98526.1 98525.3 98524.6 98523.8 98523.1 98522.3
          98521.6 98520.8 98520 98519.3 98518.5 98517.7 98517 98516.2 98515.4 98514.7 98513.9 98513.1
          98512.3 98511.6 98510.8 98510 98509.2 98508.4 98507.6 98506.8 98506 98505.2 98504.4 98503.6
          98502.8 98502 98501.2 98500.4 101254 101095 100885 100653 100405 100139 99843 99344.1
          98560.6 98554.3 98552.6 98551.7 98550.9 98550.2 98549.5 98548.8 98548.1 98547.4 98546.6 98545.9
          98545.2 98544.5 98543.8 98543 98542.3 98541.6 98540.9 98540.1 98539.4 98538.6 98537.9 98537.2
          98536.4 98535.7 98535 98534.2 98533.5 98532.7 98532 98531.2 98530.5 98529.7 98529 98528.2
          98527.5 98526.7 98526 98525.2 98524.5 98523.7 98523 98522.2 98521.5 98520.7 98519.9 98519.2
          98518.4 98517.6 98516.9 98516.1 98515.3 98514.6 98513.8 98513 98512.3 98511.5 98510.7 98509.9
          98509.1 98508.4 98507.6 98506.8 98506 98505.2 98504.4 98503.6 98502.8 98502 98501.2 98500.4
          101244 101085 100876 100645 100398 100132 99838.2 99295.8 98560.2 98554.1 98552.5 98551.6
          98550.8 98550.1 98549.4 98548.7 98548 98547.3 98546.5 98545.8 98545.1 98544.4 98543.7 98542.9
          98542.2 98541.5 98540.8 98540 98539.3 98538.6 98537.8 98537.1 98536.3 98535.6 98534.9 98534.1
          98533.4 98532.6 98531.9 98531.1 98530.4 98529.6 98528.9 98528.1 98527.4 98526.6 98525.9 98525.1
          98524.4 98523.6 98522.9 98522.1 98521.4 98520.6 98519.8 98519.1 98518.3 98517.6 98516.8 98516
          98515.3 98514.5 98513.7 98513 98512.2 98511.4 98510.6 98509.9 98509.1 98508.3 98507.5 98506.7
          98505.9 98505.2 98504.4 98503.6 98502.8 98502 98501.2 98500.4 101236 101077 100868 100638
          100391 100126 99834.1 99252 98559.9 98554 98552.4 98551.5 98550.7 98550 98549.3 98548.6
          98547.9 98547.2 98546.5 98545.7 98545 98544.3 98543.6 98542.9 98542.1 98541.4 98540.7 98539.9
          98539.2 98538.5 98537.7 98537 98536.2 98535.5 98534.8 98534 98533.3 98532.5 98531.8 98531
          98530.3 98529.5 98528.8 98528 98527.3 98526.5 98525.8 98525 98524.3 98523.5 98522.8 98522
          98521.3 98520.5 98519.7 98519 98518.2 98517.5 98516.7 98515.9 98515.2 98514.4 98513.6 98512.9
          98512.1 98511.3 98510.6 98509.8 98509 98508.2 98507.5 98506.7 98505.9 98505.1 98504.3 98503.5
          98502.8 98502 98501.2 98500.4 101229 101070 100862 100632 100385 100120 99830.7 99213.8
          98559.6 98553.8 98552.2 98551.4 98550.6 98549.9 98549.2 98548.5 98547.8 98547.1 98546.4 98545.7
          98544.9 98544.2 98543.5 98542.8 98542 98541.3 98540.6 98539.8 98539.1 98538.4 98537.6 98536.9
          98536.1 98535.4 98534.7 98533.9 98533.2 98532.4 98531.7 98530.9 98530.2 98529.4 98528.7 98527.9
          98527.2 98526.4 98525.7 98524.9 98524.2 98523.4 98522.7 98521.9 98521.2 98520.4 98519.6 98518.9
          98518.1 98517.4 98516.6 98515.9 98515.1 98514.3 98513.6 98512.8 98512 98511.3 98510.5 98509.7
          98509 98508.2 98507.4 98506.6 98505.9 98505.1 98504.3 98503.5 98502.7 98502 98501.2 98500.4
          101223 101064 100856 100626 100380 100115 99827.9 99181.2 98559.4 98553.7 98552.2 98551.3
          98550.5 98549.8 98549.1 98548.4 98547.7 98547 98546.3 98545.6 98544.9 98544.1 98543.4 98542.7
          98541.9 98541.2 98540.5 98539.7 98539 98538.3 98537.5 98536.8 98536 98535.3 98534.6 98533.8
          98533.1 98532.3 98531.6 98530.8 98530.1 98529.3 98528.6 98527.8 98527.1 98526.3 98525.6 98524.8
          98524.1 98523.3 98522.6 98521.8 98521.1 98520.3 98519.6 98518.8 98518 98517.3 98516.5 98515.8
          98515 98514.2 98513.5 98512.7 98512 98511.2 98510.4 98509.7 98508.9 98508.1 98507.4 98506.6
          98505.8 98505 98504.3 98503.5 98502.7 98501.9 98501.2 98500.4 101217 101059 100851 100621
          100375 100110 99825.6 99154.5 98559.2 98553.6 98552.1 98551.2 98550.5 98549.8 98549.1 98548.4
          98547.6 98546.9 98546.2 98545.5 98544.8 98544 98543.3 98542.6 98541.9 98541.1 98540.4 98539.7
          98538.9 98538.2 98537.4 98536.7 98536 98535.2 98534.5 98533.7 98533 98532.2 98531.5 98530.7
          98530 98529.2 98528.5 98527.7 98527 98526.2 98525.5 98524.7 98524 98523.2 98522.5 98521.7
          98521 98520.2 98519.5 98518.7 98517.9 98517.2 98516.4 98515.7 98514.9 98514.2 98513.4 98512.6
          98511.9 98511.1 98510.4 98509.6 98508.8 98508.1 98507.3 98506.5 98505.8 98505 98504.2 98503.5
          98502.7 98501.9 98501.2 98500.4 101213 101054 100846 100617 100371 100107 99823.8 99133.4