<?xml version="1.0"?>
<VTKFile type="UnstructuredGrid" version="0.1" byte_order="LittleEndian">
  <UnstructuredGrid>
    <Piece NumberOfCells="4096" NumberOfPoints="4225">
      <PointData Scalars="S_liq">
        <DataArray type="Float32" Name="S_liq" NumberOfComponents="1" format="ascii">
          1 1 1 1 1 1 1 1 1 1 1 1
          1 1 1 1 1 1 1 1 1 1 1 1
          1 1 1 1 1 1 1 1 1 1 1 1
          1 1 1 1 1 1 1 1 0.983707 1 0.897088 0.903719
          0.827896 0.847059 0.825804 0.843103 0.825672 0.84266 0.825641 0.842495 0.825633 0.842442 0.825644 0.842499
          0.825609 0.842572 0.824041 0.840172 0.799631 0.809601 0.800021 0.810697 0.800323 0.811589 0.8004 0.81192
          0.800436 0.812105 0.800471 0.812277 0.800526 0.812511 0.800787 0.813217 0.804104 0.81979 0.889524 0.890237
          0.992282 1 1 1 1 1 1 1 1 1 1 1
          1 1 1 1 1 1 1 1 1 1 1 1
          1 1 1 1 1 1 1 1 1 1 1 1
          1 1 1 1 1 1 1 1 1 1 1 1
          1 1 1 1 1 1 1 1 1 1 1 1
          1 1 1 1 1 1 1 1 1 0.972633 0.885858 0.879385
          0.877745 0.876961 0.876695 0.87693 0.877685 0.875693 0.835928 0.83665 0.838418 0.839417 0.840173 0.840966
          0.842 0.843949 0.853627 0.95857 1 1 1 1 1 1 1 1
          1 1 1 1 1 1 1 1 1 1 1 1
          1 1 1 1 1 1 1 1 1 1 1 1
          1 1 1 1 1 1 1 1 1 1 1 1
          1 1 1 0.971066 0.958794 0.95451 0.952343 0.951585 0.95214 0.954216 0.954076 0.894163
          0.898464 0.902972 0.905812 0.908201 0.910831 0.914253 0.919905 0.940054 1 1 1 1
          1 1 1 1 1 1 1 1 1 1 1 1
          1 1 1 1 1 1 1 1 1 1 1 1
          1 1 1 1 1 1 1 1 1 1 1 1
          1 1 1 1 1 1 1 1 1 1 1 1
          1 1 1 1 0.991709 0.995471 0.998267 0.999867 1 1 1 1
          1 1 1 1 1 1 1 1 1 1 1 1
          1 1 1 1 1 1 1 1 1 1 1 1
          1 1 1 1 1 1 1 1 1 1 1 1
          1 1 1 1 1 1 1 1 1 1 1 1
          1 1 1 1 1 1 1 1 1 1 1 1
          1 1 1 1 1 1 1 1 1 1 1 1
          1 1 1 1 1 1 1 1 1 1 1 1
          1 1 1 1 1 1 1 1 1 1 1 1
          1 1 1 1 1 1 1 1 1 1 1 1
          1 1 1 1 1 1 1 1 1 1 1 1
          1 1 1 1 1 1 1 1 1 1 1 1
          1 1 1 1 1 1 1 1 1 1 1 1
          1 1 1 1 1 1 1 1 1 1 1 1
          1 1 1 1 1 1 1 1 1 1 1 1
          1 1 1 1 1 1 1 1 1 1 1 1
          1 1 1 1 1 1 1 1 1 1 1 1
          1 1 1 1 1 1 1 1 1 1 1 1
          1 1 1 1 1 1 1 1 1 1 1 1
          1 1 1 1 1 1 1 1 1 1 1 1
          1 1 1 1 1 1 1 1 1 1 1 1
          1 1 1 1 1 1 1 1 1 1 1 1
          1 1 1 1 1 1 1 1 1 1 1 1
          1 1 1 1 1 1 1 1 1 1 1 1
          1 1 1 1 1 1 1 1 1 1 1 1
          1 1 1 1 1 1 1 1 1 1 1 1
          1 1 1 1 1 1 1 1 1 1 1 1
          1 1 1 1 1 1 1 1 1 1 1 1
          1 1 1 1 1 1 1 1 1 1 1 1
          1 1 1 1 1 1 1 1 1 1 1 1
          1 1 1 1 1 1 1 1 1 1 1 1
          1 1 1 1 1 1 1 1 1 1 1 1
          1 1 1 1 1 1 1 1 1 1 1 1
          1 1 1 1 1 1 1 1 1 1 1 1
          1 1 1 1 1 1 1 1 1 1 1 1
          1 1 1 1 1 1 1 1 1 1 1 1
          1 1 1 1 1 1 1 1 1 1 1 1
          1 1 1 1 1 1 1 1 1 1 1 1
          1 1 1 1 1 1 1 1 1 1 1 1
          1 1 1 1 1 1 1 1 1 1 1 1
          1 1 1 1 1 1 1 1 1 1 1 1
          1 1 1 1 1 1 1 1 1 1 1 1
          1 1 1 1 1 1 1 1 1 1 1 1
          1 1 1 1 1 1 1 1 1 1 1 1
          1 1 1 1 1 1 1 1 1 1 1 1
          1 1 1 1 1 1 1 1 1 1 1 1
          1 1 1 1 1 1 1 1 1 1 1 1
          1 1 1 1 1 1 1 1 1 1 1 1
          1 1 1 1 1 1 1 1 1 1 1 1
          1 1 1 1 1 1 1 1 1 1 1 1
          1 1 1 1 1 1 1 1 1 1 1 1
          1 1 1 1 1 1 1 1 1 1 1 1
          1 1 1 1 1 1 1 1 1 1 1 1
          1 1 1 1 1 1 1 1 1 1 1 1
          1 1 1 1 1 1 1 1 1 1 1 1
          1 1 1 1 1 1 1 1 1 1 1 1
          1 1 1 1 1 1 1 1 1 1 1 1
          1 1 1 1 1 1 1 1 1 1 1 1
          1 1 1 1 1 1 1 1 1 1 1 1
          1 1 1 1 1 1 1 1 1 1 1 1
          1 1 1 1 1 1 1 1 1 1 1 1
          1 1 1 1 1 1 1 1 1 1 1 1
          1 1 1 1 1 1 1 1 1 1 1 1
          1 1 1 1 1 1 1 1 1 1 1 1
          1 1 1 1 1 1 1 1 1 1 1 1
          1 1 1 1 1 1 1 1 1 1 1 1
          1 1 1 1 1 1 1 1 1 1 1 1
          1 1 1 1 1 1 1 1 1 1 1 1
          1 1 1 1 1 1 1 1 1 1 1 1
          1 1 1 1 1 1 1 1 1 1 1 1
          1 1 1 1 1 1 1 1 1 1 1 1
          1 1 1 1 1 1 1 1 1 1 1 1
          1 1 1 1 1 1 1 1 1 1 1 1
          1 1 1 1 1 1 1 1 1 1 1 1
          1 1 1 1 1 1 1 1 1 1 1 1
          1 1 1 1 1 1 1 1 1 1 1 1
          1 1 1 1 1 1 1 1 1 1 1 1
          1 1 1 1 1 1 1 1 1 1 1 1
          1 1 1 1 1 1 1 1 1 1 1 1
          1 1 1 1 1 1 1 1 1 1 1 1
          1 1 1 1 1 1 1 1 1 1 1 1
          1 1 1 1 1 1 1 1 1 1 1 1
          1 1 1 1 1 1 1 1 1 1 1 1
          1 1 1 1 1 1 1 1 1 1 1 1
          1 1 1 1 1 1 1 1 1 1 1 1
          1 1 1 1 1 1 1 1 1 1 1 1
          1 1 1 1 1 1 1 1 1 1 1 1
          1 1 1 1 1 1 1 1 1 1 1 1
          1 1 1 1 1 1 1 1 1 1 1 1
          1 1 1 1 1 1 1 1 1 1 1 1
          1 1 1 1 1 1 1 1 1 1 1 1
          1 1 1 1 1 1 1 1 1 1 1 1
          1 1 1 1 1 1 1 1 1 1 1 1
          1 1 1 1 1 1 1 1 1 1 1 1
          1 1 1 1 1 1 1 1 1 1 1 1
          1 1 1 1 1 1 1 1 1 1 1 1
          1 1 1 1 1 1 1 1 1 1 1 1
          1 1 1 1 1 1 1 1 1 1 1 1
          1 1 1 1 1 1 1 1 1 1 1 1
          1 1 1 1 1 1 1 1 1 1 1 1
          1 1 1 1 1 1 1 1 1 1 1 1
          1 1 1 1 1 1 1 1 1 1 1 1
          1 1 1 1 1 1 1 1 1 1 1 1
          1 1 1 1 1 1 1 1 1 1 1 1
          1 1 1 1 1 1 1 1 1 1 1 1
          1 1 1 1 1 1 1 1 1 1 1 1
          1 1 1 1 1 1 1 1 1 1 1 1
          1 1 1 1 1 1 1 1 1 1 1 1
          1 1 1 1 1 1 1 1 1 1 1 1
          1 1 1 1 1 1 1 1 1 1 1 1
          1 1 1 1 1 1 1 1 1 1 1 1
          1 1 1 1 1 1 1 1 1 1 1 1
          1 1 1 1 1 1 1 1 1 1 1 1
          1 1 1 1 1 1 1 1 1 1 1 1
          1 1 1 1 1 1 1 1 1 1 1 1
          1 1 1 1 1 1 1 1 1 1 1 1
          1 1 1 1 1 1 1 1 1 1 1 1
          1 1 1 1 1 1 1 1 1 1 1 1
          1 1 1 1 1 1 1 1 1 1 1 1
          1 1 1 1 1 1 1 1 1 1 1 1
          1 1 1 1 1 1 1 1 1 1 1 1
          1 1 1 1 1 1 1 1 1 1 1 1
          1 1 1 1 1 1 1 1 1 1 1 1
          1 1 1 1 1 1 1 1 1 1 1 1
          1 1 1 1 1 1 1 1 1 1 1 1
          1 1 1 1 1 1 1 1 1 1 1 1
          1 1 1 1 1 1 1 1 1 1 1 1
          1 1 1 1 1 1 1 1 1 1 1 1
          1 1 1 1 1 1 1 1 1 1 1 1
          1 1 1 1 1 1 1 1 1 1 1 1
          1 1 1 1 1 1 1 1 1 1 1 1
          1 1 1 1 1 1 1 1 1 1 1 1
          1 1 1 1 1 1 1 1 1 1 1 1
          1 1 1 1 1 1 1 1 1 1 1 1
          1 1 1 1 1 1 1 1 1 1 1 1
          1 1 1 1 1 1 1 1 1 1 1 1
          1 1 1 1 1 1 1 1 1 1 1 1
          1 1 1 1 1 1 1 1 1 1 1 1
          1 1 1 1 1 1 1 1 1 1 1 1
          1 1 1 1 1 1 1 1 1 1 1 1
          1 1 1 1 1 1 1 1 1 1 1 1
          1 1 1 1 1 1 1 1 1 1 1 1
          1 1 1 1 1 1 1 1 1 1 1 1
          1 1 1 1 1 1 1 1 1 1 1 1
          1 1 1 1 1 1 1 1 1 1 1 1
          1 1 1 1 1 1 1 1 1 1 1 1
          1 1 1 1 1 1 1 1 1 1 1 1
          1 1 1 1 1 1 1 1 1 1 1 1
          1 1 1 1 1 1 1 1 1 1 1 1
          1 1 1 1 1 1 1 1 1 1 1 1
          1 1 1 1 1 1 1 1 1 1 1 1
          1 1 1 1 1 1 1 1 1 1 1 1
          1 1 1 1 1 1 1 1 1 1 1 1
          1 1 1 1 1 1 1 1 1 1 1 1
          1 1 1 1 1 1 1 1 1 1 1 1
          1 1 1 1 1 1 1 1 1 1 1 1
          1 1 1 1 1 1 1 1 1 1 1 1
          1 1 1 1 1 1 1 1 1 1 1 1
          1 1 1 1 1 1 1 1 1 1 1 1
          1 1 1 1 1 1 1 1 1 1 1 1
          1 1 1 1 1 1 1 1 1 1 1 1
          1 1 1 1 1 1 1 1 1 1 1 1
          1 1 1 1 1 1 1 1 1 1 1 1
          1 1 1 1 1 1 1 1 1 1 1 1
          1 1 1 1 1 1 1 1 1 1 1 1
          1 1 1 1 1 1 1 1 1 1 1 1
          1 1 1 1 1 1 1 1 1 1 1 1
          1 1 1 1 1 1 1 1 1 1 1 1
          1 1 1 1 1 1 1 1 1 1 1 1
          1 1 1 1 1 1 1 1 1 1 1 1
          1 1 1 1 1 1 1 1 1 1 1 1
          1 1 1 1 1 1 1 1 1 1 1 1
          1 1 1 1 1 1 1 1 1 1 1 1
          1 1 1 1 1 1 1 1 1 1 1 1
          1 1 1 1 1 1 1 1 1 1 1 1
          1 1 1 1 1 1 1 1 1 1 1 1
          1 1 1 1 1 1 1 1 1 1 1 1
          1 1 1 1 1 1 1 1 1 1 1 1
          1 1 1 1 1 1 1 1 1 1 1 1
          1 1 1 1 1 1 1 1 1 1 1 1
          1 1 1 1 1 1 1 1 1 1 1 1
          1 1 1 1 1 1 1 1 1 1 1 1
          1 1 1 1 1 1 1 1 1 1 1 1
          1 1 1 1 1 1 1 1 1 1 1 1
          1 1 1 1 1 1 1 1 1 1 1 1
          1 1 1 1 1 1 1 1 1 1 1 1
          1 1 1 1 1 1 1 1 1 1 1 1
          1 1 1 1 1 1 1 1 1 1 1 1
          1 1 1 1 1 1 1 1 1 1 1 1
          1 1 1 1 1 1 1 1 1 1 1 1
          1 1 1 1 1 1 1 1 1 1 1 1
          1 1 1 1 1 1 1 1 1 1 1 1
          1 1 1 1 1 1 1 1 1 1 1 1
          1 1 1 1 1 1 1 1 1 1 1 1
          1 1 1 1 1 1 1 1 1 1 1 1
          1 1 1 1 1 1 1 1 1 1 1 1
          1 1 1 1 1 1 1 1 1 1 1 1
          1 1 1 1 1 1 1 1 1 1 1 1
          1 1 1 1 1 1 1 1 1 1 1 1
          1 1 1 1 1 1 1 1 1 1 1 1
          1 1 1 1 1 1 1 1 1 1 1 1
          1 1 1 1 1 1 1 1 1 1 1 1
          1 1 1 1 1 1 1 1 1 1 1 1
          1 1 1 1 1 1 1 1 1 1 1 1
          1 1 1 1 1 1 1 1 1 1 1 1
          1 1 1 1 1 1 1 1 1 1 1 1
          1 1 1 1 1 1 1 1 1 1 1 1
          1 1 1 1 1 1 1 1 1 1 1 1
          1 1 1 1 1 1 1 1 1 1 1 1
          1 1 1 1 1 1 1 1 1 1 1 1
          1 1 1 1 1 1 1 1 1 1 1 1
          1 1 1 1 1 1 1 1 1 1 1 1
          1 1 1 1 1 1 1 1 1 1 1 1
          1 1 1 1 1 1 1 1 1 1 1 1
          1 1 1 1 1 1 1 1 1 1 1 1
          1 1 1 1 1 1 1 1 1 1 1 1
          1 1 1 1 1 1 1 1 1 1 1 1
          1 1 1 1 1 1 1 1 1 1 1 1
          1 1 1 1 1 1 1 1 1 1 1 1
          1 1 1 1 1 1 1 1 1 1 1 1
          1 1 1 1 1 1 1 1 1 1 1 1
          1 1 1 1 1 1 1 1 1 1 1 1
          1 1 1 1 1 1 1 1 1 1 1 1
          1 1 1 1 1 1 1 1 1 1 1 1
          1 1 1 1 1 1 1 1 1 1 1 1
          1 1 1 1 1 1 1 1 1 1 1 1
          1 1 1 1 1 1 1 1 1 1 1 1
          1 1 1 1 1 1 1 1 1 1 1 1
          1 1 1 1 1 1 1 1 1 1 1 1
          1 1 1 1 1 1 1 1 1 1 1 1
          1 1 1 1 1 1 1 1 1 1 1 1
          1 1 1 1 1 1 1 1 1 1 1 1
          1 1 1 1 1 1 1 1 1 1 1 1
          1 1 1 1 1 1 1 1 1 1 1 1
          1 1 1 1 1 1 1 1 1 1 1 1
          1 1 1 1 1 1 1 1 1 1 1 1
          1 1 1 1 1 1 1 1 1 1 1 1
          1 1 1 1 1 1 1 1 1 1 1 1
          1 1 1 1 1 1 1 1 1 1 1 1
          1 1 1 1 1 1 1 1 1 1 1 1
          1 1 1 1 1 1 1 1 1 1 1 1
          1 1 1 1 1 1 1 1 1 1 1 1
          1 1 1 1 1 1 1 1 1 1 1 1
          1 1 1 1 1 1 1 1 1 1 1 1
          1 1 1 1 1 1 1 1 1 1 1 1
          1 1 1 1 1 1 1 1 1 1 1 1
          1 1 1 1 1 1 1 1 1 1 1 1
          1 1 1 1 1 1 1 1 1 1 1 1
          1 1 1 1 1 1 1 1 1 1 1 1
          1 1 1 1 1 1 1 1 1 1 1 1
          1 1 1 1 1 1 1 1 1 1 1 1
          1 1 1 1 1 1 1 1 1 1 1 1
          1 1 1 1 1 1 1 1 1 1 1 1
          1 1 1 1 1 1 1 1 1 1 1 1
          1 1 1 1 1 1 1 1 1 1 1 1
          1 1 1 1 1 1 1 1 1 1 1 1
          1 1 1 1 1 1 1 1 1 1 1 1
          1 1 1 1 1 1 1 1 1 1 1 1
          1 1 1 1 1 1 1 1 1 1 1 1
          1 1 1 1 1 1 1 1 1 1 1 1
          1 1 1 1 1 1 1 1 1 1 1 1
          1 1 1 1 1 1 1 1 1 1 1 1
          1 1 1 1 1 1 1 1 1 1 1 1
          1 1 1 1 1 1 1 1 1 1 1 1
          1 1 1 1 1 1 1 1 1 1 1 1
          1 1 1 1 1 1 1 1 1 1 1 1
          1 1 1 1 1 1 1 1 1 1 1 1
          1 1 1 1 1 1 1 1 1 1 1 1
          1 1 1 1 1 1 1 1 1 1 1 1
          1 1 1 1 1 1 1 1 1 1 1 1
          1 1 1 1 1 1 1 1 1 1 1 1
          1 1 1 1 1 1 1 1 1 1 1 1
          1 1 1 1 1 1 1 1 1 1 1 1
          1 1 1 1 1 1 1 1 1 1 1 1
          1 1 1 1 1 1 1 1 1 1 1 1
          1 1 1 1 1 1 1 1 1 1 1 1
          1 1 1 1 1 1 1 1 1 1 1 1
          1 1 1 1 1 1 1 1 1 1 1 1
          1 1 1 1 1 1 1 1 1 1 1 1
          1 1 1 1 1 1 1 1 1 1 1 1
          1 1 1 1 1 1 1 1 1 1 1 1
          1 1 1 1 1 1 1 1 1 1 1 1
          1 1 1 1 1 1 1 1 1 1 1 1
          1 1 1 1 1 1 1 1 1 1 1 1
          1 1 1 1 1 1 1 1 1 1 1 1
          1 1 1 1 1 1 1 1 1 1 1 1
          1 1 1 1 1 1 1 1 1 1 1 1
          1 1 1 1 1 1 1 1 1 1 1 1
          1 1 1 1 1 1 1 1 1 1 1 1
          1 1 1 1 1 1 1 1 1 1 1 1
          1 1 1 1 1 1 1 1 1 1 1 1
          1 1 1 1 1 1 1 1 1 1 1 1
          1 1 1 1 1 1 1 1 1 1 1 1
          1 1 1 1 1 1 1 1 1 1 1 1
          1 1 1 1 1 1 1 1 1 1 1 1
          1 1 1 1 1 1 1 1 1 1 1 1
          1 1 1 1 1 1 1 1 1 1 1 1
          1 1 1 1 1 1 1 1 1 1 1 1
          1 1 1 1 1 1 1 1 1 1 1 1
          1 1 1 1 1 1 1 1 1 1 1 1
          1 1 1 1 1 1 1 1 1 1 1 1
          1 1 1 1 1 1 1 1 1 1 1 1
          1 1 1 1 1 1 1 1 1 1 1 1
          1 1 1 1 1 1 1 1 1 1 1 1
          1 1 1 1 1 1 1 1 1 1 1 1
          1 1 1 1 1 1 1 1 1 1 1 1
          1 1 1 1 1 1 1 1 1 1 1 1
          1 1 1 1 1 1 1 1 1 1 1 1
          1 1 1 1 1 1 1 1 1 1 1 1
          1 1 1 1 1 1 1 1 1 1 1 1
          1 1 1 1 1 1 1 1 1 1 1 1
          1 1 1 1 1 1 1 1 1 1 1 1
          1 1 1 1 1 1 1 1 1 1 1 1
          1 1 1 1 1 1 1 1 1 1 1 1
          1 1 1 1 1 1 1 1 1 1 1 1
          1 1 1 1 1 1 1 1 1 1 1 1
          1 1 1 1 1 1 1 1 1 1 1 1
          1 1 1 1 1 1 1 1 1 1 1 1
          1 1 1 1 1 1 1 1 1 1 1 1
          1 1 1 1 1 1 1 1 1 1 1 1
          1 1 1 1 1 1 1 1 1 1 1 1
          1 1 1 1 1 1 1 1 1 1 1 1
          1 1 1 1 1 1 1 1 1 1 1 1
          1 1 1 1 1 1 1 1 1 1 1 1
          1 1 1 1 1 1 1 1 1 1 1 1
          1 1 1 1 1 1 1 1 1 1 1 1
          1 1 1 1 1 1 1 1 1 1 1 1
          1 1 1 1 1 1 1 1 1 1 1 1
          1
        </DataArray>
        <DataArray type="Float32" Name="p_liq" NumberOfComponents="1" format="ascii">
          9.91e+06 9.9109e+06 9.90387e+06 9.90478e+06 9.91182e+06 9.90571e+06 9.91275e+06 9.90664e+06 9.91369e+06 9.90758e+06 9.91465e+06 9.90853e+06
          9.91561e+06 9.90949e+06 9.91659e+06 9.91047e+06 9.91758e+06 9.91146e+06 9.91859e+06 9.91247e+06 9.91962e+06 9.9135e+06 9.92068e+06 9.91456e+06
          9.92177e+06 9.91564e+06 9.92289e+06 9.91676e+06 9.92404e+06 9.91791e+06 9.92524e+06 9.91911e+06 9.9265e+06 9.92036e+06 9.92782e+06 9.92167e+06
          9.92921e+06 9.92306e+06 9.93069e+06 9.92453e+06 9.93227e+06 9.92611e+06 9.93394e+06 9.92781e+06 9.93592e+06 9.92958e+06 9.93846e+06 9.93271e+06
          9.94132e+06 9.93535e+06 9.94355e+06 9.9376e+06 9.94523e+06 9.93926e+06 9.94638e+06 9.9404e+06 9.94702e+06 9.94104e+06 9.94718e+06 9.9412e+06
          9.94682e+06 9.94086e+06 9.94591e+06 9.93999e+06 9.94442e+06 9.93851e+06 9.94357e+06 9.93767e+06 9.94272e+06 9.93684e+06 9.94183e+06 9.93596e+06
          9.94084e+06 9.93499e+06 9.93973e+06 9.9339e+06 9.93847e+06 9.93265e+06 9.937e+06 9.9312e+06 9.93532e+06 9.92951e+06 9.93336e+06 9.92769e+06
          9.93188e+06 9.92593e+06 9.9309e+06 9.92501e+06 9.93004e+06 9.92413e+06 9.92924e+06 9.92333e+06 9.92852e+06 9.92261e+06 9.92788e+06 9.92196e+06
          9.92735e+06 9.9214e+06 9.92694e+06 9.9209e+06 9.92592e+06 9.91982e+06 9.92475e+06 9.91864e+06 9.92358e+06 9.91746e+06 9.9224e+06 9.91629e+06
          9.92123e+06 9.91512e+06 9.92007e+06 9.91396e+06 9.91892e+06 9.9128e+06 9.91778e+06 9.91166e+06 9.91664e+06 9.91053e+06 9.91551e+06 9.9094e+06
          9.91439e+06 9.90828e+06 9.91328e+06 9.90717e+06 9.91218e+06 9.90606e+06 9.91108e+06 9.90496e+06 9.91e+06 9.90387e+06 9.89774e+06 9.89866e+06
          9.89958e+06 9.90051e+06 9.90145e+06 9.9024e+06 9.90336e+06 9.90434e+06 9.90532e+06 9.90633e+06 9.90736e+06 9.90841e+06 9.90948e+06 9.91059e+06
          9.91173e+06 9.91292e+06 9.91416e+06 9.91545e+06 9.91682e+06 9.91827e+06 9.91982e+06 9.92151e+06 9.92343e+06 9.92607e+06 9.92907e+06 9.93127e+06
          9.93287e+06 9.93396e+06 9.93459e+06 9.93476e+06 9.93448e+06 9.93371e+06 9.93218e+06 9.93139e+06 9.9306e+06 9.92976e+06 9.92883e+06 9.9278e+06
          9.92662e+06 9.92523e+06 9.92357e+06 9.92159e+06 9.92006e+06 9.91903e+06 9.91814e+06 9.91733e+06 9.91661e+06 9.91596e+06 9.91538e+06 9.91485e+06
          9.91374e+06 9.91254e+06 9.91134e+06 9.91016e+06 9.90899e+06 9.90783e+06 9.90668e+06 9.90554e+06 9.90441e+06 9.90328e+06 9.90216e+06 9.90105e+06
          9.89994e+06 9.89884e+06 9.89774e+06 9.89161e+06 9.89253e+06 9.89345e+06 9.89438e+06 9.89532e+06 9.89626e+06 9.89722e+06 9.89819e+06 9.89917e+06
          9.90017e+06 9.90119e+06 9.90223e+06 9.90329e+06 9.90439e+06 9.90552e+06 9.90668e+06 9.9079e+06 9.90916e+06 9.91049e+06 9.9119e+06 9.9134e+06
          9.91504e+06 9.91686e+06 9.91886e+06 9.92149e+06 9.92357e+06 9.92506e+06 9.92609e+06 9.92669e+06 9.92687e+06 9.92665e+06 9.92603e+06 9.92495e+06
          9.92425e+06 9.92351e+06 9.92271e+06 9.92184e+06 9.92089e+06 9.91981e+06 9.91855e+06 9.91699e+06 9.91512e+06 9.91398e+06 9.91295e+06 9.91206e+06
          9.91126e+06 9.91054e+06 9.9099e+06 9.90931e+06 9.90876e+06 9.90763e+06 9.90642e+06 9.90522e+06 9.90403e+06 9.90286e+06 9.9017e+06 9.90055e+06
          9.89941e+06 9.89828e+06 9.89715e+06 9.89603e+06 9.89492e+06 9.89381e+06 9.89271e+06 9.89161e+06 9.88548e+06 9.8864e+06 9.88732e+06 9.88824e+06
          9.88918e+06 9.89012e+06 9.89106e+06 9.89202e+06 9.893e+06 9.89399e+06 9.895e+06 9.89602e+06 9.89707e+06 9.89815e+06 9.89926e+06 9.9004e+06
          9.90158e+06 9.90281e+06 9.90409e+06 9.90544e+06 9.90687e+06 9.90838e+06 9.91e+06 9.91174e+06 9.91342e+06 9.91493e+06 9.91614e+06 9.91702e+06
          9.91756e+06 9.91777e+06 9.91765e+06 9.9172e+06 9.91646e+06 9.91593e+06 9.91526e+06 9.9145e+06 9.91373e+06 9.9129e+06 9.91199e+06 9.91097e+06
          9.90987e+06 9.90877e+06 9.90769e+06 9.90674e+06 9.90588e+06 9.90511e+06 9.90441e+06 9.90377e+06 9.90318e+06 9.90264e+06 9.9015e+06 9.90028e+06
          9.89907e+06 9.89789e+06 9.89672e+06 9.89556e+06 9.89441e+06 9.89327e+06 9.89214e+06 9.89102e+06 9.8899e+06 9.88879e+06 9.88768e+06 9.88658e+06
          9.88548e+06 9.87934e+06 9.88026e+06 9.88118e+06 9.8821e+06 9.88302e+06 9.88396e+06 9.8849e+06 9.88585e+06 9.88681e+06 9.88779e+06 9.88878e+06
          9.8898e+06 9.89083e+06 9.89188e+06 9.89296e+06 9.89408e+06 9.89522e+06 9.8964e+06 9.89763e+06 9.89891e+06 9.90023e+06 9.90162e+06 9.90305e+06
          9.90449e+06 9.90588e+06 9.90712e+06 9.90814e+06 9.90892e+06 9.90942e+06 9.90964e+06 9.90959e+06 9.90927e+06 9.90871e+06 9.90833e+06 9.90782e+06
          9.90721e+06 9.90653e+06 9.90579e+06 9.90497e+06 9.90409e+06 9.90316e+06 9.90221e+06 9.90129e+06 9.90042e+06 9.89963e+06 9.89889e+06 9.89822e+06
          9.89759e+06 9.89701e+06 9.89647e+06 9.89533e+06 9.89411e+06 9.89291e+06 9.89173e+06 9.89056e+06 9.8894e+06 9.88826e+06 9.88712e+06 9.886e+06
          9.88488e+06 9.88376e+06 9.88266e+06 9.88155e+06 9.88045e+06 9.87934e+06 9.87321e+06 9.87412e+06 9.87503e+06 9.87595e+06 9.87686e+06 9.87779e+06
          9.87872e+06 9.87966e+06 9.88061e+06 9.88158e+06 9.88256e+06 9.88355e+06 9.88456e+06 9.88559e+06 9.88664e+06 9.88772e+06 9.88882e+06 9.88996e+06
          9.89112e+06 9.89232e+06 9.89354e+06 9.8948e+06 9.89606e+06 9.8973e+06 9.89847e+06 9.89953e+06 9.90041e+06 9.90109e+06 9.90155e+06 9.90179e+06
          9.9018e+06 9.90159e+06 9.9012e+06 9.9009e+06 9.9005e+06 9.89999e+06 9.8994e+06 9.89875e+06 9.89803e+06 9.89726e+06 9.89645e+06 9.89563e+06
          9.89482e+06 9.89405e+06 9.89331e+06 9.89262e+06 9.89197e+06 9.89136e+06 9.8908e+06 9.89026e+06 9.88914e+06 9.88792e+06 9.88673e+06 9.88555e+06
          9.88439e+06 9.88324e+06 9.8821e+06 9.88097e+06 9.87985e+06 9.87873e+06 9.87762e+06 9.87652e+06 9.87541e+06 9.87431e+06 9.87321e+06 9.86708e+06
          9.86798e+06 9.86888e+06 9.86979e+06 9.8707e+06 9.87161e+06 9.87254e+06 9.87346e+06 9.8744e+06 9.87535e+06 9.87631e+06 9.87728e+06 9.87827e+06
          9.87927e+06 9.8803e+06 9.88134e+06 9.8824e+06 9.88348e+06 9.88458e+06 9.8857e+06 9.88683e+06 9.88797e+06 9.88909e+06 9.89018e+06 9.8912e+06
          9.89211e+06 9.89288e+06 9.89349e+06 9.89392e+06 9.89416e+06 9.89422e+06 9.8941e+06 9.89383e+06 9.8936e+06 9.89327e+06 9.89284e+06 9.89234e+06
          9.89177e+06 9.89114e+06 9.89047e+06 9.88976e+06 9.88904e+06 9.88833e+06 9.88762e+06 9.88694e+06 9.8863e+06 9.88568e+06 9.8851e+06 9.88455e+06
          9.88402e+06 9.88291e+06 9.88171e+06 9.88053e+06 9.87936e+06 9.87821e+06 9.87706e+06 9.87593e+06 9.87481e+06 9.87369e+06 9.87258e+06 9.87148e+06
          9.87037e+06 9.86927e+06 9.86818e+06 9.86708e+06 9.86095e+06 9.86184e+06 9.86274e+06 9.86363e+06 9.86453e+06 9.86543e+06 9.86634e+06 9.86726e+06
          9.86818e+06 9.86911e+06 9.87005e+06 9.871e+06 9.87196e+06 9.87294e+06 9.87393e+06 9.87493e+06 9.87595e+06 9.87698e+06 9.87801e+06 9.87906e+06
          9.88011e+06 9.88114e+06 9.88216e+06 9.88312e+06 9.88402e+06 9.88483e+06 9.88552e+06 9.88607e+06 9.88647e+06 9.88672e+06 9.88681e+06 9.88676e+06
          9.88658e+06 9.88641e+06 9.88614e+06 9.88578e+06 9.88535e+06 9.88485e+06 9.8843e+06 9.88371e+06 9.88309e+06 9.88245e+06 9.88181e+06 9.88117e+06
          9.88055e+06 9.87994e+06 9.87936e+06 9.8788e+06 9.87827e+06 9.87776e+06 9.87666e+06 9.87548e+06 9.87431e+06 9.87316e+06 9.87201e+06 9.87088e+06
          9.86976e+06 9.86864e+06 9.86753e+06 9.86642e+06 9.86532e+06 9.86423e+06 9.86313e+06 9.86204e+06 9.86095e+06 9.85482e+06 9.8557e+06 9.85658e+06
          9.85747e+06 9.85836e+06 9.85924e+06 9.86014e+06 9.86104e+06 9.86195e+06 9.86286e+06 9.86378e+06 9.86471e+06 9.86565e+06 9.86659e+06 9.86755e+06
          9.86851e+06 9.86948e+06 9.87046e+06 9.87144e+06 9.87242e+06 9.87339e+06 9.87434e+06 9.87526e+06 9.87614e+06 9.87694e+06 9.87767e+06 9.87829e+06
          9.8788e+06 9.87918e+06 9.87943e+06 9.87956e+06 9.87956e+06 9.87944e+06 9.87931e+06 9.87909e+06 9.87878e+06 9.87842e+06 9.87799e+06 9.87751e+06
          9.87699e+06 9.87644e+06 9.87587e+06 9.87529e+06 9.87471e+06 9.87413e+06 9.87357e+06 9.87302e+06 9.87248e+06 9.87197e+06 9.87147e+06 9.8704e+06
          9.86923e+06 9.86808e+06 9.86694e+06 9.86581e+06 9.86468e+06 9.86357e+06 9.86246e+06 9.86136e+06 9.86026e+06 9.85917e+06 9.85808e+06 9.85699e+06
          9.8559e+06 9.85482e+06 9.84869e+06 9.84956e+06 9.85043e+06 9.8513e+06 9.85218e+06 9.85305e+06 9.85394e+06 9.85482e+06 9.85571e+06 9.8566e+06
          9.8575e+06 9.85841e+06 9.85932e+06 9.86024e+06 9.86116e+06 9.86209e+06 9.86302e+06 9.86395e+06 9.86487e+06 9.86579e+06 9.86669e+06 9.86757e+06
          9.86842e+06 9.86922e+06 9.86995e+06 9.87061e+06 9.87118e+06 9.87166e+06 9.87202e+06 9.87228e+06 9.87242e+06 9.87246e+06 9.8724e+06 9.8723e+06
          9.87212e+06 9.87186e+06 9.87154e+06 9.87117e+06 9.87075e+06 9.87029e+06 9.8698e+06 9.86929e+06 9.86877e+06 9.86824e+06 9.8677e+06 9.86718e+06
          9.86666e+06 9.86615e+06 9.86565e+06 9.86516e+06 9.86411e+06 9.86297e+06 9.86184e+06 9.86071e+06 9.85959e+06 9.85848e+06 9.85738e+06 9.85628e+06
          9.85519e+06 9.8541e+06 9.85301e+06 9.85193e+06 9.85085e+06 9.84977e+06 9.84869e+06 9.84256e+06 9.84342e+06 9.84427e+06 9.84513e+06 9.846e+06
          9.84686e+06 9.84772e+06 9.84859e+06 9.84947e+06 9.85034e+06 9.85122e+06 9.8521e+06 9.85299e+06 9.85388e+06 9.85477e+06 9.85566e+06 9.85655e+06
          9.85743e+06 9.85831e+06 9.85917e+06 9.86002e+06 9.86084e+06 9.86162e+06 9.86235e+06 9.86303e+06 9.86364e+06 9.86417e+06 9.86462e+06 9.86497e+06
          9.86523e+06 9.86539e+06 9.86546e+06 9.86544e+06 9.86536e+06 9.86522e+06 9.865e+06 9.86473e+06 9.8644e+06 9.86404e+06 9.86363e+06 9.86319e+06
          9.86273e+06 9.86225e+06 9.86176e+06 9.86127e+06 9.86078e+06 9.86028e+06 9.8598e+06 9.85932e+06 9.85885e+06 9.85782e+06 9.8567e+06 9.85558e+06
          9.85448e+06 9.85337e+06 9.85228e+06 9.85118e+06 9.8501e+06 9.84901e+06 9.84793e+06 9.84685e+06 9.84578e+06 9.8447e+06 9.84363e+06 9.84256e+06
          9.83642e+06 9.83727e+06 9.83812e+06 9.83896e+06 9.83981e+06 9.84066e+06 9.84151e+06 9.84236e+06 9.84322e+06 9.84408e+06 9.84493e+06 9.84579e+06
          9.84665e+06 9.84752e+06 9.84838e+06 9.84923e+06 9.85008e+06 9.85093e+06 9.85176e+06 9.85258e+06 9.85337e+06 9.85414e+06 9.85487e+06 9.85555e+06
          9.85618e+06 9.85675e+06 9.85725e+06 9.85768e+06 9.85802e+06 9.85828e+06 9.85846e+06 9.85855e+06 9.85856e+06 9.8585e+06 9.85838e+06 9.8582e+06
          9.85797e+06 9.85768e+06 9.85736e+06 9.85699e+06 9.8566e+06 9.85618e+06 9.85574e+06 9.8553e+06 9.85484e+06 9.85437e+06 9.85391e+06 9.85344e+06
          9.85298e+06 9.85252e+06 9.85151e+06 9.85042e+06 9.84932e+06 9.84823e+06 9.84715e+06 9.84606e+06 9.84498e+06 9.84391e+06 9.84283e+06 9.84176e+06
          9.84069e+06 9.83962e+06 9.83856e+06 9.83749e+06 9.83642e+06 9.83029e+06 9.83113e+06 9.83196e+06 9.83279e+06 9.83363e+06 9.83446e+06 9.8353e+06
          9.83613e+06 9.83697e+06 9.83781e+06 9.83865e+06 9.83948e+06 9.84032e+06 9.84115e+06 9.84198e+06 9.84281e+06 9.84363e+06 9.84443e+06 9.84523e+06
          9.846e+06 9.84675e+06 9.84747e+06 9.84816e+06 9.8488e+06 9.84939e+06 9.84993e+06 9.8504e+06 9.85081e+06 9.85115e+06 9.85141e+06 9.8516e+06
          9.85172e+06 9.85174e+06 9.8517e+06 9.8516e+06 9.85145e+06 9.85125e+06 9.851e+06 9.85071e+06 9.85039e+06 9.85003e+06 9.84965e+06 9.84925e+06
          9.84884e+06 9.84841e+06 9.84797e+06 9.84753e+06 9.84709e+06 9.84664e+06 9.84619e+06 9.84521e+06 9.84413e+06 9.84306e+06 9.84199e+06 9.84092e+06
          9.83985e+06 9.83878e+06 9.83772e+06 9.83665e+06 9.83559e+06 9.83453e+06 9.83347e+06 9.83241e+06 9.83135e+06 9.83029e+06 9.82416e+06 9.82498e+06
          9.8258e+06 9.82662e+06 9.82744e+06 9.82826e+06 9.82908e+06 9.8299e+06 9.83072e+06 9.83154e+06 9.83236e+06 9.83317e+06 9.83399e+06 9.83479e+06
          9.8356e+06 9.83639e+06 9.83718e+06 9.83795e+06 9.83871e+06 9.83945e+06 9.84016e+06 9.84084e+06 9.84149e+06 9.8421e+06 9.84266e+06 9.84317e+06
          9.84363e+06 9.84402e+06 9.84435e+06 9.84462e+06 9.84482e+06 9.84495e+06 9.84498e+06 9.84496e+06 9.84488e+06 9.84476e+06 9.84458e+06 9.84436e+06
          9.84411e+06 9.84382e+06 9.84349e+06 9.84315e+06 9.84278e+06 9.84239e+06 9.84199e+06 9.84158e+06 9.84116e+06 9.84073e+06 9.8403e+06 9.83986e+06
          9.8389e+06 9.83785e+06 9.83679e+06 9.83574e+06 9.83468e+06 9.83363e+06 9.83257e+06 9.83152e+06 9.83047e+06 9.82942e+06 9.82836e+06 9.82731e+06
          9.82626e+06 9.82521e+06 9.82416e+06 9.81803e+06 9.81884e+06 9.81964e+06 9.82045e+06 9.82126e+06 9.82206e+06 9.82287e+06 9.82367e+06 9.82447e+06
          9.82527e+06 9.82607e+06 9.82687e+06 9.82766e+06 9.82844e+06 9.82922e+06 9.82999e+06 9.83074e+06 9.83149e+06 9.83221e+06 9.83292e+06 9.8336e+06
          9.83425e+06 9.83487e+06 9.83545e+06 9.83598e+06 9.83647e+06 9.83691e+06 9.83729e+06 9.83762e+06 9.83788e+06 9.8381e+06 9.83824e+06 9.83828e+06
          9.83828e+06 9.83822e+06 9.83811e+06 9.83796e+06 9.83777e+06 9.83754e+06 9.83727e+06 9.83698e+06 9.83666e+06 9.83632e+06 9.83596e+06 9.83558e+06
          9.83519e+06 9.83479e+06 9.83438e+06 9.83396e+06 9.83354e+06 9.83259e+06 9.83156e+06 9.83053e+06 9.82949e+06 9.82845e+06 9.82741e+06 9.82637e+06
          9.82533e+06 9.82428e+06 9.82324e+06 9.8222e+06 9.82116e+06 9.82012e+06 9.81907e+06 9.81803e+06 9.8119e+06 9.81269e+06 9.81349e+06 9.81428e+06
          9.81507e+06 9.81586e+06 9.81665e+06 9.81744e+06 9.81823e+06 9.81901e+06 9.81979e+06 9.82056e+06 9.82133e+06 9.8221e+06 9.82285e+06 9.82359e+06
          9.82432e+06 9.82504e+06 9.82574e+06 9.82641e+06 9.82706e+06 9.82769e+06 9.82828e+06 9.82883e+06 9.82935e+06 9.82982e+06 9.83024e+06 9.83062e+06
          9.83094e+06 9.83121e+06 9.83143e+06 9.83159e+06 9.83164e+06 9.83164e+06 9.8316e+06 9.83151e+06 9.83138e+06 9.8312e+06 9.831e+06 9.83076e+06
          9.83049e+06 9.8302e+06 9.82988e+06 9.82954e+06 9.82918e+06 9.82881e+06 9.82843e+06 9.82803e+06 9.82763e+06 9.82721e+06 9.82629e+06 9.82528e+06
          9.82426e+06 9.82324e+06 9.82222e+06 9.82119e+06 9.82016e+06 9.81913e+06 9.8181e+06 9.81707e+06 9.81604e+06 9.815e+06 9.81397e+06 9.81293e+06
          9.8119e+06 9.80577e+06 9.80655e+06 9.80733e+06 9.80811e+06 9.80889e+06 9.80966e+06 9.81044e+06 9.81121e+06 9.81198e+06 9.81275e+06 9.81351e+06
          9.81427e+06 9.81502e+06 9.81576e+06 9.81649e+06 9.81721e+06 9.81792e+06 9.81861e+06 9.81928e+06 9.81993e+06 9.82056e+06 9.82116e+06 9.82173e+06
          9.82226e+06 9.82276e+06 9.82322e+06 9.82363e+06 9.824e+06 9.82432e+06 9.82459e+06 9.82481e+06 9.82499e+06 9.82504e+06 9.82505e+06 9.82502e+06
          9.82494e+06 9.82483e+06 9.82468e+06 9.82449e+06 9.82428e+06 9.82403e+06 9.82375e+06 9.82346e+06 9.82314e+06 9.8228e+06 9.82245e+06 9.82208e+06
          9.8217e+06 9.8213e+06 9.8209e+06 9.81999e+06 9.819e+06 9.818e+06 9.817e+06 9.81599e+06 9.81497e+06 9.81396e+06 9.81294e+06 9.81192e+06
          9.81089e+06 9.80987e+06 9.80885e+06 9.80782e+06 9.8068e+06 9.80577e+06 9.79964e+06 9.8004e+06 9.80117e+06 9.80194e+06 9.8027e+06 9.80347e+06
          9.80423e+06 9.80499e+06 9.80574e+06 9.80649e+06 9.80724e+06 9.80798e+06 9.80871e+06 9.80943e+06 9.81014e+06 9.81084e+06 9.81153e+06 9.8122e+06
          9.81285e+06 9.81348e+06 9.81408e+06 9.81466e+06 9.81521e+06 9.81573e+06 9.81621e+06 9.81666e+06 9.81706e+06 9.81742e+06 9.81774e+06 9.81802e+06
          9.81825e+06 9.81843e+06 9.81849e+06 9.81851e+06 9.81848e+06 9.81842e+06 9.81832e+06 9.81819e+06 9.81802e+06 9.81782e+06 9.81759e+06 9.81734e+06
          9.81706e+06 9.81676e+06 9.81644e+06 9.8161e+06 9.81574e+06 9.81537e+06 9.81499e+06 9.81459e+06 9.8137e+06 9.81273e+06 9.81175e+06 9.81076e+06
          9.80976e+06 9.80876e+06 9.80776e+06 9.80675e+06 9.80574e+06 9.80472e+06 9.80371e+06 9.80269e+06 9.80167e+06 9.80066e+06 9.79964e+06 9.79351e+06
          9.79426e+06 9.79502e+06 9.79577e+06 9.79652e+06 9.79727e+06 9.79802e+06 9.79876e+06 9.7995e+06 9.80024e+06 9.80097e+06 9.80169e+06 9.8024e+06
          9.80311e+06 9.8038e+06 9.80448e+06 9.80515e+06 9.8058e+06 9.80643e+06 9.80704e+06 9.80763e+06 9.80819e+06 9.80873e+06 9.80923e+06 9.8097e+06
          9.81013e+06 9.81053e+06 9.81089e+06 9.81121e+06 9.81149e+06 9.81172e+06 9.81191e+06 9.81198e+06 9.812e+06 9.81199e+06 9.81194e+06 9.81185e+06
          9.81173e+06 9.81158e+06 9.8114e+06 9.81118e+06 9.81094e+06 9.81068e+06 9.81039e+06 9.81009e+06 9.80976e+06 9.80942e+06 9.80906e+06 9.80869e+06
          9.8083e+06 9.80742e+06 9.80647e+06 9.8055e+06 9.80452e+06 9.80354e+06 9.80255e+06 9.80156e+06 9.80056e+06 9.79956e+06 9.79855e+06 9.79754e+06
          9.79654e+06 9.79553e+06 9.79452e+06 9.79351e+06 9.78738e+06 9.78812e+06 9.78886e+06 9.7896e+06 9.79034e+06 9.79108e+06 9.79182e+06 9.79255e+06
          9.79327e+06 9.79399e+06 9.79471e+06 9.79542e+06 9.79611e+06 9.7968e+06 9.79748e+06 9.79814e+06 9.79879e+06 9.79943e+06 9.80004e+06 9.80064e+06
          9.80121e+06 9.80175e+06 9.80227e+06 9.80276e+06 9.80322e+06 9.80365e+06 9.80404e+06 9.8044e+06 9.80472e+06 9.805e+06 9.80524e+06 9.80544e+06