<?xml version="1.0"?>
<VTKFile type="UnstructuredGrid" version="0.1" byte_order="LittleEndian">
  <UnstructuredGrid>
    <Piece NumberOfCells="1600" NumberOfPoints="1681">
      <CellData Scalars="rank" Vectors="velocity">
        <DataArray type="Float32" Name="velocity" NumberOfComponents="3" format="ascii">
          3.69428e-06 -3.69428e-06 0 3.14346e-05 -1.02558e-05 0 1.02558e-05 -3.14346e-05 0 8.72265e-05 -8.72265e-05 0
          8.276e-05 -1.57618e-05 0 0.000153612 -2.0264e-05 0 0.000240154 -2.38172e-05 0 0.000229623 -0.000133983 0
          0.000426184 -0.000172181 0 0.000666269 -0.000202299 0 1.57618e-05 -8.276e-05 0 2.0264e-05 -0.000153612 0
          0.000133983 -0.000229623 0 0.000172181 -0.000426184 0 2.38172e-05 -0.000240154 0 0.000202299 -0.000666269 0
          0.000352671 -0.000352671 0 0.00065453 -0.000453173 0 0.000453173 -0.00065453 0 0.00084102 -0.00084102 0
          0.00102322 -0.000532405 0 0.00131473 -0.000988028 0 0.000532405 -0.00102322 0 0.000988028 -0.00131473 0
          0.00154451 -0.00154451 0 0.000338776 -2.6477e-05 0 0.000446095 -2.82998e-05 0 0.000939864 -0.000224823 0
          0.00123758 -0.000240239 0 0.000558949 -2.93424e-05 0 0.000674406 -2.96618e-05 0 0.000789757 -2.93154e-05 0
          0.00155065 -0.000249034 0 0.00187094 -0.000251697 0 0.00219094 -0.000248716 0 0.00144337 -0.000591646 0
          0.00185455 -0.00109794 0 0.00190056 -0.000632181 0 0.00244195 -0.00117313 0 0.00217865 -0.0017163 0
          0.00286868 -0.00183382 0 0.00238132 -0.000655295 0 0.00287317 -0.000662274 0 0.00305964 -0.001216 0
          0.00369157 -0.00122893 0 0.00336457 -0.000654407 0 0.00432292 -0.00121431 0 0.00359429 -0.0019008 0
          0.00433663 -0.00192099 0 0.00507828 -0.00189813 0 2.6477e-05 -0.000338776 0 0.000224823 -0.000939864 0
          2.82998e-05 -0.000446095 0 0.000240239 -0.00123758 0 0.000591646 -0.00144337 0 0.00109794 -0.00185455 0
          0.0017163 -0.00217865 0 0.000632181 -0.00190056 0 0.00117313 -0.00244195 0 0.00183382 -0.00286868 0
          2.93424e-05 -0.000558949 0 2.96618e-05 -0.000674406 0 0.000249034 -0.00155065 0 0.000251697 -0.00187094 0
          2.93154e-05 -0.000789757 0 0.000248716 -0.00219094 0 0.000655295 -0.00238132 0 0.001216 -0.00305964 0
          0.000662274 -0.00287317 0 0.00122893 -0.00369157 0 0.0019008 -0.00359429 0 0.00192099 -0.00433663 0
          0.000654407 -0.00336457 0 0.00121431 -0.00432292 0 0.00189813 -0.00507828 0 0.00242094 -0.00242094 0
          0.00318768 -0.00258668 0 0.00258668 -0.00318768 0 0.0034059 -0.0034059 0 0.00399396 -0.00268115 0
          0.00481883 -0.00270961 0 0.00564292 -0.00267735 0 0.00426735 -0.00353026 0 0.00514866 -0.00356773 0
          0.00602915 -0.00352523 0 0.00268115 -0.00399396 0 0.00270961 -0.00481883 0 0.00353026 -0.00426735 0
          0.00356773 -0.00514866 0 0.00267735 -0.00564292 0 0.00352523 -0.00602915 0 0.00442316 -0.00442316 0
          0.00533662 -0.00447008 0 0.00447008 -0.00533662 0 0.00539322 -0.00539322 0 0.00624924 -0.00441682 0
          0.0063155 -0.00532895 0 0.00441682 -0.00624924 0 0.00532895 -0.0063155 0 0.00624023 -0.00624023 0
          0.00090252 -2.83607e-05 0 0.00101044 -2.68552e-05 0 0.00250376 -0.00024058 0 0.00280313 -0.00022778 0
          0.00111148 -2.48567e-05 0 0.00120384 -2.24231e-05 0 0.00128595 -1.96122e-05 0 0.00308344 -0.000210807 0
          0.00333966 -0.00019015 0 0.00356742 -0.0001663 0 0.00384494 -0.000632983 0 0.00494011 -0.00117454 0
          0.00430467 -0.00059929 0 0.00553077 -0.00111201 0 0.00580329 -0.00183595 0 0.00649715 -0.0017382 0
          0.00473512 -0.000554621 0 0.00512858 -0.000500264 0 0.0060838 -0.00102911 0 0.00658932 -0.000928245 0
          0.00547833 -0.00043751 0 0.00703868 -0.0008118 0 0.00714679 -0.00160861 0 0.00774063 -0.00145093 0
          0.00826849 -0.00126892 0 0.00135643 -1.64819e-05 0 0.00141418 -1.30903e-05 0 0.00376295 -0.000139748 0
          0.00392314 -0.000110986 0 0.00145827 -9.49548e-06 0 0.00148805 -5.75538e-06 0 0.00150305 -1.92814e-06 0
          0.00404547 -8.05041e-05 0 0.00412807 -4.87938e-05 0 0.00416968 -1.63465e-05 0 0.0057786 -0.000367652 0
          0.00742447 -0.000682175 0 0.00602458 -0.000291981 0 0.00774051 -0.000541765 0 0.00872167 -0.0010663 0
          0.00909293 -0.000846822 0 0.00621243 -0.000211788 0 0.00633927 -0.000128365 0 0.00798186 -0.000392966 0
          0.00814482 -0.000238177 0 0.00640317 -4.30035e-05 0 0.00822692 -7.97917e-05 0 0.00937644 -0.000614237 0
          0.00956787 -0.000372288 0 0.00966431 -0.00012472 0 0.00644853 -0.00258963 0 0.00721952 -0.00245173 0
          0.00688988 -0.00340972 0 0.00771362 -0.00322814 0 0.00794139 -0.00226894 0 0.00860123 -0.00204654 0
          0.00918777 -0.0017898 0 0.00848488 -0.00298746 0 0.00918987 -0.00269462 0 0.00981654 -0.00235657 0
          0.00714138 -0.00427208 0 0.00721709 -0.00515431 0 0.00799518 -0.00404458 0 0.00807993 -0.00487982 0
          0.00713105 -0.00603572 0 0.0079836 -0.00571428 0 0.00879458 -0.00374302 0 0.00952529 -0.00337611 0
          0.00888779 -0.00451597 0 0.00962624 -0.00407329 0 0.0101748 -0.00295256 0 0.0102826 -0.00356227 0
          0.00878182 -0.00528821 0 0.00951146 -0.00476982 0 0.01016 -0.00417142 0 0.00969133 -0.001504 0
          0.0101039 -0.00119443 0 0.0103546 -0.00198027 0 0.0107953 -0.00157267 0 0.0104189 -0.000866372 0
          0.0106316 -0.000525106 0 0.0107388 -0.000175916 0 0.0111319 -0.00114072 0 0.0113592 -0.000691389 0
          0.0114736 -0.000231622 0 0.0107325 -0.00248108 0 0.0108462 -0.00299343 0 0.0111893 -0.0019704 0
          0.0113079 -0.00237729 0 0.0107169 -0.00350531 0 0.011173 -0.0027838 0 0.0115382 -0.00142921 0
          0.0117737 -0.000866242 0 0.0116604 -0.00172435 0 0.0118985 -0.00104512 0 0.0118924 -0.0002902 0
          0.0120184 -0.000350126 0 0.0115214 -0.0020192 0 0.0117566 -0.00122383 0 0.0118751 -0.000409996 0
          2.83607e-05 -0.00090252 0 0.00024058 -0.00250376 0 2.68552e-05 -0.00101044 0 0.00022778 -0.00280313 0
          0.000632983 -0.00384494 0 0.00117454 -0.00494011 0 0.00183595 -0.00580329 0 0.00059929 -0.00430467 0
          0.00111201 -0.00553077 0 0.0017382 -0.00649715 0 2.48567e-05 -0.00111148 0 2.24231e-05 -0.00120384 0
          0.000210807 -0.00308344 0 0.00019015 -0.00333966 0 1.96122e-05 -0.00128595 0 0.0001663 -0.00356742 0
          0.000554621 -0.00473512 0 0.00102911 -0.0060838 0 0.000500264 -0.00512858 0 0.000928245 -0.00658932 0
          0.00160861 -0.00714679 0 0.00145093 -0.00774063 0 0.00043751 -0.00547833 0 0.0008118 -0.00703868 0
          0.00126892 -0.00826849 0 0.00258963 -0.00644853 0 0.00340972 -0.00688988 0 0.00245173 -0.00721952 0
          0.00322814 -0.00771362 0 0.00427208 -0.00714138 0 0.00515431 -0.00721709 0 0.00603572 -0.00713105 0
          0.00404458 -0.00799518 0 0.00487982 -0.00807993 0 0.00571428 -0.0079836 0 0.00226894 -0.00794139 0
          0.00204654 -0.00860123 0 0.00298746 -0.00848488 0 0.00269462 -0.00918987 0 0.0017898 -0.00918777 0
          0.00235657 -0.00981654 0 0.00374302 -0.00879458 0 0.00451597 -0.00888779 0 0.00337611 -0.00952529 0
          0.00407329 -0.00962624 0 0.00528821 -0.00878182 0 0.00476982 -0.00951146 0 0.00295256 -0.0101748 0
          0.00356227 -0.0102826 0 0.00417142 -0.01016 0 1.64819e-05 -0.00135643 0 0.000139748 -0.00376295 0
          1.30903e-05 -0.00141418 0 0.000110986 -0.00392314 0 0.000367652 -0.0057786 0 0.000682175 -0.00742447 0
          0.0010663 -0.00872167 0 0.000291981 -0.00602458 0 0.000541765 -0.00774051 0 0.000846822 -0.00909293 0
          9.49548e-06 -0.00145827 0 5.75538e-06 -0.00148805 0 8.05041e-05 -0.00404547 0 4.87938e-05 -0.00412807 0
          1.92814e-06 -0.00150305 0 1.63465e-05 -0.00416968 0 0.000211788 -0.00621243 0 0.000392966 -0.00798186 0
          0.000128365 -0.00633927 0 0.000238177 -0.00814482 0 0.000614237 -0.00937644 0 0.000372288 -0.00956787 0
          4.30035e-05 -0.00640317 0 7.97917e-05 -0.00822692 0 0.00012472 -0.00966431 0 0.001504 -0.00969133 0
          0.00198027 -0.0103546 0 0.00119443 -0.0101039 0 0.00157267 -0.0107953 0 0.00248108 -0.0107325 0
          0.00299343 -0.0108462 0 0.00350531 -0.0107169 0 0.0019704 -0.0111893 0 0.00237729 -0.0113079 0
          0.0027838 -0.011173 0 0.000866372 -0.0104189 0 0.000525106 -0.0106316 0 0.00114072 -0.0111319 0
          0.000691389 -0.0113592 0 0.000175916 -0.0107388 0 0.000231622 -0.0114736 0 0.00142921 -0.0115382 0
          0.00172435 -0.0116604 0 0.000866242 -0.0117737 0 0.00104512 -0.0118985 0 0.0020192 -0.0115214 0
          0.00122383 -0.0117566 0 0.0002902 -0.0118924 0 0.000350126 -0.0120184 0 0.000409996 -0.0118751 0
          0.00689734 -0.00689734 0 0.00772194 -0.00653001 0 0.00653001 -0.00772194 0 0.00731068 -0.00731068 0
          0.00849399 -0.00604311 0 0.00919971 -0.00545071 0 0.00982702 -0.00476688 0 0.00804161 -0.00676557 0
          0.00870973 -0.00610235 0 0.00930363 -0.00533676 0 0.00604311 -0.00849399 0 0.00545071 -0.00919971 0
          0.00676557 -0.00804161 0 0.00610235 -0.00870973 0 0.00476688 -0.00982702 0 0.00533676 -0.00930363 0
          0.00744199 -0.00744199 0 0.00806029 -0.00671246 0 0.00671246 -0.00806029 0 0.00727014 -0.00727014 0
          0.0086099 -0.00587033 0 0.00776587 -0.00635805 0 0.00587033 -0.0086099 0 0.00635805 -0.00776587 0
          0.00679158 -0.00679158 0 0.0103656 -0.00400568 0 0.0108068 -0.00318118 0 0.00981351 -0.00448456 0
          0.0102312 -0.00356149 0 0.0111437 -0.00230744 0 0.0113712 -0.00139853 0 0.0114858 -0.000468522 0
          0.0105502 -0.00258329 0 0.0107656 -0.00156572 0 0.0108741 -0.000524533 0 0.00908176 -0.00493292 0
          0.00819147 -0.00534276 0 0.00946831 -0.00391756 0 0.00854012 -0.00424304 0 0.00716378 -0.00570706 0
          0.00746869 -0.00453235 0 0.00976351 -0.00284157 0 0.00996282 -0.00172226 0 0.00880638 -0.00307765 0
          0.00898616 -0.00186535 0 0.0100632 -0.000576975 0 0.00907673 -0.000624911 0 0.00770154 -0.0032875 0
          0.00785876 -0.00199254 0 0.00793797 -0.000667521 0 0.00400568 -0.0103656 0 0.00448456 -0.00981351 0
          0.00318118 -0.0108068 0 0.00356149 -0.0102312 0 0.00493292 -0.00908176 0 0.00534276 -0.00819147 0
          0.00570706 -0.00716378 0 0.00391756 -0.00946831 0 0.00424304 -0.00854012 0 0.00453235 -0.00746869 0
          0.00230744 -0.0111437 0 0.00139853 -0.0113712 0 0.00258329 -0.0105502 0 0.00156572 -0.0107656 0
          0.000468522 -0.0114858 0 0.000524533 -0.0108741 0 0.00284157 -0.00976351 0 0.00307765 -0.00880638 0
          0.00172226 -0.00996282 0 0.00186535 -0.00898616 0 0.0032875 -0.00770154 0 0.00199254 -0.00785876 0
          0.000576975 -0.0100632 0 0.000624911 -0.00907673 0 0.000667521 -0.00793797 0 0.00601982 -0.00601982 0
          0.00627604 -0.00478074 0 0.00478074 -0.00627604 0 0.00498422 -0.00498422 0 0.00647171 -0.00346766 0
          0.00660383 -0.00210174 0 0.00667038 -0.000704103 0 0.00513961 -0.00361526 0 0.00524453 -0.00219119 0
          0.00529739 -0.000734071 0 0.00346766 -0.00647171 0 0.00210174 -0.00660383 0 0.00361526 -0.00513961 0
          0.00219119 -0.00524453 0 0.000704103 -0.00667038 0 0.000734071 -0.00529739 0 0.00372797 -0.00372797 0
          0.00380407 -0.00225951 0 0.00225951 -0.00380407 0 0.00230563 -0.00230563 0 0.00384241 -0.000756957 0
          0.00232887 -0.000772409 0 0.000756957 -0.00384241 0 0.000772409 -0.00232887 0 0.000780194 -0.000780194 0
          0.00150305 1.92814e-06 0 0.00148805 5.75538e-06 0 0.00416968 1.63465e-05 0 0.00412807 4.87938e-05 0
          0.00145827 9.49548e-06 0 0.00141418 1.30903e-05 0 0.00135643 1.64819e-05 0 0.00404547 8.05041e-05 0
          0.00392314 0.000110986 0 0.00376295 0.000139748 0 0.00640317 4.30035e-05 0 0.00822692 7.97917e-05 0
          0.00633927 0.000128365 0 0.00814482 0.000238177 0 0.00966431 0.00012472 0 0.00956787 0.000372288 0
          0.00621243 0.000211788 0 0.00602458 0.000291981 0 0.00798186 0.000392966 0 0.00774051 0.000541765 0
          0.0057786 0.000367652 0 0.00742447 0.000682175 0 0.00937644 0.000614237 0 0.00909293 0.000846822 0
          0.00872167 0.0010663 0 0.00128595 1.96122e-05 0 0.00120384 2.24231e-05 0 0.00356742 0.0001663 0
          0.00333966 0.00019015 0 0.00111148 2.48567e-05 0 0.00101044 2.68552e-05 0 0.00090252 2.83607e-05 0
          0.00308344 0.000210807 0 0.00280313 0.00022778 0 0.00250376 0.00024058 0 0.00547833 0.00043751 0
          0.00703868 0.0008118 0 0.00512858 0.000500264 0 0.00658932 0.000928245 0 0.00826849 0.00126892 0
          0.00774063 0.00145093 0 0.00473512 0.000554621 0 0.00430467 0.00059929 0 0.0060838 0.00102911 0
          0.00553077 0.00111201 0 0.00384494 0.000632983 0 0.00494011 0.00117454 0 0.00714679 0.00160861 0
          0.00649715 0.0017382 0 0.00580329 0.00183595 0 0.0107388 0.000175916 0 0.0106316 0.000525106 0
          0.0114736 0.000231622 0 0.0113592 0.000691389 0 0.0104189 0.000866372 0 0.0101039 0.00119443 0
          0.00969133 0.001504 0 0.0111319 0.00114072 0 0.0107953 0.00157267 0 0.0103546 0.00198027 0
          0.0118924 0.0002902 0 0.0120184 0.000350126 0 0.0117737 0.000866242 0 0.0118985 0.00104512 0
          0.0118751 0.000409996 0 0.0117566 0.00122383 0 0.0115382 0.00142921 0 0.0111893 0.0019704 0
          0.0116604 0.00172435 0 0.0113079 0.00237729 0 0.0107325 0.00248108 0 0.0108462 0.00299343 0
          0.0115214 0.0020192 0 0.011173 0.0027838 0 0.0107169 0.00350531 0 0.00918777 0.0017898 0
          0.00860123 0.00204654 0 0.00981654 0.00235657 0 0.00918987 0.00269462 0 0.00794139 0.00226894 0
          0.00721952 0.00245173 0 0.00644853 0.00258963 0 0.00848488 0.00298746 0 0.00771362 0.00322814 0
          0.00688988 0.00340972 0 0.0101748 0.00295256 0 0.0102826 0.00356227 0 0.00952529 0.00337611 0
          0.00962624 0.00407329 0 0.01016 0.00417142 0 0.00951146 0.00476982 0 0.00879458 0.00374302 0
          0.00799518 0.00404458 0 0.00888779 0.00451597 0 0.00807993 0.00487982 0 0.00714138 0.00427208 0
          0.00721709 0.00515431 0 0.00878182 0.00528821 0 0.0079836 0.00571428 0 0.00713105 0.00603572 0
          0.000789757 2.93154e-05 0 0.000674406 2.96618e-05 0 0.00219094 0.000248716 0 0.00187094 0.000251697 0
          0.000558949 2.93424e-05 0 0.000446095 2.82998e-05 0 0.000338776 2.6477e-05 0 0.00155065 0.000249034 0
          0.00123758 0.000240239 0 0.000939864 0.000224823 0 0.00336457 0.000654407 0 0.00432292 0.00121431 0
          0.00287317 0.000662274 0 0.00369157 0.00122893 0 0.00507828 0.00189813 0 0.00433663 0.00192099 0
          0.00238132 0.000655295 0 0.00190056 0.000632181 0 0.00305964 0.001216 0 0.00244195 0.00117313 0
          0.00144337 0.000591646 0 0.00185455 0.00109794 0 0.00359429 0.0019008 0 0.00286868 0.00183382 0
          0.00217865 0.0017163 0 0.000240154 2.38172e-05 0 0.000153612 2.0264e-05 0 0.000666269 0.000202299 0
          0.000426184 0.000172181 0 8.276e-05 1.57618e-05 0 3.14346e-05 1.02558e-05 0 3.69428e-06 3.69428e-06 0
          0.000229623 0.000133983 0 8.72265e-05 8.72265e-05 0 1.02558e-05 3.14346e-05 0 0.00102322 0.000532405 0
          0.00131473 0.000988028 0 0.00065453 0.000453173 0 0.00084102 0.00084102 0 0.00154451 0.00154451 0
          0.000988028 0.00131473 0 0.000352671 0.000352671 0 0.000133983 0.000229623 0 0.000453173 0.00065453 0
          0.000172181 0.000426184 0 1.57618e-05 8.276e-05 0 2.0264e-05 0.000153612 0 0.000532405 0.00102322 0
          0.000202299 0.000666269 0 2.38172e-05 0.000240154 0 0.00564292 0.00267735 0 0.00481883 0.00270961 0
          0.00602915 0.00352523 0 0.00514866 0.00356773 0 0.00399396 0.00268115 0 0.00318768 0.00258668 0
          0.00242094 0.00242094 0 0.00426735 0.00353026 0 0.0034059 0.0034059 0 0.00258668 0.00318768 0
          0.00624924 0.00441682 0 0.0063155 0.00532895 0 0.00533662 0.00447008 0 0.00539322 0.00539322 0
          0.00624023 0.00624023 0 0.00532895 0.0063155 0 0.00442316 0.00442316 0 0.00353026 0.00426735 0
          0.00447008 0.00533662 0 0.00356773 0.00514866 0 0.00268115 0.00399396 0 0.00270961 0.00481883 0
          0.00441682 0.00624924 0 0.00352523 0.00602915 0 0.00267735 0.00564292 0 0.0017163 0.00217865 0
          0.00109794 0.00185455 0 0.00183382 0.00286868 0 0.00117313 0.00244195 0 0.000591646 0.00144337 0
          0.000224823 0.000939864 0 2.6477e-05 0.000338776 0 0.000632181 0.00190056 0 0.000240239 0.00123758 0
          2.82998e-05 0.000446095 0 0.0019008 0.00359429 0 0.00192099 0.00433663 0 0.001216 0.00305964 0
          0.00122893 0.00369157 0 0.00189813 0.00507828 0 0.00121431 0.00432292 0 0.000655295 0.00238132 0
          0.000249034 0.00155065 0 0.000662274 0.00287317 0 0.000251697 0.00187094 0 2.93424e-05 0.000558949 0
          2.96618e-05 0.000674406 0 0.000654407 0.00336457 0 0.000248716 0.00219094 0 2.93154e-05 0.000789757 0
          0.0114858 0.000468522 0 0.0113712 0.00139853 0 0.0108741 0.000524533 0 0.0107656 0.00156572 0
          0.0111437 0.00230744 0 0.0108068 0.00318118 0 0.0103656 0.00400568 0 0.0105502 0.00258329 0
          0.0102312 0.00356149 0 0.00981351 0.00448456 0 0.0100632 0.000576975 0 0.00907673 0.000624911 0
          0.00996282 0.00172226 0 0.00898616 0.00186535 0 0.00793797 0.000667521 0 0.00785876 0.00199254 0
          0.00976351 0.00284157 0 0.00946831 0.00391756 0 0.00880638 0.00307765 0 0.00854012 0.00424304 0
          0.00908176 0.00493292 0 0.00819147 0.00534276 0 0.00770154 0.0032875 0 0.00746869 0.00453235 0
          0.00716378 0.00570706 0 0.00982702 0.00476688 0 0.00919971 0.00545071 0 0.00930363 0.00533676 0
          0.00870973 0.00610235 0 0.00849399 0.00604311 0 0.00772194 0.00653001 0 0.00689734 0.00689734 0
          0.00804161 0.00676557 0 0.00731068 0.00731068 0 0.00653001 0.00772194 0 0.0086099 0.00587033 0
          0.00776587 0.00635805 0 0.00806029 0.00671246 0 0.00727014 0.00727014 0 0.00679158 0.00679158 0
          0.00635805 0.00776587 0 0.00744199 0.00744199 0 0.00676557 0.00804161 0 0.00671246 0.00806029 0
          0.00610235 0.00870973 0 0.00604311 0.00849399 0 0.00545071 0.00919971 0 0.00587033 0.0086099 0
          0.00533676 0.00930363 0 0.00476688 0.00982702 0 0.00667038 0.000704103 0 0.00660383 0.00210174 0
          0.00529739 0.000734071 0 0.00524453 0.00219119 0 0.00647171 0.00346766 0 0.00627604 0.00478074 0
          0.00601982 0.00601982 0 0.00513961 0.00361526 0 0.00498422 0.00498422 0 0.00478074 0.00627604 0
          0.00384241 0.000756957 0 0.00232887 0.000772409 0 0.00380407 0.00225951 0 0.00230563 0.00230563 0
          0.000780194 0.000780194 0 0.000772409 0.00232887 0 0.00372797 0.00372797 0 0.00361526 0.00513961 0
          0.00225951 0.00380407 0 0.00219119 0.00524453 0 0.00346766 0.00647171 0 0.00210174 0.00660383 0
          0.000756957 0.00384241 0 0.000734071 0.00529739 0 0.000704103 0.00667038 0 0.00570706 0.00716378 0
          0.00534276 0.00819147 0 0.00453235 0.00746869 0 0.00424304 0.00854012 0 0.00493292 0.00908176 0
          0.00448456 0.00981351 0 0.00400568 0.0103656 0 0.00391756 0.00946831 0 0.00356149 0.0102312 0
          0.00318118 0.0108068 0 0.0032875 0.00770154 0 0.00199254 0.00785876 0 0.00307765 0.00880638 0
          0.00186535 0.00898616 0 0.000667521 0.00793797 0 0.000624911 0.00907673 0 0.00284157 0.00976351 0
          0.00258329 0.0105502 0 0.00172226 0.00996282 0 0.00156572 0.0107656 0 0.00230744 0.0111437 0
          0.00139853 0.0113712 0 0.000576975 0.0100632 0 0.000524533 0.0108741 0 0.000468522 0.0114858 0
          0.00603572 0.00713105 0 0.00515431 0.00721709 0 0.00571428 0.0079836 0 0.00487982 0.00807993 0
          0.00427208 0.00714138 0 0.00340972 0.00688988 0 0.00258963 0.00644853 0 0.00404458 0.00799518 0
          0.00322814 0.00771362 0 0.00245173 0.00721952 0 0.00528821 0.00878182 0 0.00476982 0.00951146 0
          0.00451597 0.00888779 0 0.00407329 0.00962624 0 0.00417142 0.01016 0 0.00356227 0.0102826 0
          0.00374302 0.00879458 0 0.00298746 0.00848488 0 0.00337611 0.00952529 0 0.00269462 0.00918987 0
          0.00226894 0.00794139 0 0.00204654 0.00860123 0 0.00295256 0.0101748 0 0.00235657 0.00981654 0
          0.0017898 0.00918777 0 0.00183595 0.00580329 0 0.00117454 0.00494011 0 0.0017382 0.00649715 0
          0.00111201 0.00553077 0 0.000632983 0.00384494 0 0.00024058 0.00250376 0 2.83607e-05 0.00090252 0
          0.00059929 0.00430467 0 0.00022778 0.00280313 0 2.68552e-05 0.00101044 0 0.00160861 0.00714679 0
          0.00145093 0.00774063 0 0.00102911 0.0060838 0 0.000928245 0.00658932 0 0.00126892 0.00826849 0
          0.0008118 0.00703868 0 0.000554621 0.00473512 0 0.000210807 0.00308344 0 0.000500264 0.00512858 0
          0.00019015 0.00333966 0 2.48567e-05 0.00111148 0 2.24231e-05 0.00120384 0 0.00043751 0.00547833 0
          0.0001663 0.00356742 0 1.96122e-05 0.00128595 0 0.00350531 0.0107169 0 0.00299343 0.0108462 0
          0.0027838 0.011173 0 0.00237729 0.0113079 0 0.00248108 0.0107325 0 0.00198027 0.0103546 0
          0.001504 0.00969133 0 0.0019704 0.0111893 0 0.00157267 0.0107953 0 0.00119443 0.0101039 0
          0.0020192 0.0115214 0 0.00122383 0.0117566 0 0.00172435 0.0116604 0 0.00104512 0.0118985 0
          0.000409996 0.0118751 0 0.000350126 0.0120184 0 0.00142921 0.0115382 0 0.00114072 0.0111319 0
          0.000866242 0.0117737 0 0.000691389 0.0113592 0 0.000866372 0.0104189 0 0.000525106 0.0106316 0
          0.0002902 0.0118924 0 0.000231622 0.0114736 0 0.000175916 0.0107388 0 0.0010663 0.00872167 0
          0.000682175 0.00742447 0 0.000846822 0.00909293 0 0.000541765 0.00774051 0 0.000367652 0.0057786 0
          0.000139748 0.00376295 0 1.64819e-05 0.00135643 0 0.000291981 0.00602458 0 0.000110986 0.00392314 0
          1.30903e-05 0.00141418 0 0.000614237 0.00937644 0 0.000372288 0.00956787 0 0.000392966 0.00798186 0
          0.000238177 0.00814482 0 0.00012472 0.00966431 0 7.97917e-05 0.00822692 0 0.000211788 0.00621243 0
          8.05041e-05 0.00404547 0 0.000128365 0.00633927 0 4.87938e-05 0.00412807 0 9.49548e-06 0.00145827 0
          5.75538e-06 0.00148805 0 4.30035e-05 0.00640317 0 1.63465e-05 0.00416968 0 1.92814e-06 0.00150305 0
          -1.92814e-06 -0.00150305 0 -1.63465e-05 -0.00416968 0 -5.75538e-06 -0.00148805 0 -4.87938e-05 -0.00412807 0
          -4.30035e-05 -0.00640317 0 -7.97917e-05 -0.00822692 0 -0.00012472 -0.00966431 0 -0.000128365 -0.00633927 0
          -0.000238177 -0.00814482 0 -0.000372288 -0.00956787 0 -9.49548e-06 -0.00145827 0 -1.30903e-05 -0.00141418 0
          -8.05041e-05 -0.00404547 0 -0.000110986 -0.00392314 0 -1.64819e-05 -0.00135643 0 -0.000139748 -0.00376295 0
          -0.000211788 -0.00621243 0 -0.000392966 -0.00798186 0 -0.000291981 -0.00602458 0 -0.000541765 -0.00774051 0
          -0.000614237 -0.00937644 0 -0.000846822 -0.00909293 0 -0.000367652 -0.0057786 0 -0.000682175 -0.00742447 0
          -0.0010663 -0.00872167 0 -0.000175916 -0.0107388 0 -0.000231622 -0.0114736 0 -0.000525106 -0.0106316 0
          -0.000691389 -0.0113592 0 -0.0002902 -0.0118924 0 -0.000350126 -0.0120184 0 -0.000409996 -0.0118751 0
          -0.000866242 -0.0117737 0 -0.00104512 -0.0118985 0 -0.00122383 -0.0117566 0 -0.000866372 -0.0104189 0
          -0.00119443 -0.0101039 0 -0.00114072 -0.0111319 0 -0.00157267 -0.0107953 0 -0.001504 -0.00969133 0
          -0.00198027 -0.0103546 0 -0.00142921 -0.0115382 0 -0.00172435 -0.0116604 0 -0.0019704 -0.0111893 0
          -0.00237729 -0.0113079 0 -0.0020192 -0.0115214 0 -0.0027838 -0.011173 0 -0.00248108 -0.0107325 0
          -0.00299343 -0.0108462 0 -0.00350531 -0.0107169 0 -1.96122e-05 -0.00128595 0 -0.0001663 -0.00356742 0
          -2.24231e-05 -0.00120384 0 -0.00019015 -0.00333966 0 -0.00043751 -0.00547833 0 -0.0008118 -0.00703868 0
          -0.00126892 -0.00826849 0 -0.000500264 -0.00512858 0 -0.000928245 -0.00658932 0 -0.00145093 -0.00774063 0
          -2.48567e-05 -0.00111148 0 -2.68552e-05 -0.00101044 0 -0.000210807 -0.00308344 0 -0.00022778 -0.00280313 0
          -2.83607e-05 -0.00090252 0 -0.00024058 -0.00250376 0 -0.000554621 -0.00473512 0 -0.00102911 -0.0060838 0
          -0.00059929 -0.00430467 0 -0.00111201 -0.00553077 0 -0.00160861 -0.00714679 0 -0.0017382 -0.00649715 0
          -0.000632983 -0.00384494 0 -0.00117454 -0.00494011 0 -0.00183595 -0.00580329 0 -0.0017898 -0.00918777 0
          -0.00235657 -0.00981654 0 -0.00204654 -0.00860123 0 -0.00269462 -0.00918987 0 -0.00295256 -0.0101748 0
          -0.00356227 -0.0102826 0 -0.00417142 -0.01016 0 -0.00337611 -0.00952529 0 -0.00407329 -0.00962624 0
          -0.00476982 -0.00951146 0 -0.00226894 -0.00794139 0 -0.00245173 -0.00721952 0 -0.00298746 -0.00848488 0
          -0.00322814 -0.00771362 0 -0.00258963 -0.00644853 0 -0.00340972 -0.00688988 0 -0.00374302 -0.00879458 0
          -0.00451597 -0.00888779 0 -0.00404458 -0.00799518 0 -0.00487982 -0.00807993 0 -0.00528821 -0.00878182 0
          -0.00571428 -0.0079836 0 -0.00427208 -0.00714138 0 -0.00515431 -0.00721709 0 -0.00603572 -0.00713105 0
          -0.000468522 -0.0114858 0 -0.000524533 -0.0108741 0 -0.00139853 -0.0113712 0 -0.00156572 -0.0107656 0
          -0.000576975 -0.0100632 0 -0.000624911 -0.00907673 0 -0.000667521 -0.00793797 0 -0.00172226 -0.00996282 0
          -0.00186535 -0.00898616 0 -0.00199254 -0.00785876 0 -0.00230744 -0.0111437 0 -0.00318118 -0.0108068 0
          -0.00258329 -0.0105502 0 -0.00356149 -0.0102312 0 -0.00400568 -0.0103656 0 -0.00448456 -0.00981351 0
          -0.00284157 -0.00976351 0 -0.00307765 -0.00880638 0 -0.00391756 -0.00946831 0 -0.00424304 -0.00854012 0
          -0.0032875 -0.00770154 0 -0.00453235 -0.00746869 0 -0.00493292 -0.00908176 0 -0.00534276 -0.00819147 0
          -0.00570706 -0.00716378 0 -0.000704103 -0.00667038 0 -0.000734071 -0.00529739 0 -0.00210174 -0.00660383 0
          -0.00219119 -0.00524453 0 -0.000756957 -0.00384241 0 -0.000772409 -0.00232887 0 -0.000780194 -0.000780194 0
          -0.00225951 -0.00380407 0 -0.00230563 -0.00230563 0 -0.00232887 -0.000772409 0 -0.00346766 -0.00647171 0
          -0.00478074 -0.00627604 0 -0.00361526 -0.00513961 0 -0.00498422 -0.00498422 0 -0.00601982 -0.00601982 0
          -0.00627604 -0.00478074 0 -0.00372797 -0.00372797 0 -0.00380407 -0.00225951 0 -0.00513961 -0.00361526 0
          -0.00524453 -0.00219119 0 -0.00384241 -0.000756957 0 -0.00529739 -0.000734071 0 -0.00647171 -0.00346766 0
          -0.00660383 -0.00210174 0 -0.00667038 -0.000704103 0 -0.00476688 -0.00982702 0 -0.00533676 -0.00930363 0
          -0.00545071 -0.00919971 0 -0.00610235 -0.00870973 0 -0.00587033 -0.0086099 0 -0.00635805 -0.00776587 0
          -0.00679158 -0.00679158 0 -0.00671246 -0.00806029 0 -0.00727014 -0.00727014 0 -0.00776587 -0.00635805 0
          -0.00604311 -0.00849399 0 -0.00653001 -0.00772194 0 -0.00676557 -0.00804161 0 -0.00731068 -0.00731068 0
          -0.00689734 -0.00689734 0 -0.00772194 -0.00653001 0 -0.00744199 -0.00744199 0 -0.00806029 -0.00671246 0
          -0.00804161 -0.00676557 0 -0.00870973 -0.00610235 0 -0.0086099 -0.00587033 0 -0.00930363 -0.00533676 0
          -0.00849399 -0.00604311 0 -0.00919971 -0.00545071 0 -0.00982702 -0.00476688 0 -0.00716378 -0.00570706 0
          -0.00746869 -0.00453235 0 -0.00819147 -0.00534276 0 -0.00854012 -0.00424304 0 -0.00770154 -0.0032875 0
          -0.00785876 -0.00199254 0 -0.00793797 -0.000667521 0 -0.00880638 -0.00307765 0 -0.00898616 -0.00186535 0
          -0.00907673 -0.000624911 0 -0.00908176 -0.00493292 0 -0.00981351 -0.00448456 0 -0.00946831 -0.00391756 0
          -0.0102312 -0.00356149 0 -0.0103656 -0.00400568 0 -0.0108068 -0.00318118 0 -0.00976351 -0.00284157 0
          -0.00996282 -0.00172226 0 -0.0105502 -0.00258329 0 -0.0107656 -0.00156572 0 -0.0100632 -0.000576975 0
          -0.0108741 -0.000524533 0 -0.0111437 -0.00230744 0 -0.0113712 -0.00139853 0 -0.0114858 -0.000468522 0
          -2.93154e-05 -0.000789757 0 -0.000248716 -0.00219094 0 -2.96618e-05 -0.000674406 0 -0.000251697 -0.00187094 0
          -0.000654407 -0.00336457 0 -0.00121431 -0.00432292 0 -0.00189813 -0.00507828 0 -0.000662274 -0.00287317 0
          -0.00122893 -0.00369157 0 -0.00192099 -0.00433663 0 -2.93424e-05 -0.000558949 0 -2.82998e-05 -0.000446095 0
          -0.000249034 -0.00155065 0 -0.000240239 -0.00123758 0 -2.6477e-05 -0.000338776 0 -0.000224823 -0.000939864 0
          -0.000655295 -0.00238132 0 -0.001216 -0.00305964 0 -0.000632181 -0.00190056 0 -0.00117313 -0.00244195 0
          -0.0019008 -0.00359429 0 -0.00183382 -0.00286868 0 -0.000591646 -0.00144337 0 -0.00109794 -0.00185455 0
          -0.0017163 -0.00217865 0 -0.00267735 -0.00564292 0 -0.00352523 -0.00602915 0 -0.00270961 -0.00481883 0
          -0.00356773 -0.00514866 0 -0.00441682 -0.00624924 0 -0.00532895 -0.0063155 0 -0.00624023 -0.00624023 0
          -0.00447008 -0.00533662 0 -0.00539322 -0.00539322 0 -0.0063155 -0.00532895 0 -0.00268115 -0.00399396 0
          -0.00258668 -0.00318768 0 -0.00353026 -0.00426735 0 -0.0034059 -0.0034059 0 -0.00242094 -0.00242094 0
          -0.00318768 -0.00258668 0 -0.00442316 -0.00442316 0 -0.00533662 -0.00447008 0 -0.00426735 -0.00353026 0
          -0.00514866 -0.00356773 0 -0.00624924 -0.00441682 0 -0.00602915 -0.00352523 0 -0.00399396 -0.00268115 0
          -0.00481883 -0.00270961 0 -0.00564292 -0.00267735 0 -2.38172e-05 -0.000240154 0 -0.000202299 -0.000666269 0
          -2.0264e-05 -0.000153612 0 -0.000172181 -0.000426184 0 -0.000532405 -0.00102322 0 -0.000988028 -0.00131473 0
          -0.00154451 -0.00154451 0 -0.000453173 -0.00065453 0 -0.00084102 -0.00084102 0 -0.00131473 -0.000988028 0
          -1.57618e-05 -8.276e-05 0 -1.02558e-05 -3.14346e-05 0 -0.000133983 -0.000229623 0 -8.72265e-05 -8.72265e-05 0
          -3.69428e-06 -3.69428e-06 0 -3.14346e-05 -1.02558e-05 0 -0.000352671 -0.000352671 0 -0.00065453 -0.000453173 0
          -0.000229623 -0.000133983 0 -0.000426184 -0.000172181 0 -0.00102322 -0.000532405 0 -0.000666269 -0.000202299 0
          -8.276e-05 -1.57618e-05 0 -0.000153612 -2.0264e-05 0 -0.000240154 -2.38172e-05 0 -0.00217865 -0.0017163 0