<?xml version="1.0"?>
<VTKFile type="UnstructuredGrid" version="0.1" byte_order="LittleEndian">
  <UnstructuredGrid>
    <Piece NumberOfCells="4096" NumberOfPoints="4913">
      <CellData Scalars="wetting pressure">
        <DataArray type="Float32" Name="wetting pressure" NumberOfComponents="1" format="ascii">
          1.15769 1.44909 1.68985 1.85551 1.92832 1.90027 1.77438 1.56452 1.40635 1.35702 1.30587 1.25306
          1.19875 1.1431 1.08633 1.02882 1.15693 1.43073 1.65494 1.81155 1.88469 1.86618 1.75776 1.57091
          1.42481 1.37867 1.32994 1.2784 1.22362 1.16504 1.1021 1.03483 1.15359 1.38482 1.56287 1.68246
          1.74171 1.74516 1.70352 1.63338 1.57735 1.53469 1.485 1.42736 1.36062 1.28306 1.19161 1.07891
          1.09416 1.21565 1.30181 1.36678 1.41763 1.45822 1.4908 1.51664 1.54677 1.57433 1.57295 1.53655
          1.46458 1.36054 1.231 1.08338 1.02377 1.07054 1.11494 1.15701 1.19696 1.23485 1.27057 1.3038
          1.3811 1.4722 1.51695 1.51102 1.45548 1.35661 1.22505 1.07459 1.02254 1.06559 1.10684 1.14652
          1.18467 1.22102 1.25503 1.28608 1.33451 1.37854 1.39092 1.37068 1.31983 1.24337 1.14883 1.04621
          1.01897 1.05025 1.07791 1.10367 1.12844 1.15237 1.17502 1.19593 1.22237 1.23686 1.23357 1.21323
          1.17764 1.13007 1.0753 1.02021 1.01044 1.01853 1.02134 1.02303 1.02609 1.03164 1.03968 1.05012
          1.06607 1.07168 1.06963 1.06125 1.04769 1.03072 1.01306 0.999349 0.996942 0.971494 0.940524 0.911565
          0.88939 0.876621 0.874038 0.881716 0.899776 0.911191 0.921128 0.930881 0.941052 0.952287 0.965862 0.984632
          0.979215 0.913055 0.843624 0.782321 0.736689 0.711322 0.707939 0.726288 0.757251 0.780177 0.805087 0.832866
          0.863745 0.89762 0.93465 0.975922 0.958722 0.850462 0.744286 0.654754 0.592055 0.562726 0.569264 0.610854
          0.661073 0.692607 0.728267 0.76865 0.813833 0.863239 0.91604 0.971461 0.937708 0.796047 0.664296 0.557336
          0.486431 0.458832 0.476842 0.539118 0.606398 0.637707 0.675086 0.719373 0.771036 0.829838 0.895008 0.964904
          0.918836 0.769456 0.636443 0.529903 0.457284 0.421377 0.419768 0.444484 0.471419 0.495927 0.528536 0.570718
          0.624534 0.693152 0.782279 0.904592 0.925869 0.812669 0.71752 0.635679 0.565067 0.504486 0.453139 0.410496
          0.357823 0.307179 0.292845 0.322374 0.398263 0.518968 0.679633 0.875297 0.972775 0.919384 0.867831 0.818032
          0.769752 0.72284 0.677281 0.633249 0.493259 0.304471 0.191579 0.166976 0.233117 0.382411 0.598427 0.858876
          0.974173 0.922542 0.871255 0.820529 0.770541 0.721464 0.673499 0.626977 0.478998 0.277961 0.156424 0.127898
          0.1955 0.351751 0.579487 0.853955 1.16866 1.47711 1.73005 1.90343 1.9795 1.95015 1.81851 1.59858
          1.43122 1.37901 1.32481 1.26879 1.21113 1.15201 1.0917 1.03061 1.17007 1.45688 1.68557 1.8429
          1.91541 1.89588 1.78611 1.59641 1.44408 1.39573 1.34454 1.29034 1.23278 1.17139 1.10574 1.03598
          1.17148 1.41069 1.58162 1.68576 1.72591 1.7112 1.65653 1.58112 1.52621 1.48687 1.44277 1.39251
          1.33428 1.26564 1.18266 1.07692 1.11133 1.24346 1.3268 1.38058 1.41559 1.43849 1.45357 1.46361
          1.47385 1.48385 1.47643 1.44422 1.38479 1.29977 1.19368 1.07124 1.02646 1.07783 1.12475 1.1672
          1.20592 1.24143 1.27385 1.30301 1.36907 1.43885 1.46593 1.44833 1.38898 1.29565 1.17964 1.0549
          1.0219 1.06187 1.09806 1.13174 1.16427 1.19623 1.22727 1.25662 1.30442 1.34411 1.35156 1.32693
          1.27373 1.19907 1.11296 1.02879 1.01807 1.04278 1.0597 1.07335 1.08776 1.10514 1.12565 1.1485
          1.18184 1.20097 1.19921 1.17831 1.14156 1.09464 1.04555 1.00555 1.01074 1.01099 0.998923 0.983501
          0.972188 0.969435 0.976379 0.992433 1.01951 1.03358 1.03599 1.02918 1.0159 1.00026 0.988078 0.987723
          0.999664 0.967551 0.920111 0.871188 0.831772 0.808819 0.804796 0.819341 0.848739 0.868302 0.883423 0.896263
          0.908859 0.923726 0.944351 0.975685 0.985354 0.916715 0.832996 0.752106 0.68779 0.649233 0.640459 0.66171
          0.700373 0.728637 0.758171 0.790456 0.826683 0.867727 0.914569 0.968632 0.968533 0.864893 0.751057 0.646363
          0.565484 0.518664 0.511065 0.544483 0.595896 0.629422 0.668687 0.714837 0.768408 0.828827 0.894754 0.964461
          0.949475 0.819907 0.690041 0.576216 0.491181 0.443819 0.438458 0.478005 0.538284 0.569031 0.608599 0.658441
          0.719342 0.790736 0.870938 0.957046 0.925786 0.78743 0.6622 0.559761 0.487389 0.447594 0.437902 0.451478
          0.470746 0.488544 0.513477 0.548066 0.595761 0.661559 0.753672 0.888853 0.916857 0.798727 0.705276 0.629449
          0.567604 0.517139 0.475996 0.442526 0.400789 0.354347 0.332969 0.347559 0.404996 0.508377 0.657956 0.856845
          0.969569 0.910512 0.854638 0.801869 0.751723 0.703765 0.657743 0.613607 0.47249 0.286419 0.176672 0.154951
          0.223077 0.373127 0.589325 0.852461 0.973101 0.919341 0.866063 0.813549 0.761993 0.711567 0.662467 0.614975
          0.462664 0.257934 0.134434 0.10586 0.175279 0.335022 0.567787 0.849082 1.1602 1.45281 1.69211 1.85569
          1.9271 1.89887 1.77399 1.56556 1.40683 1.35733 1.30599 1.253 1.19854 1.14281 1.08607 1.02871
          1.16076 1.43108 1.64463 1.79011 1.85606 1.83631 1.73263 1.55424 1.41044 1.36482 1.31662 1.26579
          1.21215 1.15541 1.09537 1.03229 1.16041 1.37772 1.5283 1.61672 1.64727 1.62923 1.57662 1.50683
          1.45678 1.42166 1.38293 1.33929 1.28908 1.23003 1.15858 1.06706 1.10492 1.22716 1.30277 1.34981
          1.37853 1.39556 1.40534 1.4108 1.41534 1.41877 1.40885 1.37914 1.32716 1.25402 1.16344 1.0595
          1.02635 1.0775 1.12379 1.16489 1.20158 1.23454 1.26405 1.29005 1.34756 1.40116 1.41523 1.38988
          1.32938 1.24245 1.14082 1.03875 1.02073 1.05728 1.08872 1.11675 1.14374 1.17112 1.1989 1.22618
          1.27191 1.30639 1.30877 1.28058 1.22678 1.15618 1.08053 1.01501 1.01647 1.03585 1.04478 1.04897
          1.05456 1.06555 1.08278 1.10512 1.14015 1.16038 1.15864 1.13751 1.10166 1.05869 1.01865 0.99457
          1.00939 1.00379 0.981897 0.95442 0.931853 0.921262 0.924852 0.941563 0.971899 0.989601 0.994723 0.99007
          0.979578 0.969003 0.965819 0.979279 0.999084 0.962039 0.904702 0.842909 0.791073 0.75919 0.751152 0.766283
          0.798721 0.822005 0.84086 0.85752 0.874783 0.896197 0.926065 0.969295 0.985909 0.914577 0.822852 0.730429
          0.654145 0.606061 0.591834 0.611961 0.652228 0.6831 0.716262 0.753195 0.795381 0.843957 0.899838 0.963839
          0.970349 0.867091 0.748789 0.635967 0.545419 0.489487 0.474854 0.504319 0.555353 0.590151 0.632227 0.682805
          0.742385 0.810038 0.883762 0.961075 0.952439 0.826224 0.69608 0.578812 0.488093 0.433848 0.421466 0.455194
          0.513397 0.544416 0.585543 0.638376 0.703576 0.780022 0.865189 0.955459 0.928675 0.795638 0.674821 0.575239
          0.503841 0.463222 0.451424 0.46265 0.481126 0.497739 0.520923 0.553378 0.598813 0.662544 0.753141 0.887906
          0.915878 0.799587 0.709501 0.637576 0.579785 0.533235 0.495594 0.464973 0.426325 0.380488 0.355165 0.362102
          0.409954 0.504064 0.647544 0.848105 0.96813 0.906212 0.84773 0.79279 0.740968 0.691789 0.64491 0.600166
          0.457337 0.272021 0.163492 0.142924 0.211868 0.36249 0.579876 0.847083 0.972236 0.916762 0.861842 0.807804
          0.754866 0.703202 0.652994 0.604472 0.448558 0.240355 0.114977 0.0862318 0.157163 0.319987 0.557315 0.844842
          1.13419 1.37941 1.57972 1.71637 1.77576 1.75179 1.64702 1.4724 1.3395 1.29808 1.25513 1.21084
          1.16535 1.11887 1.0716 1.02388 1.13419 1.36048 1.53854 1.65897 1.71277 1.69524 1.60805 1.45885
          1.33875 1.30068 1.2605 1.21821 1.17371 1.12684 1.07757 1.02617 1.13277 1.30898 1.42906 1.49852
          1.52168 1.50633 1.46378 1.40787 1.36798 1.34006 1.30925 1.27442 1.23418 1.18667 1.12893 1.0546
          1.09133 1.19689 1.26254 1.30385 1.32939 1.34471 1.35361 1.35861 1.36278 1.36442 1.35406 1.32666
          1.2803 1.21607 1.13753 1.04887 1.02466 1.07266 1.11622 1.15478 1.18889 1.21923 1.24609 1.26944
          1.3202 1.36193 1.36693 1.33694 1.27719 1.19697 1.10826 1.02567 1.01926 1.05225 1.07937 1.10246
          1.12443 1.14733 1.17152 1.19613 1.23845 1.26746 1.26539 1.23496 1.18227 1.11724 1.05261 1.00416
          1.01474 1.02971 1.03289 1.03025 1.02896 1.03416 1.0473 1.06719 1.10053 1.11934 1.11678 1.09598
          1.06266 1.02555 0.995662 0.986166 1.00751 0.997331 0.969258 0.934231 0.903995 0.887054 0.886361 0.900745
          0.929968 0.947986 0.954331 0.951942 0.945419 0.94134 0.947645 0.97311 0.997242 0.956335 0.893672 0.825103
          0.766214 0.728409 0.716313 0.729112 0.760315 0.784217 0.804996 0.824834 0.846803 0.874739 0.912824 0.96514
          0.984369 0.910914 0.816044 0.719142 0.637873 0.585356 0.567801 0.585519 0.623984 0.655019 0.68973 0.729564
          0.775984 0.829927 0.891781 0.96154 0.969589 0.866902 0.748639 0.634726 0.542282 0.484183 0.467365 0.494365
          0.542789 0.57707 0.619677 0.671867 0.733985 0.804643 0.881185 0.960556 0.953237 0.830832 0.704162 0.589327
          0.499856 0.445717 0.432343 0.463788 0.518844 0.548955 0.589605 0.642435 0.707922 0.784443 0.868814 0.956997
          0.93118 0.805181 0.691745 0.59849 0.531478 0.493001 0.481336 0.491365 0.508752 0.524115 0.5455 0.575585
          0.618032 0.678031 0.763902 0.892468 0.917653 0.805617 0.71969 0.651219 0.596076 0.551432 0.515039 0.485082
          0.446654 0.399799 0.371409 0.373391 0.415193 0.503365 0.642735 0.843709 0.967674 0.904588 0.8447 0.78829
          0.73509 0.684711 0.636832 0.591274 0.446301 0.260365 0.151732 0.131222 0.200374 0.351665 0.570987 0.842787
          0.971585 0.914805 0.858598 0.80332 0.749211 0.696459 0.64524 0.595766 0.436762 0.225348 0.098173 0.0691266
          0.141272 0.306764 0.548162 0.841246 1.09387 1.26535 1.4052 1.50038 1.54156 1.52463 1.45148 1.32976
          1.23711 1.20823 1.17826 1.14734 1.11557 1.08308 1.05005 1.01669 1.09457 1.25409 1.37898 1.46275
          1.49957 1.48662 1.4254 1.3213 1.23764 1.21111 1.18304 1.15342 1.12216 1.08918 1.0545 1.01837
          1.09571 1.21985 1.30331 1.3514 1.36777 1.35803 1.33 1.29312 1.26703 1.24837 1.22727 1.20282
          1.17395 1.13922 1.09645 1.04089 1.07629 1.16394 1.21918 1.25504 1.2783 1.29324 1.30276 1.3088
          1.31465 1.31659 1.30689 1.28186 1.24025 1.18341 1.11493 1.03943 1.0224 1.06607 1.10597 1.14142
          1.17274 1.20045 1.22483 1.24585 1.29102 1.32435 1.32344 1.29118 1.2334 1.15965 1.08205 1.01544
          1.01776 1.0474 1.07086 1.08996 1.10774 1.12658 1.14715 1.16872 1.20673 1.23056 1.22507 1.19375
          1.1434 1.08451 1.03014 0.995951 1.01309 1.02461 1.02399 1.017 1.01094 1.01142 1.02034 1.03673
          1.06637 1.08237 1.0787 1.0588 1.02889 0.998165 0.977745 0.980128 1.00558 0.992196 0.961057 0.922536
          0.888279 0.867112 0.86235 0.873022 0.898665 0.914987 0.921482 0.92107 0.918555 0.920638 0.934957 0.969256
          0.995094 0.952123 0.888417 0.81873 0.758133 0.717974 0.702946 0.712233 0.739682 0.762065 0.783034 0.804668
          0.82999 0.862611 0.906098 0.96347 0.982363 0.909224 0.816621 0.722254 0.64281 0.590879 0.572293 0.586966
          0.621168 0.650229 0.684135 0.72429 0.771996 0.827783 0.891363 0.961939 0.968469 0.869693 0.757723 0.650386
          0.563482 0.508947 0.492959 0.517234 0.560564 0.592275 0.63269 0.683076 0.743622 0.812562 0.886744 0.962757
          0.954132 0.839667 0.722758 0.61743 0.535811 0.486804 0.475053 0.503779 0.553176 0.580675 0.618342 0.667816
          0.729446 0.801309 0.87986 0.960935 0.93508 0.820161 0.71846 0.635506 0.57597 0.541509 0.530463 0.538348
          0.552963 0.566009 0.584493 0.610985 0.648965 0.703329 0.781888 0.900424 0.920738 0.814052 0.732642 0.667511
          0.614521 0.571011 0.534947 0.504715 0.465203 0.416491 0.385281 0.383473 0.420916 0.504856 0.641157 0.841732
          0.967724 0.904426 0.843924 0.78661 0.732377 0.68096 0.632119 0.585719 0.438444 0.251045 0.141484 0.120385
          0.189439 0.341521 0.563147 0.839455 0.971119 0.913391 0.856221 0.79998 0.744927 0.691266 0.639183 0.588887
          0.427265 0.21299 0.0841542 0.0547216 0.127802 0.295536 0.540445 0.838298 1.04373 1.12312 1.18742 1.23091
          1.24956 1.24171 1.20834 1.15294 1.11059 1.09734 1.08353 1.06921 1.05441 1.0392 1.02365 1.00789
          1.04636 1.12327 1.18224 1.22097 1.23746 1.23103 1.2028 1.15533 1.11697 1.1047 1.09154 1.07737
          1.0621 1.04566 1.02806 1.00949 1.05532 1.12418 1.16943 1.19555 1.20527 1.20193 1.18977 1.1737
          1.16282 1.15414 1.1433 1.12966 1.11248 1.09081 1.06325 1.02683 1.06215 1.13317 1.17865 1.20934
          1.23048 1.24522 1.2556 1.26295 1.27094 1.27394 1.26537 1.24268 1.20528 1.15482 1.09504 1.0311
          1.0202 1.05959 1.09582 1.12819 1.15682 1.18207 1.20419 1.22315 1.26359 1.29106 1.28659 1.25367
          1.19844 1.13052 1.06202 1.00784 1.01638 1.04313 1.06369 1.07977 1.0943 1.10974 1.12697 1.14552
          1.179 1.19831 1.19049 1.15936 1.112 1.05901 1.01333 0.99014 1.01158 1.0205 1.01763 1.00828
          0.999351 0.996383 1.00153 1.01421 1.03934 1.05213 1.04749 1.0289 1.00265 0.977861 0.965244 0.976313
          1.00374 0.988466 0.956789 0.918029 0.882843 0.859568 0.851578 0.858268 0.879242 0.892966 0.899036 0.900193
          0.90109 0.90809 0.928107 0.967674 0.993061 0.950141 0.889237 0.823205 0.7654 0.726068 0.70951 0.715036
          0.737388 0.756984 0.776837 0.798824 0.825687 0.86052 0.906064 0.964254 0.980667 0.911171 0.826229 0.740697
          0.668878 0.621635 0.603839 0.615043 0.643242 0.668681 0.69973 0.737672 0.783553 0.83743 0.898372 0.964913
          0.968021 0.8778 0.778776 0.68525 0.610269 0.563662 0.550221 0.570769 0.606757 0.63404 0.669734 0.715054
          0.770054 0.832736 0.899697 0.967399 0.956119 0.854932 0.754513 0.665452 0.597303 0.557003 0.547884 0.572196
          0.613333 0.636567 0.668872 0.711839 0.765766 0.828684 0.897034 0.966808 0.941024 0.841422 0.755378 0.68592
          0.636044 0.606599 0.595933 0.600264 0.610335 0.619932 0.634359 0.656026 0.688178 0.735346 0.804704 0.910624
          0.924451 0.823543 0.746708 0.684812 0.63376 0.591073 0.554959 0.524044 0.482841 0.431784 0.397783 0.392759
          0.42681 0.507602 0.641566 0.841287 0.968014 0.905006 0.84438 0.786591 0.731656 0.679434 0.629777 0.582617
          0.433157 0.243922 0.133024 0.111018 0.179833 0.33273 0.556659 0.836968 0.970806 0.912434 0.854589 0.797645
          0.74188 0.68751 0.634736 0.583776 0.42004 0.203364 0.0730866 0.0432406 0.116999 0.286516 0.534285 0.836001
          0.989201 0.968124 0.949887 0.936928 0.931068 0.933271 0.943515 0.960682 0.973219 0.977013 0.980804 0.984539
          0.988178 0.991697 0.995091 0.998382 0.9946 0.981581 0.968461 0.958057 0.952677 0.953862 0.962186 0.976991
          0.988027 0.991257 0.994216 0.996724 0.998632 0.999846 1.00035 1.00023 1.017 1.03439 1.04425 1.04986
          1.05305 1.05518 1.05735 1.06046 1.06392 1.06455 1.06329 1.05975 1.05355 1.04421 1.03117 1.01321
          1.0499 1.10662 1.14358 1.16955 1.18854 1.20281 1.21368 1.22203 1.2318 1.23591 1.22855 1.20806
          1.17439 1.12951 1.07739 1.0237 1.01834 1.05406 1.08709 1.11673 1.14298 1.16607 1.1862 1.20338
          1.2398 1.26316 1.25666 1.22403 1.17152 1.10865 1.04734 1.00243 1.01514 1.03944 1.05774 1.0716
          1.08369 1.09642 1.11082 1.12664 1.15589 1.17153 1.16228 1.13205 1.08787 1.04015 1.00144 0.986304
          1.01013 1.01699 1.01287 1.00249 0.99204 0.986724 0.988815 0.998123 1.01885 1.0287 1.02346 1.00643
          0.983701 0.964027 0.957427 0.97434 1.00193 0.985662 0.955064 0.918124 0.884046 0.860254 0.85 0.853098
          0.869348 0.880411 0.885931 0.888351 0.891965 0.902551 0.926118 0.967957 0.99122 0.950093 0.894718 0.835503
          0.783411 0.747032 0.730077 0.732084 0.748948 0.76528 0.783316 0.804626 0.831532 0.866489 0.911346 0.966988
          0.979601 0.916914 0.843929 0.771768 0.711451 0.671461 0.655479 0.662862 0.68402 0.704812 0.731608 0.765471
          0.807119 0.856151 0.911072 0.96986 0.968819 0.891895 0.811576 0.737488 0.678917 0.642888 0.632548 0.647995
          0.67478 0.696177 0.725189 0.762904 0.80925 0.862152 0.918181 0.973854 0.959797 0.877285 0.79932 0.731966
          0.681352 0.651874 0.645325 0.663052 0.693537 0.71109 0.736057 0.769948 0.813091 0.863719 0.918571 0.974025
          0.949012 0.868103 0.800385 0.746346 0.707267 0.683171 0.672419 0.671948 0.676024 0.681235 0.690652 0.706519
          0.731849 0.770815 0.829927 0.921946 0.928377 0.833235 0.760793 0.701953 0.652699 0.610726 0.574455 0.542734
          0.499615 0.44588 0.409021 0.401104 0.432439 0.510925 0.643209 0.841902 0.968395 0.905906 0.845443 0.787489
          0.732147 0.679375 0.629109 0.581345 0.430051 0.239013 0.12672 0.103736 0.172245 0.325841 0.551746 0.835243
          0.970624 0.911868 0.853602 0.796203 0.739955 0.68509 0.631821 0.580377 0.415082 0.196585 0.0651789 0.0349505
          0.109139 0.279932 0.529806 0.834363 0.936027 0.816747 0.717668 0.649332 0.619363 0.631337 0.684241 0.772425
          0.838667 0.859143 0.880161 0.901581 0.923282 0.945157 0.967112 0.989064 0.944394 0.84331 0.759114 0.700055
          0.672896 0.681435 0.725703 0.801798 0.861364 0.879803 0.898598 0.917502 0.936321 0.954919 0.973218 0.991186
          0.985204 0.960876 0.942075 0.930685 0.927717 0.933002 0.945327 0.9627 0.977368 0.985405 0.991928 0.996836
          1.00003 1.00152 1.00152 1.00052 1.03981 1.08489 1.11481 1.13664 1.15346 1.16685 1.17766 1.18641
          1.19719 1.20213 1.19584 1.17729 1.14688 1.1069 1.06159 1.01709 1.01688 1.04969 1.08009 1.10746
          1.13168 1.15292 1.17135 1.18701 1.22003 1.24042 1.23281 1.20101 1.15117 1.0926 1.03693 0.998776
          1.01399 1.03617 1.05265 1.06482 1.07509 1.08571 1.0978 1.11133 1.1369 1.14966 1.13968 1.11073
          1.06969 1.02656 0.993358 0.983949 1.00867 1.01374 1.00886 0.998135 0.986988 0.980141 0.979901 0.986432
          1.00337 1.01088 1.00543 0.99008 0.9706 0.955185 0.953088 0.973699 1.00009 0.983253 0.95444 0.920196
          0.888172 0.864772 0.853058 0.853258 0.865429 0.874266 0.879378 0.882879 0.888634 0.901755 0.927335 0.969465
          0.989545 0.951237 0.902632 0.851469 0.806178 0.773611 0.756889 0.755865 0.76765 0.780853 0.796899 0.817017
          0.843094 0.876945 0.919569 0.970827 0.979306 0.925767 0.867107 0.810325 0.762932 0.730934 0.716887 0.720149
          0.733935 0.749691 0.77159 0.800423 0.836586 0.879281 0.926529 0.975785 0.971434 0.91217 0.854662 0.803295
          0.76323 0.738524 0.730728 0.739418 0.755388 0.769851 0.790889 0.819413 0.855256 0.896387 0.939491 0.981224
          0.966207 0.908254 0.858079 0.816652 0.786261 0.768534 0.763682 0.772169 0.789305 0.79978 0.815625 0.838273
          0.868176 0.903987 0.942985 0.982089 0.958678 0.898416 0.850076 0.811934 0.783755 0.764859 0.753648 0.747648
          0.744694 0.744813 0.748484 0.757839 0.775751 0.806137 0.854913 0.933186 0.93224 0.842552 0.774143 0.718093
          0.670508 0.629233 0.59286 0.560391 0.515358 0.458629 0.418779 0.40819 0.437375 0.514325 0.645604 0.843307
          0.968772 0.906863 0.846716 0.788819 0.733329 0.680268 0.629632 0.581472 0.428888 0.236438 0.122993 0.0991503
          0.167313 0.321336 0.548601 0.834229 0.970557 0.911651 0.853204 0.795588 0.739091 0.683955 0.630403 0.578674
          0.412443 0.192829 0.0607009 0.0301715 0.104539 0.276037 0.52715 0.833407 0.908175 0.737393 0.595696 0.49794
          0.454933 0.47174 0.546868 0.672237 0.766637 0.795892 0.826016 0.856834 0.888188 0.919931 0.951919 0.983999
          0.918058 0.770915 0.64893 0.563221 0.523279 0.534496 0.596845 0.704674 0.789663 0.816187 0.843537 0.871461
          0.899771 0.928332 0.957039 0.985759 0.968947 0.924423 0.891851 0.871906 0.865004 0.870218 0.885309 0.907131
          0.925759 0.937119 0.94759 0.957092 0.965678 0.973658 0.981825 0.99195 1.02742 1.05852 1.07986 1.09633
          1.10989 1.12138 1.13121 1.13958 1.15047 1.15608 1.15105 1.13498 1.10888 1.07552 1.03956 1.00788
          1.01413 1.04128 1.0663 1.08877 1.10856 1.12575 1.14047 1.1528 1.1784 1.19294 1.18394 1.15496
          1.11174 1.06275 1.0186 0.992885 1.01202 1.03081 1.04453 1.05431 1.0621 1.06985 1.07868 1.08886
          1.10896 1.11783 1.10738 1.08113 1.04543 1.00938 0.983908 0.981631 1.00666 1.00955 1.00398 0.993241
          0.98177 0.97363 0.971073 0.974666 0.987659 0.992926 0.987636 0.974564 0.958958 0.948186 0.950464 0.97396
          0.998136 0.980951 0.954207 0.922972 0.893374 0.870792 0.858072 0.855862 0.864786 0.871869 0.876728 0.881204
          0.888718 0.903686 0.930321 0.971639 0.988278 0.952844 0.910202 0.865876 0.826293 0.796946 0.780525 0.777217
          0.785416 0.796207 0.81052 0.829388 0.854385 0.886845 0.927134 0.974318 0.979765 0.933997 0.88624 0.840629
          0.802317 0.775694 0.762643 0.762639 0.771211 0.783183 0.801256 0.826109 0.857996 0.895913 0.937585 0.980061
          0.974972 0.930012 0.889071 0.853296 0.825328 0.807469 0.800394 0.803421 0.81119 0.820474 0.83564 0.857524
          0.885969 0.919035 0.953504 0.986069 0.974144 0.937764 0.909591 0.887531 0.871466 0.861308 0.856371 0.856538
          0.862146 0.866868 0.875547 0.889552 0.909427 0.934114 0.961251 0.988117 0.966587 0.921631 0.886998 0.859824
          0.839044 0.823633 0.812108 0.802308 0.79385 0.789779 0.788673 0.792751 0.80497 0.829234 0.871131 0.940544
          0.937839 0.855771 0.792823 0.740551 0.69531 0.655164 0.61889 0.585595 0.537786 0.475801 0.431051 0.416628
          0.443338 0.519114 0.649971 0.84646 0.969737 0.909546 0.850681 0.793562 0.738378 0.685239 0.634253 0.585578
          0.431049 0.236269 0.120667 0.0948674 0.161742 0.31574 0.54462 0.833102 0.970708 0.912074 0.85382 0.796293
          0.739782 0.684542 0.630819 0.578873 0.411832 0.191284 0.0584036 0.0272731 0.101329 0.273005 0.524947 0.832633
          0.900186 0.7146 0.560627 0.454384 0.407612 0.425808 0.507339 0.643407 0.745865 0.777633 0.810368 0.843884
          0.878016 0.912608 0.947502 0.982525 0.910345 0.749786 0.616693 0.523033 0.479165 0.491011 0.558554 0.675601
          0.7679 0.796763 0.826605 0.857181 0.88832 0.919908 0.951849 0.983996 0.957661 0.898893 0.856413 0.830119
          0.820074 0.824862 0.841547 0.86613 0.886993 0.900327 0.913345 0.926057 0.938662 0.951705 0.966376 0.985299
          1.01042 1.02179 1.03039 1.0382 1.04574 1.05302 1.05985 1.06605 1.07438 1.07853 1.07477 1.06341
          1.04599 1.02547 1.00632 0.995245 1.00796 1.02221 1.03459 1.04527 1.05465 1.0631 1.07078 1.07758
          1.09231 1.09844 1.08926 1.06794 1.03934 1.01011 0.988333 0.984489 1.00639 1.01421 1.01766 1.01806
          1.0174 1.01759 1.01974 1.02404 1.03509 1.03741 1.02785 1.00975 0.988322 0.970397 0.96379 0.977482
          1.00147 0.99606 0.984155 0.968505 0.952761 0.940365 0.933322 0.932261 0.938901 0.940518 0.936796 0.93044
          0.925656 0.927714 0.942038 0.973666 0.99404 0.972713 0.944887 0.914222 0.885325 0.86244 0.84798 0.842689
          0.847063 0.85179 0.857297 0.865351 0.878604 0.899905 0.931407 0.973954 0.986068 0.951644 0.913415 0.874797
          0.840241 0.813839 0.79771 0.792129 0.796247 0.804388 0.81732 0.836039 0.861677 0.894635 0.934066 0.977831
          0.979958 0.940254 0.901364 0.865022 0.83435 0.81232 0.800194 0.797469 0.801406 0.809962 0.824741 0.846438
          0.875159 0.90955 0.94686 0.983682 0.977592 0.942469 0.912843 0.887697 0.867944 0.85467 0.847971 0.847061
          0.849316 0.854945 0.865947 0.883187 0.906549 0.934155 0.96282 0.989258 0.978602 0.953523 0.936629 0.924361
          0.915401 0.908804 0.903474 0.899109 0.898894 0.900627 0.905552 0.915031 0.929695 0.948691 0.969918 0.990905
          0.973197 0.940085 0.915737 0.896691 0.88141 0.868714 0.857296 0.845401 0.834149 0.827721 0.823698 0.824255
          0.832281 0.851523 0.887153 0.947872 0.947655 0.878435 0.824731 0.779313 0.739131 0.702634 0.668886 0.637236
          0.590933 0.529639 0.484191 0.467448 0.489846 0.558836 0.679599 0.86056 0.972963 0.919187 0.86654 0.815344
          0.765736 0.717818 0.671715 0.62762 0.487556 0.311047 0.206141 0.182346 0.242254 0.380944 0.587571 0.848616
          0.97356 0.920627 0.868015 0.816028 0.764919 0.71492 0.666259 0.61918 0.467726 0.267715 0.147138 0.118727
          0.185611 0.340988 0.569222 0.848174 0.892514 0.692649 0.526801 0.412347 0.361943 0.381504 0.469248 0.615659
          0.725838 0.760015 0.795253 0.831358 0.868162 0.905502 0.943209 0.98109 0.902764 0.728967 0.584782 0.483094
          0.435209 0.44762 0.520321 0.646517 0.745887 0.777008 0.809262 0.842428 0.876371 0.911018 0.946312 0.982096
          0.945747 0.871581 0.818092 0.784492 0.770561 0.774429 0.792437 0.819605 0.842401 0.857579 0.873172 0.889363
          0.906567 0.925608 0.948093 0.977503 0.992632 0.983021 0.977557 0.975329 0.975488 0.977215 0.979771 0.982546
          0.986459 0.987536 0.984791 0.979361 0.973172 0.968925 0.97021 0.982477 1.00012 0.998187 0.99477 0.990793
          0.987323 0.985143 0.984419 0.984836 0.987603 0.985274 0.9774 0.966642 0.956641 0.951592 0.956146 0.976546
          0.998885 0.992043 0.981621 0.969311 0.957364 0.947808 0.941653 0.938962 0.939626 0.935182 0.928095 0.921451
          0.918879 0.924149 0.940934 0.973396 0.994653 0.977834 0.95662 0.933347 0.91107 0.892676 0.87982 0.872977
          0.871745 0.869173 0.868083 0.871148 0.881183 0.900575 0.930927 0.973165 0.988923 0.961564 0.930948 0.899393
          0.870049 0.846007 0.829077 0.819819 0.818153 0.819775 0.826295 0.839531 0.861148 0.891804 0.930778 0.976087
          0.983576 0.949781 0.915775 0.882816 0.853321 0.829866 0.813842 0.805348 0.804016 0.808645 0.819917 0.83892
          0.866251 0.901001 0.940605 0.981378 0.98063 0.948154 0.919398 0.893521 0.87144 0.854549 0.843375 0.8373
          0.83532 0.839546 0.850263 0.868281 0.893559 0.924253 0.956923 0.987597 0.981436 0.958738 0.942894 0.930472
          0.920416 0.912411 0.905909 0.900044 0.895443 0.896496 0.902288 0.913775 0.930935 0.951969 0.973723 0.992944
          0.985029 0.975019 0.972726 0.972899 0.972761 0.970317 0.964016 0.953464 0.945779 0.943672 0.94377 0.947435
          0.955418 0.967144 0.980854 0.994406 0.981573 0.962658 0.950368 0.940773 0.931911 0.92251 0.911575 0.89804
          0.884779 0.876491 0.869895 0.866955 0.870284 0.883239 0.910288 0.958467 0.960022 0.907047 0.865352 0.829359
          0.796813 0.766651 0.738295 0.711382 0.671752 0.618783 0.578814 0.562884 0.579959 0.63637 0.736278 0.885938
          0.978613 0.93612 0.894545 0.854103 0.814876 0.776941 0.740412 0.705467 0.594564 0.455077 0.372189 0.35331
          0.400424 0.509671 0.672726 0.879468 0.979146 0.937396 0.8959 0.854892 0.814571 0.775117 0.736711 0.699552
          0.580008 0.422207 0.327073 0.304613 0.357282 0.479737 0.659729 0.879963 0.885158 0.671491 0.494134 0.371736
          0.317853 0.338794 0.432611 0.589065 0.70663 0.743112 0.780745 0.819329 0.85869 0.898663 0.939072 0.979706
          0.895288 0.708203 0.552732 0.442846 0.390902 0.403979 0.482033 0.617568 0.72385 0.757153 0.791732 0.827403
          0.864086 0.90178 0.940491 0.980078 0.933367 0.842607 0.776796 0.734665 0.715856 0.718129 0.737113 0.76673
          0.791299 0.808305 0.826614 0.846657 0.869138 0.895212 0.926921 0.968574 0.974084 0.94229 0.921625 0.908279
          0.900037 0.895264 0.89266 0.891207 0.889575 0.886607 0.884826 0.886349 0.893388 0.90806 0.932459 0.96986
          0.991269 0.971301 0.950511 0.930533 0.913054 0.899249 0.889308 0.882719 0.872476 0.861638 0.856143 0.857871
          0.868886 0.890502 0.923451 0.96913 0.990593 0.967683 0.942159 0.916045 0.891829 0.871631 0.856377 0.84597
          0.835136 0.823795 0.820129 0.826678 0.845165 0.875855 0.917803 0.969799 0.987418 0.958516 0.927404 0.895938
          0.866562 0.8416 0.822306 0.808931 0.798598 0.791281 0.79315 0.806706 0.833141 0.871592 0.919388 0.972885
          0.983868 0.9507 0.917464 0.885076 0.855246 0.829906 0.810175 0.796267 0.787259 0.784885 0.792105 0.81079
          0.84152 0.882511 0.92981 0.978279 0.981704 0.949755 0.920977 0.894422 0.870492 0.850257 0.834288 0.822308
          0.814238 0.814343 0.823189 0.842022 0.870908 0.907523 0.947371 0.985047 0.982548 0.959639 0.942955 0.929018
          0.916531 0.905299 0.895079 0.885018 0.875851 0.874738 0.880354 0.893687 0.914611 0.9408 0.968077 0.991853
          0.987248 0.980569 0.981454 0.983969 0.984996 0.982755 0.976064 0.964045 0.951154 0.946645 0.946061 0.950478
          0.96003 0.973069 0.986523 0.997213 0.994182 1.00397 1.02014 1.03561 1.04595 1.04796 1.03965 1.02073
          1.00372 0.996884 0.99107 0.987631 0.987434 0.990208 0.994582 0.998811 0.992107 0.99036 0.992431 0.994037
          0.992806 0.987426 0.977369 0.962601 0.948092 0.938474 0.929715 0.923352 0.921445 0.926623 0.942243 0.973087
          0.975256 0.942482 0.916069 0.892482 0.870438 0.849464 0.829403 0.810219 0.782034 0.744392 0.715643 0.703432
          0.714043 0.751955 0.82009 0.922551 0.986456 0.959591 0.933321 0.907747 0.882907 0.858853 0.835676 0.813513
          0.743275 0.655069 0.602479 0.59015 0.619401 0.687966 0.790948 0.922572 0.986978 0.96091 0.935 0.909392
          0.884207 0.85956 0.835565 0.81235 0.737668 0.63914 0.579683 0.565521 0.598212 0.674489 0.786841 0.924671
          0.87813 0.651086 0.462551 0.332479 0.275305 0.297692 0.397499 0.563751 0.688366 0.727053 0.766975 0.807921
          0.849712 0.89218 0.935149 0.978393 0.887893 0.687138 0.519908 0.401572 0.345638 0.35973 0.443653 0.58906
          0.702226 0.737663 0.77449 0.812565 0.851876 0.892515 0.934591 0.978008 0.9208 0.812178 0.732359 0.679994
          0.654855 0.654527 0.674032 0.706137 0.732666 0.751749 0.773187 0.797703 0.826339 0.860626 0.903045 0.958661
          0.955252 0.900651 0.864123 0.839024 0.821796 0.810006 0.801812 0.795806 0.788311 0.780983 0.780253 0.789361
          0.810781 0.845826 0.894671 0.957767 0.982286 0.944339 0.906573 0.871172 0.840223 0.815142 0.796119 0.782487