<?xml version="1.0"?>
<VTKFile type="UnstructuredGrid" version="0.1" byte_order="LittleEndian">
  <UnstructuredGrid>
    <Piece NumberOfCells="2500" NumberOfPoints="2601">
      <PointData Scalars="x^tracer_0" Vectors="velocity_Groundwater (m/s)">
        <DataArray type="Float32" Name="x^tracer_0" NumberOfComponents="1" format="ascii">
          1.35195e-11 1.40938e-11 1.55276e-11 1.62126e-11 1.57508e-11 1.81668e-11 1.83223e-11 2.11686e-11 2.15875e-11 2.49452e-11 2.53119e-11 2.92169e-11
          2.92713e-11 3.37242e-11 3.32669e-11 3.82425e-11 3.71317e-11 4.25885e-11 4.07328e-11 4.66203e-11 4.39694e-11 5.02332e-11 4.67687e-11 5.33544e-11
          4.90817e-11 5.59367e-11 5.08782e-11 5.79524e-11 5.21429e-11 5.93888e-11 5.28716e-11 6.02436e-11 5.3069e-11 6.0523e-11 5.27469e-11 6.02388e-11
          5.1923e-11 5.94086e-11 5.06211e-11 5.80545e-11 4.88712e-11 5.62048e-11 4.67104e-11 5.38941e-11 4.41843e-11 5.11661e-11 4.13498e-11 4.80763e-11
          3.82761e-11 4.46954e-11 3.50433e-11 4.1112e-11 3.17315e-11 3.74227e-11 2.84063e-11 3.36917e-11 2.51212e-11 2.99738e-11 2.19239e-11 2.63213e-11
          1.88587e-11 2.2785e-11 1.59663e-11 1.94141e-11 1.32832e-11 1.62547e-11 1.08405e-11 1.33485e-11 8.66207e-12 1.07299e-11 6.76293e-12 8.42414e-12
          5.14821e-12 6.44479e-12 3.8125e-12 4.79279e-12 2.74031e-12 3.45598e-12 1.90733e-12 2.41025e-12 1.28271e-12 1.62179e-12 8.31866e-13 1.05054e-12
          5.19478e-13 6.54008e-13 3.12281e-13 3.91111e-13 1.81131e-13 2.2517e-13 1.02196e-13 1.25832e-13 5.72407e-14 6.97199e-14 3.31896e-14 4.00428e-14
          2.12685e-14 2.55544e-14 1.60437e-14 1.93163e-14 1.46056e-14 1.76234e-14 2.17967e-11 2.28363e-11 2.57313e-11 3.00848e-11 3.54573e-11 4.14251e-11
          4.76159e-11 5.37248e-11 5.95179e-11 6.48261e-11 6.95356e-11 7.35754e-11 7.69062e-11 7.95114e-11 8.13886e-11 8.25449e-11 8.29927e-11 8.27479e-11
          8.18287e-11 8.02557e-11 7.80534e-11 7.52517e-11 7.18895e-11 6.80196e-11 6.37169e-11 5.90919e-11 5.42851e-11 4.93613e-11 4.43776e-11 3.93967e-11
          3.44863e-11 2.97178e-11 2.51639e-11 2.08955e-11 1.69775e-11 1.34647e-11 1.03966e-11 7.79403e-12 5.65675e-12 3.96317e-12 2.67268e-12 1.73037e-12
          1.07326e-12 6.37187e-13 3.62783e-13 1.99756e-13 1.0884e-13 6.16755e-14 3.92797e-14 2.99766e-14 2.75323e-14 3.29948e-11 3.46834e-11 3.92617e-11
          4.59865e-11 5.41025e-11 6.29251e-11 7.18858e-11 8.05496e-11 8.86091e-11 9.58657e-11 1.02205e-10 1.07575e-10 1.11961e-10 1.15375e-10 1.17839e-10
          1.1938e-10 1.20026e-10 1.19799e-10 1.1872e-10 1.16804e-10 1.14068e-10 1.10531e-10 1.0622e-10 1.01176e-10 9.54732e-11 8.92438e-11 8.26867e-11
          7.58725e-11 6.8864e-11 6.17396e-11 5.45923e-11 4.75276e-11 4.06603e-11 3.41093e-11 2.79913e-11 2.24127e-11 1.74607e-11 1.31954e-11 9.64279e-12
          6.79194e-12 4.59618e-12 2.97921e-12 1.84511e-12 1.09047e-12 6.16021e-13 3.35539e-13 1.80685e-13 1.01719e-13 6.52553e-14 5.07265e-14 4.70777e-14
          5.00312e-11 5.27057e-11 5.97699e-11 6.9892e-11 8.181e-11 9.44443e-11 1.06956e-10 1.18755e-10 1.2947e-10 1.38903e-10 1.4698e-10 1.53704e-10
          1.59124e-10 1.63307e-10 1.66321e-10 1.68228e-10 1.69076e-10 1.68895e-10 1.67703e-10 1.65503e-10 1.62291e-10 1.58057e-10 1.52799e-10 1.46527e-10
          1.39291e-10 1.31224e-10 1.2257e-10 1.13412e-10 1.03822e-10 9.38993e-11 8.37722e-11 7.35922e-11 6.35322e-11 5.37801e-11 4.45287e-11 3.5964e-11
          2.82496e-11 2.1512e-11 1.58271e-11 1.12111e-11 7.61886e-12 4.95075e-12 3.06733e-12 1.80916e-12 1.01736e-12 5.50494e-13 2.94646e-13 1.66125e-13
          1.08444e-13 8.65808e-14 8.14362e-14 7.37918e-11 7.77851e-11 8.80596e-11 1.02386e-10 1.18775e-10 1.35627e-10 1.51798e-10 1.66569e-10 1.79572e-10
          1.90686e-10 1.9995e-10 2.07491e-10 2.13467e-10 2.18036e-10 2.21338e-10 2.23477e-10 2.24526e-10 2.24517e-10 2.23455e-10 2.21312e-10 2.18041e-10
          2.13579e-10 2.07863e-10 2.00838e-10 1.92491e-10 1.82908e-10 1.72327e-10 1.60833e-10 1.48512e-10 1.35489e-10 1.21932e-10 1.08051e-10 9.40927e-11
          8.03377e-11 6.70838e-11 5.46298e-11 4.32527e-11 3.3183e-11 2.45802e-11 1.75146e-11 1.19599e-11 7.79807e-12 4.83984e-12 2.85413e-12 1.60162e-12
          8.63831e-13 4.61858e-13 2.62838e-13 1.76343e-13 1.45677e-13 1.39194e-13 1.04834e-10 1.10392e-10 1.24306e-10 1.43111e-10 1.63882e-10 1.84436e-10
          2.03366e-10 2.19935e-10 2.33903e-10 2.45351e-10 2.54532e-10 2.61766e-10 2.67373e-10 2.71631e-10 2.7476e-10 2.76914e-10 2.78179e-10 2.78582e-10
          2.78094e-10 2.76637e-10 2.74096e-10 2.70325e-10 2.65164e-10 2.58453e-10 2.50065e-10 2.39967e-10 2.28301e-10 2.1513e-10 2.00538e-10 1.84668e-10
          1.67726e-10 1.49983e-10 1.31777e-10 1.13499e-10 9.55852e-11 7.84847e-11 6.26329e-11 4.84111e-11 3.6108e-11 2.58874e-11 1.77697e-11 1.16335e-11
          7.2399e-12 4.27459e-12 2.39825e-12 1.29293e-12 6.93746e-13 4.01657e-13 2.79706e-13 2.40586e-13 2.33905e-13 1.43101e-10 1.50286e-10 1.67736e-10
          1.90461e-10 2.14483e-10 2.37087e-10 2.5676e-10 2.72939e-10 2.85694e-10 2.95446e-10 3.02758e-10 3.08198e-10 3.1227e-10 3.15378e-10 3.17812e-10
          3.19758e-10 3.21303e-10 3.22446e-10 3.23108e-10 3.23143e-10 3.22349e-10 3.20476e-10 3.17241e-10 3.12343e-10 3.05494e-10 2.96473e-10 2.85212e-10
          2.71698e-10 2.55977e-10 2.38177e-10 2.1852e-10 1.97329e-10 1.7503e-10 1.52144e-10 1.29268e-10 1.07044e-10 8.61151e-11 6.70672e-11 5.03744e-11
          3.63447e-11 2.50855e-11 1.64976e-11 1.0302e-11 6.09598e-12 3.42466e-12 1.85006e-12 1.00086e-12 5.94444e-13 4.33758e-13 3.90282e-13 3.86399e-13
          1.87733e-10 1.96333e-10 2.1651e-10 2.41608e-10 2.66653e-10 2.88606e-10 3.06122e-10 3.19065e-10 3.28003e-10 3.33809e-10 3.37405e-10 3.39614e-10
          3.41101e-10 3.42358e-10 3.43711e-10 3.45343e-10 3.4731e-10 3.49562e-10 3.51959e-10 3.5428e-10 3.5623e-10 3.57454e-10 3.57538e-10 3.56032e-10
          3.52462e-10 3.46368e-10 3.3738e-10 3.25335e-10 3.10171e-10 2.91943e-10 2.70839e-10 2.47199e-10 2.21516e-10 1.94438e-10 1.66741e-10 1.39292e-10
          1.12986e-10 8.86738e-11 6.70771e-11 4.87072e-11 3.38089e-11 2.23415e-11 1.40052e-11 8.31182e-12 4.68151e-12 2.54016e-12 1.39232e-12 8.55838e-13
          6.60035e-13 6.22948e-13 6.2805e-13 2.3701e-10 2.46503e-10 2.67858e-10 2.92871e-10 3.15856e-10 3.33821e-10 3.4594e-10 3.52754e-10 3.55468e-10
          3.55449e-10 3.5395e-10 3.51987e-10 3.50312e-10 3.4943e-10 3.49639e-10 3.51068e-10 3.53709e-10 3.57443e-10 3.62062e-10 3.67272e-10 3.72702e-10
          3.77907e-10 3.82371e-10 3.85507e-10 3.8667e-10 3.85154e-10 3.80255e-10 3.71576e-10 3.58868e-10 3.42027e-10 3.21133e-10 2.96476e-10 2.68574e-10
          2.38173e-10 2.06223e-10 1.73833e-10 1.4219e-10 1.12462e-10 8.56768e-11 6.26126e-11 4.37083e-11 2.90251e-11 1.827e-11 1.08807e-11 6.15067e-12
          3.35989e-12 1.87602e-12 1.20466e-12 9.89037e-13 9.79792e-13 1.00517e-12 2.88472e-10 2.98048e-10 3.18431e-10 3.40301e-10 3.57774e-10 3.68396e-10
          3.72207e-10 3.70612e-10 3.65485e-10 3.58628e-10 3.51518e-10 3.45238e-10 3.40511e-10 3.37759e-10 3.37176e-10 3.38782e-10 3.42473e-10 3.48045e-10
          3.55219e-10 3.63643e-10 3.72895e-10 3.82478e-10 3.91812e-10 4.00223e-10 4.06941e-10 4.11063e-10 4.11582e-10 4.07818e-10 3.99253e-10 3.8554e-10
          3.66561e-10 3.42473e-10 3.13748e-10 2.81176e-10 2.45855e-10 2.09129e-10 1.72497e-10 1.3748e-10 1.05466e-10 7.75575e-11 5.44418e-11 3.63283e-11
          2.29632e-11 1.37283e-11 7.79613e-12 4.29843e-12 2.4599e-12 1.66615e-12 1.46379e-12 1.51998e-12 1.58464e-12 3.39168e-10 3.47821e-10 3.64762e-10
          3.80301e-10 3.89041e-10 3.89575e-10 3.83083e-10 3.71889e-10 3.58449e-10 3.44842e-10 3.32592e-10 3.22695e-10 3.15715e-10 3.11895e-10 3.11253e-10
          3.13661e-10 3.18888e-10 3.26637e-10 3.3656e-10 3.48264e-10 3.61303e-10 3.75167e-10 3.89262e-10 4.02891e-10 4.15225e-10 4.25253e-10 4.31762e-10
          4.33782e-10 4.30477e-10 4.2119e-10 4.05523e-10 3.83418e-10 3.55212e-10 3.21674e-10 2.83994e-10 2.43724e-10 2.02668e-10 1.62718e-10 1.25657e-10
          9.29544e-11 6.55934e-11 4.39728e-11 2.79105e-11 1.67541e-11 9.56743e-12 5.33966e-12 3.15423e-12 2.27506e-12 2.14439e-12 2.32674e-12 2.46087e-12
          3.85996e-10 3.92658e-10 4.03733e-10 4.10124e-10 4.07676e-10 3.9646e-10 3.78922e-10 3.58209e-10 3.37166e-10 3.17921e-10 3.01849e-10 2.89702e-10
          2.81774e-10 2.78054e-10 2.78343e-10 2.82332e-10 2.89652e-10 2.99909e-10 3.12692e-10 3.27575e-10 3.44109e-10 3.61804e-10 3.80096e-10 3.98322e-10
          4.15668e-10 4.31117e-10 4.43385e-10 4.51248e-10 4.53556e-10 4.49311e-10 4.37785e-10 4.18631e-10 3.9198e-10 3.58499e-10 3.19405e-10 2.7641e-10
          2.31594e-10 1.87215e-10 1.45461e-10 1.08191e-10 7.67133e-11 5.1648e-11 3.2912e-11 1.98403e-11 1.14051e-11 6.46583e-12 3.97485e-12 3.07978e-12
          3.11353e-12 3.51443e-12 3.76362e-12 4.2606e-10 4.29755e-10 4.32937e-10 4.28156e-10 4.13186e-10 3.89849e-10 3.61807e-10 3.32812e-10 3.05824e-10
          2.82783e-10 2.64734e-10 2.52062e-10 2.44723e-10 2.42417e-10 2.44709e-10 2.51105e-10 2.61099e-10 2.74195e-10 2.89922e-10 3.07826e-10 3.27465e-10
          3.48383e-10 3.70075e-10 3.9195e-10 4.13278e-10 4.3312e-10 4.50259e-10 4.63294e-10 4.70805e-10 4.71473e-10 4.64229e-10 4.48404e-10 4.23863e-10
          3.91108e-10 3.51319e-10 3.06305e-10 2.58381e-10 2.10138e-10 1.64153e-10 1.22678e-10 8.73544e-11 5.9037e-11 3.77592e-11 2.28627e-11 1.32471e-11
          7.66213e-12 4.94741e-12 4.14719e-12 4.48279e-12 5.23628e-12 5.66656e-12 4.56981e-10 4.56957e-10 4.50892e-10 4.33961e-10 4.06379e-10 3.71789e-10
          3.34862e-10 2.99651e-10 2.68947e-10 2.44291e-10 2.26268e-10 2.14837e-10 2.09594e-10 2.09953e-10 2.15256e-10 2.24837e-10 2.38057e-10 2.54323e-10
          2.73098e-10 2.93899e-10 3.16282e-10 3.39827e-10 3.64098e-10 3.88597e-10 4.1271e-10 4.35651e-10 4.56365e-10 4.73375e-10 4.85068e-10 4.89868e-10
          4.86396e-10 4.73664e-10 4.51254e-10 4.19462e-10 3.79373e-10 3.32843e-10 2.8236e-10 2.30804e-10 1.81108e-10 1.35886e-10 9.71019e-11 6.58385e-11
[...]
      <CellData Scalars="process rank">
        <DataArray type="Float32" Name="process rank" NumberOfComponents="1" format="ascii">
          0 0 0 0 0 0 0 0 0 0 0 0
          0 0 0 0 0 0 0 0 0 0 0 0
          0 0 0 0 0 0 0 0 0 0 0 0
          0 0 0 0 0 0 0 0 0 0 0 0
          0 0 0 0 0 0 0 0 0 0 0 0
          0 0 0 0 0 0 0 0 0 0 0 0
          0 0 0 0 0 0 0 0 0 0 0 0
          0 0 0 0 0 0 0 0 0 0 0 0
          0 0 0 0 0 0 0 0 0 0 0 0
          0 0 0 0 0 0 0 0 0 0 0 0
          0 0 0 0 0 0 0 0 0 0 0 0
          0 0 0 0 0 0 0 0 0 0 0 0
          0 0 0 0 0 0 0 0 0 0 0 0
          0 0 0 0 0 0 0 0 0 0 0 0
          0 0 0 0 0 0 0 0 0 0 0 0
          0 0 0 0 0 0 0 0 0 0 0 0
          0 0 0 0 0 0 0 0 0 0 0 0
          0 0 0 0 0 0 0 0 0 0 0 0
          0 0 0 0 0 0 0 0 0 0 0 0
          0 0 0 0 0 0 0 0 0 0 0 0
          0 0 0 0 0 0 0 0 0 0 0 0
          0 0 0 0 0 0 0 0 0 0 0 0
          0 0 0 0 0 0 0 0 0 0 0 0
          0 0 0 0 0 0 0 0 0 0 0 0
          0 0 0 0 0 0 0 0 0 0 0 0
          0 0 0 0 0 0 0 0 0 0 0 0
          0 0 0 0 0 0 0 0 0 0 0 0
          0 0 0 0 0 0 0 0 0 0 0 0
          0 0 0 0 0 0 0 0 0 0 0 0
          0 0 0 0 0 0 0 0 0 0 0 0
          0 0 0 0 0 0 0 0 0 0 0 0
          0 0 0 0 0 0 0 0 0 0 0 0
          0 0 0 0 0 0 0 0 0 0 0 0
          0 0 0 0 0 0 0 0 0 0 0 0
          0 0 0 0 0 0 0 0 0 0 0 0
          0 0 0 0 0 0 0 0 0 0 0 0
          0 0 0 0 0 0 0 0 0 0 0 0
          0 0 0 0 0 0 0 0 0 0 0 0
          0 0 0 0 0 0 0 0 0 0 0 0
          0 0 0 0 0 0 0 0 0 0 0 0
          0 0 0 0 0 0 0 0 0 0 0 0
          0 0 0 0 0 0 0 0 0 0 0 0
          0 0 0 0 0 0 0 0 0 0 0 0
          0 0 0 0 0 0 0 0 0 0 0 0
          0 0 0 0 0 0 0 0 0 0 0 0
          0 0 0 0 0 0 0 0 0 0 0 0
          0 0 0 0 0 0 0 0 0 0 0 0
          0 0 0 0 0 0 0 0 0 0 0 0
          0 0 0 0 0 0 0 0 0 0 0 0
          0 0 0 0 0 0 0 0 0 0 0 0
          0 0 0 0 0 0 0 0 0 0 0 0
          0 0 0 0 0 0 0 0 0 0 0 0
          0 0 0 0 0 0 0 0 0 0 0 0
          0 0 0 0 0 0 0 0 0 0 0 0
          0 0 0 0 0 0 0 0 0 0 0 0
          0 0 0 0 0 0 0 0 0 0 0 0
          0 0 0 0 0 0 0 0 0 0 0 0
          0 0 0 0 0 0 0 0 0 0 0 0
          0 0 0 0 0 0 0 0 0 0 0 0
          0 0 0 0 0 0 0 0 0 0 0 0
          0 0 0 0 0 0 0 0 0 0 0 0
          0 0 0 0 0 0 0 0 0 0 0 0
          0 0 0 0 0 0 0 0 0 0 0 0
          0 0 0 0 0 0 0 0 0 0 0 0
          0 0 0 0 0 0 0 0 0 0 0 0
          0 0 0 0 0 0 0 0 0 0 0 0
          0 0 0 0 0 0 0 0 0 0 0 0
          0 0 0 0 0 0 0 0 0 0 0 0
          0 0 0 0 0 0 0 0 0 0 0 0
          0 0 0 0 0 0 0 0 0 0 0 0
          0 0 0 0 0 0 0 0 0 0 0 0
          0 0 0 0 0 0 0 0 0 0 0 0
          0 0 0 0 0 0 0 0 0 0 0 0
          0 0 0 0 0 0 0 0 0 0 0 0
          0 0 0 0 0 0 0 0 0 0 0 0
          0 0 0 0 0 0 0 0 0 0 0 0
          0 0 0 0 0 0 0 0 0 0 0 0
          0 0 0 0 0 0 0 0 0 0 0 0
          0 0 0 0 0 0 0 0 0 0 0 0
          0 0 0 0 0 0 0 0 0 0 0 0
          0 0 0 0 0 0 0 0 0 0 0 0
          0 0 0 0 0 0 0 0 0 0 0 0
          0 0 0 0 0 0 0 0 0 0 0 0
          0 0 0 0 0 0 0 0 0 0 0 0
          0 0 0 0 0 0 0 0 0 0 0 0
          0 0 0 0 0 0 0 0 0 0 0 0
          0 0 0 0 0 0 0 0 0 0 0 0
          0 0 0 0 0 0 0 0 0 0 0 0
          0 0 0 0 0 0 0 0 0 0 0 0
          0 0 0 0 0 0 0 0 0 0 0 0
          0 0 0 0 0 0 0 0 0 0 0 0
          0 0 0 0 0 0 0 0 0 0 0 0
          0 0 0 0 0 0 0 0 0 0 0 0
          0 0 0 0 0 0 0 0 0 0 0 0
          0 0 0 0 0 0 0 0 0 0 0 0
          0 0 0 0 0 0 0 0 0 0 0 0
          0 0 0 0 0 0 0 0 0 0 0 0
          0 0 0 0 0 0 0 0 0 0 0 0
          0 0 0 0 0 0 0 0 0 0 0 0
          0 0 0 0 0 0 0 0 0 0 0 0
          0 0 0 0 0 0 0 0 0 0 0 0
          0 0 0 0 0 0 0 0 0 0 0 0
          0 0 0 0 0 0 0 0 0 0 0 0
          0 0 0 0 0 0 0 0 0 0 0 0
          0 0 0 0 0 0 0 0 0 0 0 0
          0 0 0 0 0 0 0 0 0 0 0 0
          0 0 0 0 0 0 0 0 0 0 0 0
          0 0 0 0 0 0 0 0 0 0 0 0
          0 0 0 0 0 0 0 0 0 0 0 0
          0 0 0 0 0 0 0 0 0 0 0 0
          0 0 0 0 0 0 0 0 0 0 0 0
          0 0 0 0 0 0 0 0 0 0 0 0
          0 0 0 0 0 0 0 0 0 0 0 0
          0 0 0 0 0 0 0 0 0 0 0 0
          0 0 0 0 0 0 0 0 0 0 0 0
          0 0 0 0 0 0 0 0 0 0 0 0
          0 0 0 0 0 0 0 0 0 0 0 0
          0 0 0 0 0 0 0 0 0 0 0 0
          0 0 0 0 0 0 0 0 0 0 0 0
          0 0 0 0 0 0 0 0 0 0 0 0
          0 0 0 0 0 0 0 0 0 0 0 0
          0 0 0 0 0 0 0 0 0 0 0 0
          0 0 0 0 0 0 0 0 0 0 0 0
          0 0 0 0 0 0 0 0 0 0 0 0
          0 0 0 0 0 0 0 0 0 0 0 0
          0 0 0 0 0 0 0 0 0 0 0 0
          0 0 0 0 0 0 0 0 0 0 0 0
          0 0 0 0 0 0 0 0 0 0 0 0
          0 0 0 0 0 0 0 0 0 0 0 0
          0 0 0 0 0 0 0 0 0 0 0 0
          0 0 0 0 0 0 0 0 0 0 0 0
          0 0 0 0 0 0 0 0 0 0 0 0
          0 0 0 0 0 0 0 0 0 0 0 0
          0 0 0 0 0 0 0 0 0 0 0 0
          0 0 0 0 0 0 0 0 0 0 0 0
          0 0 0 0 0 0 0 0 0 0 0 0
          0 0 0 0 0 0 0 0 0 0 0 0
          0 0 0 0 0 0 0 0 0 0 0 0
          0 0 0 0 0 0 0 0 0 0 0 0
          0 0 0 0 0 0 0 0 0 0 0 0
          0 0 0 0 0 0 0 0 0 0 0 0
          0 0 0 0 0 0 0 0 0 0 0 0
          0 0 0 0 0 0 0 0 0 0 0 0
          0 0 0 0 0 0 0 0 0 0 0 0
          0 0 0 0 0 0 0 0 0 0 0 0
          0 0 0 0 0 0 0 0 0 0 0 0
          0 0 0 0 0 0 0 0 0 0 0 0
          0 0 0 0 0 0 0 0 0 0 0 0
          0 0 0 0 0 0 0 0 0 0 0 0
          0 0 0 0 0 0 0 0 0 0 0 0
          0 0 0 0 0 0 0 0 0 0 0 0
          0 0 0 0 0 0 0 0 0 0 0 0
          0 0 0 0 0 0 0 0 0 0 0 0
          0 0 0 0 0 0 0 0 0 0 0 0
          0 0 0 0 0 0 0 0 0 0 0 0
          0 0 0 0 0 0 0 0 0 0 0 0
          0 0 0 0 0 0 0 0 0 0 0 0
          0 0 0 0 0 0 0 0 0 0 0 0
          0 0 0 0 0 0 0 0 0 0 0 0
          0 0 0 0 0 0 0 0 0 0 0 0
          0 0 0 0 0 0 0 0 0 0 0 0
          0 0 0 0 0 0 0 0 0 0 0 0
          0 0 0 0 0 0 0 0 0 0 0 0
          0 0 0 0 0 0 0 0 0 0 0 0
          0 0 0 0 0 0 0 0 0 0 0 0
          0 0 0 0 0 0 0 0 0 0 0 0
          0 0 0 0 0 0 0 0 0 0 0 0
          0 0 0 0 0 0 0 0 0 0 0 0
          0 0 0 0 0 0 0 0 0 0 0 0
          0 0 0 0 0 0 0 0 0 0 0 0
          0 0 0 0 0 0 0 0 0 0 0 0
          0 0 0 0 0 0 0 0 0 0 0 0
          0 0 0 0 0 0 0 0 0 0 0 0
          0 0 0 0 0 0 0 0 0 0 0 0
          0 0 0 0 0 0 0 0 0 0 0 0
          0 0 0 0 0 0 0 0 0 0 0 0
          0 0 0 0 0 0 0 0 0 0 0 0
          0 0 0 0 0 0 0 0 0 0 0 0
          0 0 0 0 0 0 0 0 0 0 0 0
          0 0 0 0 0 0 0 0 0 0 0 0
          0 0 0 0 0 0 0 0 0 0 0 0
          0 0 0 0 0 0 0 0 0 0 0 0
          0 0 0 0 0 0 0 0 0 0 0 0
          0 0 0 0 0 0 0 0 0 0 0 0
          0 0 0 0 0 0 0 0 0 0 0 0
          0 0 0 0 0 0 0 0 0 0 0 0
          0 0 0 0 0 0 0 0 0 0 0 0
          0 0 0 0 0 0 0 0 0 0 0 0
          0 0 0 0 0 0 0 0 0 0 0 0
          0 0 0 0 0 0 0 0 0 0 0 0
          0 0 0 0 0 0 0 0 0 0 0 0
          0 0 0 0 0 0 0 0 0 0 0 0
          0 0 0 0 0 0 0 0 0 0 0 0
          0 0 0 0 0 0 0 0 0 0 0 0
          0 0 0 0 0 0 0 0 0 0 0 0
          0 0 0 0 0 0 0 0 0 0 0 0
          0 0 0 0 0 0 0 0 0 0 0 0
          0 0 0 0 0 0 0 0 0 0 0 0
          0 0 0 0 0 0 0 0 0 0 0 0
          0 0 0 0 0 0 0 0 0 0 0 0
          0 0 0 0 0 0 0 0 0 0 0 0
          0 0 0 0 0 0 0 0 0 0 0 0
          0 0 0 0 0 0 0 0 0 0 0 0
          0 0 0 0 0 0 0 0 0 0 0 0
          0 0 0 0 0 0 0 0 0 0 0 0
          0 0 0 0 0 0 0 0 0 0 0 0
          0 0 0 0 0 0 0 0 0 0 0 0
          0 0 0 0 0 0 0 0 0 0 0 0
          0 0 0 0
        </DataArray>
      </CellData>
      <Points>
        <DataArray type="Float32" Name="Coordinates" NumberOfComponents="3" format="ascii">
          0 0 0 0.02 0 0 0 0.02 0 0.02 0.02 0
          0.04 0 0 0.04 0.02 0 0.06 0 0 0.06 0.02 0
          0.08 0 0 0.08 0.02 0 0.1 0 0 0.1 0.02 0
          0.12 0 0 0.12 0.02 0 0.14 0 0 0.14 0.02 0
          0.16 0 0 0.16 0.02 0 0.18 0 0 0.18 0.02 0
          0.2 0 0 0.2 0.02 0 0.22 0 0 0.22 0.02 0
          0.24 0 0 0.24 0.02 0 0.26 0 0 0.26 0.02 0
          0.28 0 0 0.28 0.02 0 0.3 0 0 0.3 0.02 0
          0.32 0 0 0.32 0.02 0 0.34 0 0 0.34 0.02 0
          0.36 0 0 0.36 0.02 0 0.38 0 0 0.38 0.02 0
          0.4 0 0 0.4 0.02 0 0.42 0 0 0.42 0.02 0
          0.44 0 0 0.44 0.02 0 0.46 0 0 0.46 0.02 0
          0.48 0 0 0.48 0.02 0 0.5 0 0 0.5 0.02 0
          0.52 0 0 0.52 0.02 0 0.54 0 0 0.54 0.02 0
          0.56 0 0 0.56 0.02 0 0.58 0 0 0.58 0.02 0
          0.6 0 0 0.6 0.02 0 0.62 0 0 0.62 0.02 0
          0.64 0 0 0.64 0.02 0 0.66 0 0 0.66 0.02 0
          0.68 0 0 0.68 0.02 0 0.7 0 0 0.7 0.02 0
          0.72 0 0 0.72 0.02 0 0.74 0 0 0.74 0.02 0
          0.76 0 0 0.76 0.02 0 0.78 0 0 0.78 0.02 0
          0.8 0 0 0.8 0.02 0 0.82 0 0 0.82 0.02 0
          0.84 0 0 0.84 0.02 0 0.86 0 0 0.86 0.02 0
          0.88 0 0 0.88 0.02 0 0.9 0 0 0.9 0.02 0
          0.92 0 0 0.92 0.02 0 0.94 0 0 0.94 0.02 0
          0.96 0 0 0.96 0.02 0 0.98 0 0 0.98 0.02 0
          1 0 0 1 0.02 0 0 0.04 0 0.02 0.04 0
          0.04 0.04 0 0.06 0.04 0 0.08 0.04 0 0.1 0.04 0
          0.12 0.04 0 0.14 0.04 0 0.16 0.04 0 0.18 0.04 0
          0.2 0.04 0 0.22 0.04 0 0.24 0.04 0 0.26 0.04 0
          0.28 0.04 0 0.3 0.04 0 0.32 0.04 0 0.34 0.04 0
          0.36 0.04 0 0.38 0.04 0 0.4 0.04 0 0.42 0.04 0
          0.44 0.04 0 0.46 0.04 0 0.48 0.04 0 0.5 0.04 0
          0.52 0.04 0 0.54 0.04 0 0.56 0.04 0 0.58 0.04 0
          0.6 0.04 0 0.62 0.04 0 0.64 0.04 0 0.66 0.04 0
          0.68 0.04 0 0.7 0.04 0 0.72 0.04 0 0.74 0.04 0
          0.76 0.04 0 0.78 0.04 0 0.8 0.04 0 0.82 0.04 0
          0.84 0.04 0 0.86 0.04 0 0.88 0.04 0 0.9 0.04 0
          0.92 0.04 0 0.94 0.04 0 0.96 0.04 0 0.98 0.04 0
          1 0.04 0 0 0.06 0 0.02 0.06 0 0.04 0.06 0
          0.06 0.06 0 0.08 0.06 0 0.1 0.06 0 0.12 0.06 0
          0.14 0.06 0 0.16 0.06 0 0.18 0.06 0 0.2 0.06 0
          0.22 0.06 0 0.24 0.06 0 0.26 0.06 0 0.28 0.06 0
          0.3 0.06 0 0.32 0.06 0 0.34 0.06 0 0.36 0.06 0
          0.38 0.06 0 0.4 0.06 0 0.42 0.06 0 0.44 0.06 0
          0.46 0.06 0 0.48 0.06 0 0.5 0.06 0 0.52 0.06 0
          0.54 0.06 0 0.56 0.06 0 0.58 0.06 0 0.6 0.06 0
          0.62 0.06 0 0.64 0.06 0 0.66 0.06 0 0.68 0.06 0
          0.7 0.06 0 0.72 0.06 0 0.74 0.06 0 0.76 0.06 0
          0.78 0.06 0 0.8 0.06 0 0.82 0.06 0 0.84 0.06 0
          0.86 0.06 0 0.88 0.06 0 0.9 0.06 0 0.92 0.06 0
          0.94 0.06 0 0.96 0.06 0 0.98 0.06 0 1 0.06 0
          0 0.08 0 0.02 0.08 0 0.04 0.08 0 0.06 0.08 0
          0.08 0.08 0 0.1 0.08 0 0.12 0.08 0 0.14 0.08 0
          0.16 0.08 0 0.18 0.08 0 0.2 0.08 0 0.22 0.08 0
          0.24 0.08 0 0.26 0.08 0 0.28 0.08 0 0.3 0.08 0
          0.32 0.08 0 0.34 0.08 0 0.36 0.08 0 0.38 0.08 0
          0.4 0.08 0 0.42 0.08 0 0.44 0.08 0 0.46 0.08 0
          0.48 0.08 0 0.5 0.08 0 0.52 0.08 0 0.54 0.08 0
          0.56 0.08 0 0.58 0.08 0 0.6 0.08 0 0.62 0.08 0
          0.64 0.08 0 0.66 0.08 0 0.68 0.08 0 0.7 0.08 0
          0.72 0.08 0 0.74 0.08 0 0.76 0.08 0 0.78 0.08 0
          0.8 0.08 0 0.82 0.08 0 0.84 0.08 0 0.86 0.08 0
          0.88 0.08 0 0.9 0.08 0 0.92 0.08 0 0.94 0.08 0
          0.96 0.08 0 0.98 0.08 0 1 0.08 0 0 0.1 0
          0.02 0.1 0 0.04 0.1 0 0.06 0.1 0 0.08 0.1 0
          0.1 0.1 0 0.12 0.1 0 0.14 0.1 0 0.16 0.1 0
          0.18 0.1 0 0.2 0.1 0 0.22 0.1 0 0.24 0.1 0
          0.26 0.1 0 0.28 0.1 0 0.3 0.1 0 0.32 0.1 0
          0.34 0.1 0 0.36 0.1 0 0.38 0.1 0 0.4 0.1 0
          0.42 0.1 0 0.44 0.1 0 0.46 0.1 0 0.48 0.1 0
          0.5 0.1 0 0.52 0.1 0 0.54 0.1 0 0.56 0.1 0
          0.58 0.1 0 0.6 0.1 0 0.62 0.1 0 0.64 0.1 0
          0.66 0.1 0 0.68 0.1 0 0.7 0.1 0 0.72 0.1 0
          0.74 0.1 0 0.76 0.1 0 0.78 0.1 0 0.8 0.1 0
          0.82 0.1 0 0.84 0.1 0 0.86 0.1 0 0.88 0.1 0
          0.9 0.1 0 0.92 0.1 0 0.94 0.1 0 0.96 0.1 0
          0.98 0.1 0 1 0.1 0 0 0.12 0 0.02 0.12 0
          0.04 0.12 0 0.06 0.12 0 0.08 0.12 0 0.1 0.12 0
          0.12 0.12 0 0.14 0.12 0 0.16 0.12 0 0.18 0.12 0
          0.2 0.12 0 0.22 0.12 0 0.24 0.12 0 0.26 0.12 0
          0.28 0.12 0 0.3 0.12 0 0.32 0.12 0 0.34 0.12 0
          0.36 0.12 0 0.38 0.12 0 0.4 0.12 0 0.42 0.12 0
          0.44 0.12 0 0.46 0.12 0 0.48 0.12 0 0.5 0.12 0
          0.52 0.12 0 0.54 0.12 0 0.56 0.12 0 0.58 0.12 0
          0.6 0.12 0 0.62 0.12 0 0.64 0.12 0 0.66 0.12 0
          0.68 0.12 0 0.7 0.12 0 0.72 0.12 0 0.74 0.12 0
          0.76 0.12 0 0.78 0.12 0 0.8 0.12 0 0.82 0.12 0
          0.84 0.12 0 0.86 0.12 0 0.88 0.12 0 0.9 0.12 0
          0.92 0.12 0 0.94 0.12 0 0.96 0.12 0 0.98 0.12 0
          1 0.12 0 0 0.14 0 0.02 0.14 0 0.04 0.14 0
          0.06 0.14 0 0.08 0.14 0 0.1 0.14 0 0.12 0.14 0
          0.14 0.14 0 0.16 0.14 0 0.18 0.14 0 0.2 0.14 0
          0.22 0.14 0 0.24 0.14 0 0.26 0.14 0 0.28 0.14 0
          0.3 0.14 0 0.32 0.14 0 0.34 0.14 0 0.36 0.14 0
          0.38 0.14 0 0.4 0.14 0 0.42 0.14 0 0.44 0.14 0
          0.46 0.14 0 0.48 0.14 0 0.5 0.14 0 0.52 0.14 0
          0.54 0.14 0 0.56 0.14 0 0.58 0.14 0 0.6 0.14 0
          0.62 0.14 0 0.64 0.14 0 0.66 0.14 0 0.68 0.14 0
          0.7 0.14 0 0.72 0.14 0 0.74 0.14 0 0.76 0.14 0
          0.78 0.14 0 0.8 0.14 0 0.82 0.14 0 0.84 0.14 0
          0.86 0.14 0 0.88 0.14 0 0.9 0.14 0 0.92 0.14 0
          0.94 0.14 0 0.96 0.14 0 0.98 0.14 0 1 0.14 0
          0 0.16 0 0.02 0.16 0 0.04 0.16 0 0.06 0.16 0
          0.08 0.16 0 0.1 0.16 0 0.12 0.16 0 0.14 0.16 0
          0.16 0.16 0 0.18 0.16 0 0.2 0.16 0 0.22 0.16 0
          0.24 0.16 0 0.26 0.16 0 0.28 0.16 0 0.3 0.16 0
          0.32 0.16 0 0.34 0.16 0 0.36 0.16 0 0.38 0.16 0
          0.4 0.16 0 0.42 0.16 0 0.44 0.16 0 0.46 0.16 0
          0.48 0.16 0 0.5 0.16 0 0.52 0.16 0 0.54 0.16 0
          0.56 0.16 0 0.58 0.16 0 0.6 0.16 0 0.62 0.16 0
          0.64 0.16 0 0.66 0.16 0 0.68 0.16 0 0.7 0.16 0
          0.72 0.16 0 0.74 0.16 0 0.76 0.16 0 0.78 0.16 0
          0.8 0.16 0 0.82 0.16 0 0.84 0.16 0 0.86 0.16 0
          0.88 0.16 0 0.9 0.16 0 0.92 0.16 0 0.94 0.16 0
          0.96 0.16 0 0.98 0.16 0 1 0.16 0 0 0.18 0
          0.02 0.18 0 0.04 0.18 0 0.06 0.18 0 0.08 0.18 0
          0.1 0.18 0 0.12 0.18 0 0.14 0.18 0 0.16 0.18 0
          0.18 0.18 0 0.2 0.18 0 0.22 0.18 0 0.24 0.18 0
          0.26 0.18 0 0.28 0.18 0 0.3 0.18 0 0.32 0.18 0
          0.34 0.18 0 0.36 0.18 0 0.38 0.18 0 0.4 0.18 0
          0.42 0.18 0 0.44 0.18 0 0.46 0.18 0 0.48 0.18 0
          0.5 0.18 0 0.52 0.18 0 0.54 0.18 0 0.56 0.18 0
          0.58 0.18 0 0.6 0.18 0 0.62 0.18 0 0.64 0.18 0
          0.66 0.18 0 0.68 0.18 0 0.7 0.18 0 0.72 0.18 0
          0.74 0.18 0 0.76 0.18 0 0.78 0.18 0 0.8 0.18 0
          0.82 0.18 0 0.84 0.18 0 0.86 0.18 0 0.88 0.18 0
          0.9 0.18 0 0.92 0.18 0 0.94 0.18 0 0.96 0.18 0
          0.98 0.18 0 1 0.18 0 0 0.2 0 0.02 0.2 0
          0.04 0.2 0 0.06 0.2 0 0.08 0.2 0 0.1 0.2 0
          0.12 0.2 0 0.14 0.2 0 0.16 0.2 0 0.18 0.2 0
          0.2 0.2 0 0.22 0.2 0 0.24 0.2 0 0.26 0.2 0
          0.28 0.2 0 0.3 0.2 0 0.32 0.2 0 0.34 0.2 0
          0.36 0.2 0 0.38 0.2 0 0.4 0.2 0 0.42 0.2 0
          0.44 0.2 0 0.46 0.2 0 0.48 0.2 0 0.5 0.2 0
          0.52 0.2 0 0.54 0.2 0 0.56 0.2 0 0.58 0.2 0
          0.6 0.2 0 0.62 0.2 0 0.64 0.2 0 0.66 0.2 0
          0.68 0.2 0 0.7 0.2 0 0.72 0.2 0 0.74 0.2 0
          0.76 0.2 0 0.78 0.2 0 0.8 0.2 0 0.82 0.2 0
          0.84 0.2 0 0.86 0.2 0 0.88 0.2 0 0.9 0.2 0
          0.92 0.2 0 0.94 0.2 0 0.96 0.2 0 0.98 0.2 0
          1 0.2 0 0 0.22 0 0.02 0.22 0 0.04 0.22 0
          0.06 0.22 0 0.08 0.22 0 0.1 0.22 0 0.12 0.22 0
          0.14 0.22 0 0.16 0.22 0 0.18 0.22 0 0.2 0.22 0
          0.22 0.22 0 0.24 0.22 0 0.26 0.22 0 0.28 0.22 0
          0.3 0.22 0 0.32 0.22 0 0.34 0.22 0 0.36 0.22 0
          0.38 0.22 0 0.4 0.22 0 0.42 0.22 0 0.44 0.22 0
          0.46 0.22 0 0.48 0.22 0 0.5 0.22 0 0.52 0.22 0
          0.54 0.22 0 0.56 0.22 0 0.58 0.22 0 0.6 0.22 0
          0.62 0.22 0 0.64 0.22 0 0.66 0.22 0 0.68 0.22 0
          0.7 0.22 0 0.72 0.22 0 0.74 0.22 0 0.76 0.22 0
          0.78 0.22 0 0.8 0.22 0 0.82 0.22 0 0.84 0.22 0
          0.86 0.22 0 0.88 0.22 0 0.9 0.22 0 0.92 0.22 0
          0.94 0.22 0 0.96 0.22 0 0.98 0.22 0 1 0.22 0
          0 0.24 0 0.02 0.24 0 0.04 0.24 0 0.06 0.24 0
          0.08 0.24 0 0.1 0.24 0 0.12 0.24 0 0.14 0.24 0
          0.16 0.24 0 0.18 0.24 0 0.2 0.24 0 0.22 0.24 0
          0.24 0.24 0 0.26 0.24 0 0.28 0.24 0 0.3 0.24 0
          0.32 0.24 0 0.34 0.24 0 0.36 0.24 0 0.38 0.24 0
          0.4 0.24 0 0.42 0.24 0 0.44 0.24 0 0.46 0.24 0
          0.48 0.24 0 0.5 0.24 0 0.52 0.24 0 0.54 0.24 0
          0.56 0.24 0 0.58 0.24 0 0.6 0.24 0 0.62 0.24 0
          0.64 0.24 0 0.66 0.24 0 0.68 0.24 0 0.7 0.24 0
          0.72 0.24 0 0.74 0.24 0 0.76 0.24 0 0.78 0.24 0
          0.8 0.24 0 0.82 0.24 0 0.84 0.24 0 0.86 0.24 0
          0.88 0.24 0 0.9 0.24 0 0.92 0.24 0 0.94 0.24 0
          0.96 0.24 0 0.98 0.24 0 1 0.24 0 0 0.26 0
          0.02 0.26 0 0.04 0.26 0 0.06 0.26 0 0.08 0.26 0
          0.1 0.26 0 0.12 0.26 0 0.14 0.26 0 0.16 0.26 0
          0.18 0.26 0 0.2 0.26 0 0.22 0.26 0 0.24 0.26 0
          0.26 0.26 0 0.28 0.26 0 0.3 0.26 0 0.32 0.26 0
          0.34 0.26 0 0.36 0.26 0 0.38 0.26 0 0.4 0.26 0
          0.42 0.26 0 0.44 0.26 0 0.46 0.26 0 0.48 0.26 0
          0.5 0.26 0 0.52 0.26 0 0.54 0.26 0 0.56 0.26 0
          0.58 0.26 0 0.6 0.26 0 0.62 0.26 0 0.64 0.26 0
          0.66 0.26 0 0.68 0.26 0 0.7 0.26 0 0.72 0.26 0
          0.74 0.26 0 0.76 0.26 0 0.78 0.26 0 0.8 0.26 0
          0.82 0.26 0 0.84 0.26 0 0.86 0.26 0 0.88 0.26 0
          0.9 0.26 0 0.92 0.26 0 0.94 0.26 0 0.96 0.26 0
          0.98 0.26 0 1 0.26 0 0 0.28 0 0.02 0.28 0
          0.04 0.28 0 0.06 0.28 0 0.08 0.28 0 0.1 0.28 0
          0.12 0.28 0 0.14 0.28 0 0.16 0.28 0 0.18 0.28 0
          0.2 0.28 0 0.22 0.28 0 0.24 0.28 0 0.26 0.28 0
          0.28 0.28 0 0.3 0.28 0 0.32 0.28 0 0.34 0.28 0
          0.36 0.28 0 0.38 0.28 0 0.4 0.28 0 0.42 0.28 0
          0.44 0.28 0 0.46 0.28 0 0.48 0.28 0 0.5 0.28 0
          0.52 0.28 0 0.54 0.28 0 0.56 0.28 0 0.58 0.28 0
          0.6 0.28 0 0.62 0.28 0 0.64 0.28 0 0.66 0.28 0
          0.68 0.28 0 0.7 0.28 0 0.72 0.28 0 0.74 0.28 0
          0.76 0.28 0 0.78 0.28 0 0.8 0.28 0 0.82 0.28 0
          0.84 0.28 0 0.86 0.28 0 0.88 0.28 0 0.9 0.28 0
          0.92 0.28 0 0.94 0.28 0 0.96 0.28 0 0.98 0.28 0
          1 0.28 0 0 0.3 0 0.02 0.3 0 0.04 0.3 0
          0.06 0.3 0 0.08 0.3 0 0.1 0.3 0 0.12 0.3 0
          0.14 0.3 0 0.16 0.3 0 0.18 0.3 0 0.2 0.3 0
          0.22 0.3 0 0.24 0.3 0 0.26 0.3 0 0.28 0.3 0
          0.3 0.3 0 0.32 0.3 0 0.34 0.3 0 0.36 0.3 0
          0.38 0.3 0 0.4 0.3 0 0.42 0.3 0 0.44 0.3 0
          0.46 0.3 0 0.48 0.3 0 0.5 0.3 0 0.52 0.3 0
          0.54 0.3 0 0.56 0.3 0 0.58 0.3 0 0.6 0.3 0
          0.62 0.3 0 0.64 0.3 0 0.66 0.3 0 0.68 0.3 0
          0.7 0.3 0 0.72 0.3 0 0.74 0.3 0 0.76 0.3 0
          0.78 0.3 0 0.8 0.3 0 0.82 0.3 0 0.84 0.3 0
          0.86 0.3 0 0.88 0.3 0 0.9 0.3 0 0.92 0.3 0
          0.94 0.3 0 0.96 0.3 0 0.98 0.3 0 1 0.3 0
          0 0.32 0 0.02 0.32 0 0.04 0.32 0 0.06 0.32 0
          0.08 0.32 0 0.1 0.32 0 0.12 0.32 0 0.14 0.32 0
          0.16 0.32 0 0.18 0.32 0 0.2 0.32 0 0.22 0.32 0
          0.24 0.32 0 0.26 0.32 0 0.28 0.32 0 0.3 0.32 0
          0.32 0.32 0 0.34 0.32 0 0.36 0.32 0 0.38 0.32 0
          0.4 0.32 0 0.42 0.32 0 0.44 0.32 0 0.46 0.32 0
          0.48 0.32 0 0.5 0.32 0 0.52 0.32 0 0.54 0.32 0
          0.56 0.32 0 0.58 0.32 0 0.6 0.32 0 0.62 0.32 0
          0.64 0.32 0 0.66 0.32 0 0.68 0.32 0 0.7 0.32 0
          0.72 0.32 0 0.74 0.32 0 0.76 0.32 0 0.78 0.32 0
          0.8 0.32 0 0.82 0.32 0 0.84 0.32 0 0.86 0.32 0
          0.88 0.32 0 0.9 0.32 0 0.92 0.32 0 0.94 0.32 0
          0.96 0.32 0 0.98 0.32 0 1 0.32 0 0 0.34 0
          0.02 0.34 0 0.04 0.34 0 0.06 0.34 0 0.08 0.34 0
          0.1 0.34 0 0.12 0.34 0 0.14 0.34 0 0.16 0.34 0
          0.18 0.34 0 0.2 0.34 0 0.22 0.34 0 0.24 0.34 0
          0.26 0.34 0 0.28 0.34 0 0.3 0.34 0 0.32 0.34 0
          0.34 0.34 0 0.36 0.34 0 0.38 0.34 0 0.4 0.34 0
          0.42 0.34 0 0.44 0.34 0 0.46 0.34 0 0.48 0.34 0
          0.5 0.34 0 0.52 0.34 0 0.54 0.34 0 0.56 0.34 0
          0.58 0.34 0 0.6 0.34 0 0.62 0.34 0 0.64 0.34 0
          0.66 0.34 0 0.68 0.34 0 0.7 0.34 0 0.72 0.34 0
          0.74 0.34 0 0.76 0.34 0 0.78 0.34 0 0.8 0.34 0