<?xml version="1.0"?>
<VTKFile type="UnstructuredGrid" version="0.1" byte_order="LittleEndian">
  <UnstructuredGrid>
    <Piece NumberOfCells="2174" NumberOfPoints="8696">
      <PointData Scalars="S_aq">
        <DataArray type="Float32" Name="S_aq" NumberOfComponents="1" format="ascii">
          0.5 0.998831 0.5 0.998826 0.998831 0.5 0.998826 0.999595 0.5 0.5 0.998826 0.5
          0.5 0.998826 0.5 0.5 0.5 0.5 0.998831 0.5 0.5 0.5 0.998831 0.5
          0.5 0.998831 0.998826 0.5 0.998831 0.998826 0.5 0.999549 0.998826 1 0.999595 1
          0.998831 0.998826 1 0.999595 1 1 0.999595 1 1 0.998826 0.999828 1
          0.998826 1 0.999828 0.999549 0.999549 1 0.998831 0.998826 1 1 0.999828 0.999549
          1 1 1 0.999549 0.998826 0.5 0.5 0.998816 0.999828 0.998826 0.5 0.998816
          0.5 0.5 0.998816 0.5 0.998826 0.999828 0.5 0.999549 0.5 0.5 0.998816 0.5
          0.5 0.999828 0.998816 0.999549 0.5 0.998816 0.5 0.999549 1 1 0.999828 0.999549
          0.999828 0.998816 0.999549 0.999734 0.999828 0.999549 1 0.999734 0.5 0.998831 0.5 0.99838
          0.5 0.5 0.99838 0.5 0.999549 0.998831 0.99838 0.5 0.5 0.99838 0.5 0.5
          0.99838 0.5 0.5 0.998759 0.5 0.5 0.99838 0.999549 0.999374 0.999549 0.99838 0.5
          0.999549 0.998831 1 1 0.999549 0.99838 0.998831 1 1 1 1 0.999549
          1 1 1 0.999549 0.99838 0.999549 0.999374 1 1 1 0.999549 0.999374
          0.5 0.5 0.5 0.999549 0.5 0.5 0.5 0.999549 1 1 1 1
          1 1 1 1 1 1 1 1 1 1 1 1
          1 1 1 1 1 1 1 1 1 1 1 1
          1 1 1 1 1 1 1 1 1 1 1 1
          1 1 1 1 1 1 1 1 1 1 1 1
          1 1 1 1 1 1 1 0.999549 1 1 1 1
          1 1 1 1 1 1 1 1 1 1 1 1
          1 1 1 1 1 0.999549 1 1 1 1 1 1
          1 1 1 0.999549 1 1 1 1 1 1 1 1
          1 1 1 1 1 1 1 1 1 1 1 1
          0.999549 1 1 0.999734 1 1 0.999549 1 0.999549 1 1 1
          1 1 1 1 0.999191 0.5 0.5 0.998816 0.999191 0.5 0.5 0.5
          0.5 0.5 0.999191 0.5 0.998816 0.999191 0.5 0.999734 0.5 0.5 0.999191 0.999734
          0.999828 1 0.998816 0.999734 1 0.999191 0.998816 0.999734 1 0.999191 1 0.999734
          0.998816 0.5 0.999549 0.999734 0.5 0.999191 0.5 0.998564 0.5 0.5 0.5 0.998564
          0.5 0.999191 0.998564 0.999237 0.5 0.5 0.998564 0.999237 1 1 0.999191 0.999734
          0.999191 1 0.998564 0.999237 0.5 0.999191 0.999237 0.999734 1 0.999237 0.999191 0.999734
          0.999734 1 1 0.999237 0.5 0.999549 0.5 0.999734 0.5 0.5 0.5 0.999734
          0.5 0.5 0.5 0.999549 0.5 0.999549 0.5 0.999499 0.5 0.999499 0.999549 0.999734
          0.999549 0.999499 1 0.999734 0.5 0.999237 0.5 0.999734 0.5 0.5 0.5 0.999237
          0.5 0.5 0.5 0.999237 0.5 0.999499 0.5 0.999237 1 1 1 0.999237
          0.5 0.999237 0.999499 0.999734 0.999499 0.999237 1 0.999734 1 1 1 0.999734
          1 1 1 0.999734 1 1 1 0.999734 1 1 1 0.999734
          1 1 1 1 1 1 1 1 0.999734 1 1 1
          1 1 1 0.999734 1 1 1 1 1 1 1 1
          1 1 1 1 1 1 0.999549 0.999734 1 1 1 0.999734
          1 1 1 0.999734 1 0.999499 1 0.999734 1 1 1 1
          0.999237 1 1 0.999734 0.999499 1 1 0.999734 1 1 1 1
          1 1 1 1 1 1 1 1 1 1 1 1
          0.5 0.5 0.5 0.998759 0.99838 0.998759 0.999374 0.5 0.5 0.5 0.5 0.998759
          0.5 0.5 0.998759 0.998864 0.5 0.5 0.998759 0.999374 0.5 0.998864 0.998759 0.999374
          0.999374 0.998759 0.99838 1 1 0.998759 1 0.999374 0.998759 1 1 0.999374
          1 0.998759 0.998864 0.999374 1 0.999374 1 1 0.5 0.5 0.5 0.999374
          0.5 0.999549 0.5 0.999374 0.5 0.5 0.5 0.999374 0.5 0.5 0.999499 0.999374
          0.999549 0.999374 1 1 0.999549 0.999499 0.5 0.999374 0.999499 0.999374 0.999549 1
          1 0.999374 0.999499 1 0.5 0.5 0.998864 0.5 0.5 0.998864 0.5 1
          0.998864 0.5 0.5 0.999374 0.998864 0.5 1 0.999374 0.5 1 0.5 0.999374
          0.5 0.998864 1 1 0.998864 1 1 1 0.5 0.5 1 1
          1 1 1 0.5 1 0.998864 0.999374 1 1 1 1 0.999374
          0.998864 1 1 1 1 0.998864 1 1 1 1 1 1
          1 1 1 1 1 0.999374 0.998864 1 0.5 1 1 0.999374
          0.5 1 0.5 0.999374 0.5 0.5 1 1 1 0.5 1 0.999374
          1 0.5 1 1 0.5 1 1 1 1 1 1 0.999374
          1 0.999374 1 1 1 1 1 0.999374 1 1 1 0.999374
          1 1 1 0.999374 1 1 1 0.999374 1 1 1 1
          1 1 1 1 1 1 1 1 1 1 1 1
          1 1 1 1 1 1 1 1 1 1 1 1
          1 1 1 1 1 1 1 1 1 1 1 1
          1 1 1 1 1 1 1 1 1 1 1 1
          1 1 1 1 1 1 1 1 1 1 1 1
          1 1 1 1 1 1 1 1 1 1 1 1
          1 1 1 1 1 1 1 1 1 1 1 1
          1 1 1 1 1 1 1 1 1 1 1 1
          1 1 1 1 1 1 1 1 0.5 0.5 0.5 0.999499
          0.5 0.5 0.5 0.999499 0.5 0.5 0.5 0.999499 0.5 0.999499 0.999237 0.99924
          0.5 0.5 0.5 0.99924 0.5 0.999499 0.5 0.99924 1 0.999237 0.999499 0.99924
          0.999499 1 1 0.99924 0.5 0.999499 1 0.999374 0.5 1 0.5 1
          0.5 1 0.5 0.999499 0.5 1 1 1 1 0.5 1 1
          1 0.999499 1 0.999374 1 1 1 0.999499 0.5 1 0.999499 0.99924
          0.5 1 0.5 0.99924 0.5 1 1 0.99924 1 0.5 1 1
          0.5 0.5 1 1 0.5 1 1 1 1 0.999499 1 0.99924
          1 0.999499 1 1 1 1 0.999499 0.99924 1 1 1 0.99924
          1 1 1 0.999499 1 1 1 0.99924 1 0.999499 0.999549 1
          1 1 0.999499 1 1 1 0.999499 1 1 1 1 1
          1 1 1 1 1 1 1 1 1 1 1 1
          1 1 1 1 1 0.999499 1 1 1 1 0.999499 1
          1 1 1 1 1 1 1 1 1 1 1 1
          1 0.999499 1 1 1 1 1 1 1 1 1 1
          1 1 1 1 1 1 1 1 1 1 1 1
          1 1 1 1 1 1 1 1 1 1 1 1
          1 1 1 1 1 1 1 1 1 1 1 1
          1 1 1 1 1 1 1 1 1 1 1 1
          1 1 1 1 1 1 1 1 1 1 1 1
          1 1 1 1 1 1 1 1 1 1 1 1
          1 1 1 1 1 1 1 1 1 1 1 1
          1 1 1 1 1 1 1 1 1 1 1 1
          1 1 1 1 1 1 1 1 1 1 1 1
          1 1 1 1 1 1 1 1 1 1 1 1
          1 1 1 1 1 1 1 1 1 1 1 1
          1 1 1 1 1 1 1 1 1 1 1 1
          1 1 1 1 1 1 1 1 1 1 1 1
          1 1 1 1 1 1 1 1 1 1 1 1
          1 1 1 1 1 1 1 1 1 1 1 1
          1 1 1 1 1 1 1 1 1 1 1 1
          1 1 1 1 1 1 1 1 1 1 1 1
          1 1 1 1 1 1 1 1 1 1 1 1
          1 1 1 1 1 1 1 1 1 1 1 1
          1 1 1 1 1 1 1 1 1 1 1 1
          1 1 1 1 1 1 1 1 1 1 1 1
          1 1 1 1 1 1 1 1 1 1 1 1
          1 1 1 1 1 1 1 1 1 1 1 1
          1 1 1 1 1 1 1 1 1 1 1 1
          1 1 1 1 1 1 1 1 1 1 1 1
          1 1 1 1 1 1 1 1 1 1 1 1
          1 1 1 1 1 1 1 1 1 1 1 1
          1 1 1 1 1 1 1 1 1 1 1 1
          1 1 1 1 1 1 1 1 1 1 1 1
          1 1 1 1 1 1 1 1 1 1 1 1
          1 1 1 1 1 1 1 1 1 1 1 1
          1 1 1 1 1 1 1 1 1 1 1 1
          1 1 1 1 1 1 1 1 1 1 1 1
          1 1 1 1 1 1 1 1 1 1 1 1
          1 1 1 1 1 1 1 1 1 1 1 1
          1 1 1 1 1 1 1 1 1 1 1 1
          1 1 1 1 1 1 1 1 1 1 1 1
          1 1 1 1 1 1 1 1 1 1 1 1
          1 1 1 1 1 1 1 1 1 1 1 1
          1 1 1 1 1 1 1 1 1 1 1 1
          1 1 1 1 1 1 1 1 1 1 1 1
          1 1 1 1 1 1 1 1 1 1 1 1
          1 1 1 1 1 1 1 1 1 1 1 1
          1 1 1 1 1 1 1 1 1 1 1 1
          1 1 1 1 1 1 1 1 1 1 1 1
          1 1 1 1 1 1 1 1 1 1 1 1
          1 1 1 1 1 1 1 1 1 1 1 1
          1 1 1 1 1 1 1 1 1 1 1 1
          1 1 1 1 1 1 1 1 1 1 1 1
          1 1 1 1 1 1 1 1 1 1 1 1
          1 1 1 1 1 1 1 1 1 1 1 1
          1 1 1 1 1 1 1 1 1 1 1 1
          1 1 1 1 1 1 1 1 1 1 1 1
          1 1 1 1 1 1 1 1 1 1 1 1
          1 1 1 1 1 1 1 1 1 1 1 1
          1 1 1 1 1 1 1 1 1 1 1 1
          1 1 1 1 1 1 1 1 1 1 1 1
          1 1 1 1 1 1 1 1 1 1 1 1
          1 1 1 1 1 1 1 1 1 1 1 1
          1 1 1 1 1 1 1 1 1 1 1 1
          1 1 1 1 1 1 1 1 1 1 1 1
          1 1 1 1 1 1 1 1 1 1 1 1
          1 1 1 1 1 1 1 1 1 1 1 1
          1 1 1 1 1 1 1 1 1 1 1 1
          1 1 1 1 1 1 1 1 1 1 1 1
          1 1 1 1 1 1 1 1 1 1 1 1
          1 1 1 1 1 1 1 1 1 1 1 1
          1 1 1 1 1 1 1 1 1 1 1 1
          1 1 1 1 1 1 1 1 1 1 1 1
          1 1 1 1 1 1 1 1 1 1 1 1
          1 1 1 1 1 1 1 1 1 1 1 1
          1 1 1 1 1 1 1 1 1 1 1 1
          1 1 1 1 1 1 1 1 1 1 1 1
          1 1 1 1 1 1 1 1 1 1 1 1
          1 1 1 1 1 1 1 1 1 1 1 1
          1 1 1 1 1 1 1 1 1 1 1 1
          1 1 1 1 1 1 1 1 1 1 1 1
          1 1 1 1 1 1 1 1 1 1 1 1
          1 1 1 1 1 1 1 1 1 1 1 1
          1 1 1 1 1 1 1 1 1 1 1 1
          1 1 1 1 1 1 1 1 1 1 1 1
          1 1 1 1 1 1 1 1 1 1 1 1
          1 1 1 1 1 1 1 1 1 1 1 1
          1 1 1 1 1 1 1 1 1 1 1 1
          1 1 1 1 1 1 1 1 1 1 1 1
          1 1 1 1 1 1 1 1 1 1 1 1
          1 1 1 1 1 1 1 1 1 1 1 1
          1 1 1 1 1 1 1 1 1 1 1 1
          1 1 1 1 1 1 1 1 1 1 1 1
          1 1 1 1 1 1 1 1 1 1 1 1
          1 1 1 1 1 1 1 1 1 1 1 1
          1 1 1 1 1 1 1 1 1 1 1 1
          1 1 1 1 1 1 1 1 1 1 1 1
          1 1 1 1 1 1 1 1 1 1 1 1
          1 1 1 1 1 1 1 1 1 1 1 1
          1 1 1 1 1 1 1 1 1 1 1 1
          1 1 1 1 1 1 1 1 1 1 1 1
          1 1 1 1 0.5 0.5 0.998564 0.5 0.5 0.5 0.998564 0.5
          0.5 0.998564 0.5 0.999124 0.5 0.999237 0.998564 0.999268 0.5 0.998564 0.999124 0.999268
          0.5 0.5 0.998564 0.999268 0.998564 1 0.999124 0.999268 0.999124 1 1 0.999268
          0.998564 0.999237 1 0.999268 0.999268 1 1 1 0.5 0.5 0.5 0.999124
          0.998657 0.5 0.5 0.999124 0.5 0.5 0.998657 0.5 0.5 0.999124 0.998657 0.999268
          0.5 0.5 0.998657 0.999268 0.998657 0.999124 1 0.999268 0.999124 1 1 0.999268
          0.998657 1 1 0.999268 0.999268 0.5 0.5 0.999237 0.999268 0.5 0.5 0.5
          0.5 0.999237 0.999268 0.99924 0.5 0.5 0.5 0.999268 0.999268 1 1 0.999237
          1 1 1 0.999268 1 0.999268 0.999237 0.99924 0.5 0.5 0.5 0.999268
          0.5 0.999782 0.5 0.999268 0.5 0.5 0.5 0.999268 0.5 0.999782 0.5 0.999268
          1 1 0.999782 0.999268 0.999782 1 1 0.999268 1 0.999518 0.999782 0.999268
          0.999782 0.999518 0.5 0.999268 1 1 1 1 1 1 1 1
          1 1 1 1 1 1 1 1 1 1 1 1
          1 1 1 1 1 1 1 1 1 1 1 1
          1 1 1 1 1 1 1 1 1 1 1 1
          1 1 1 0.999268 1 1 1 1 1 1 1 1
          1 1 1 1 1 1 1 1 0.999782 1 1 1
          0.999782 1 1 1 1 1 1 1 1 1 1 1
          1 1 1 1 1 1 1 1 0.5 0.998657 0.5 0.5
          0.998657 0.998876 0.5 0.5 0.5 0.998657 0.5 0.5 0.998657 0.999524 0.5 0.999268
          0.998657 0.5 0.5 0.999524 0.998876 0.5 0.998657 0.999524 0.998876 0.998657 1 0.999524
          1 0.998876 1 0.999524 1 1 1 0.999524 0.998657 1 0.999524 0.999268
          0.999524 1 0.999268 1 0.998876 0.5 0.5 0.5 0.998876 0.5 0.5 0.5
          0.5 0.998614 0.998876 0.5 0.998614 0.999589 0.998876 0.5 0.5 0.5 0.998876 0.999524
          0.998614 0.5 0.998876 0.999524 0.998614 0.5 0.5 0.999524 0.998614 0.5 0.5 0.5
          0.5 0.998614 0.5 0.5 1 1 0.998876 0.999524 0.999589 1 1 0.998876
          0.999589 1 0.998614 0.998876 0.999589 1 1 1 1 0.998614 0.998876 0.999524
          1 1 0.998614 0.999524 1 1 1 0.999524 0.5 0.5 0.999782 0.999524
          0.5 0.5 0.5 0.999524 0.5 0.5 0.5 0.999524 0.5 0.5 0.999369 0.999524
          0.5 0.999524 0.999782 0.999268 0.999524 0.999268 1 0.999782 0.5 0.999369 0.999782 0.999524
          0.5 0.998146 0.5 0.999524 0.998614 0.998146 0.5 0.999524 0.998614 0.5 0.5 0.998146
          0.5 0.5 0.998146 0.5 0.5 0.5 0.998146 0.5 0.998146 0.5 0.5 0.998924
          0.998146 0.998924 0.5 0.999524 1 0.998146 0.998614 0.999524 1 1 1 0.999524
          1 1 1 0.999524 1 1 0.999524 0.999782 0.999782 0.999369 1 0.999524
          1 0.998924 0.998146 0.999524 0.999524 0.998924 1 1 1 1 1 0.999524
          1 0.999782 1 1 1 1 0.999782 0.999524 1 1 1 1
          1 1 1 1 1 1 1 1 1 1 1 1
          1 1 1 1 1 1 0.999524 1 1 1 1 1
          1 1 1 1 1 1 1 1 1 1 1 1
          1 0.999524 1 1 1 0.999524 1 1 1 1 1 1
          1 1 1 1 1 1 1 1 1 1 1 1
          1 1 1 1 1 1 1 1 1 1 0.999782 1
          0.999782 1 1 0.999524 0.999524 1 1 0.999782 1 1 1 1
          1 1 0.999524 1 1 1 0.999524 1 1 1 1 1
          0.999524 1 1 1 1 1 1 1 1 1 1 1
          1 1 1 1 1 1 1 1 1 1 1 1
          0.5 0.5 0.5 0.99924 0.5 0.999268 0.5 0.99924 0.5 0.5 0.5 0.99924
          0.5 0.5 0.999518 0.99924 0.999518 0.999268 1 0.99924 1 1 1 0.99924
          1 0.999518 1 0.99924 0.5 0.5 0.5 0.999518 0.5 0.999782 0.5 0.999518
          0.5 0.5 0.5 0.999518 0.5 0.999268 0.999518 0.99924 0.5 0.5 1 0.99924
          1 0.5 0.999518 0.99924 0.5 1 1 0.99924 0.5 1 1 0.99924
          1 1 1 0.99924 1 0.999518 1 0.99924 1 1 1 0.99924
          1 1 1 0.99924 1 1 1 0.99924 0.5 0.5 1 1
          0.5 0.5 1 0.999518 0.5 1 1 0.999518 1 0.5 1 1
          1 0.5 1 1 1 1 1 0.999518 1 1 1 0.999518
          1 1 1 1 1 1 1 1 1 1 1 1
          1 1 1 1 1 1 1 1 1 1 1 1
          1 1 0.999782 0.999518 0.999782 0.999518 1 1 1 1 1 0.999518
          1 1 1 1 1 1 1 1 1 1 1 1
          1 1 1 0.99924 1 1 1 1 1 1 1 1
          1 1 1 1 1 1 1 1 1 1 1 1
          1 1 1 0.999518 1 1 0.999518 1 1 1 1 1
          1 1 1 0.999518 1 1 1 1 1 1 1 1
          1 1 1 1 1 1 1 1 0.5 0.5 0.5 0.999369
          0.5 0.5 0.999518 0.999369 0.5 0.5 0.5 0.999369 0.5 0.999518 0.999782 0.999369
          0.999782 0.999369 0.999518 1 1 0.999369 0.999782 1 0.998924 0.999369 0.5 0.999524
          0.5 0.998924 0.5 0.999369 0.5 0.5 0.5 0.998924 0.5 0.998924 0.998865 0.999369
          0.5 0.5 0.5 0.998924 0.5 0.998865 0.5 0.998924 0.999524 1 0.998924 0.999369
          1 0.999369 1 1 1 1 0.998924 0.999369 0.998865 0.998924 1 0.999369
          1 0.5 0.5 1 1 0.999518 0.5 0.999369 0.5 1 0.5 0.999369
          0.5 1 1 0.999369 1 0.5 1 1 1 0.5 1 1
          1 1 0.999518 0.999369 0.999518 0.999369 1 1 1 0.999369 1 1
          1 1 1 0.999369 1 1 1 0.999369 0.5 1 0.998865 0.5
          0.5 0.998865 1 0.999369 0.5 1 1 0.999369 0.998865 0.5 0.5 0.5
          0.5 1 0.998865 0.5 0.5 0.5 1 1 0.5 1 1 1
          1 1 1 0.5 0.998865 1 1 0.999369 1 0.5 0.998865 1
          0.998865 1 1 1 1 1 0.998865 1 0.998865 1 1 0.999369
          1 1 0.999369 1 1 1 1 0.999369 1 1 1 1
          1 0.998865 1 1 1 1 1 1 1 1 0.999782 1
          0.999782 1 1 1 1 1 1 1 1 1 1 1
          1 0.999782 1 1 1 1 1 1 1 1 1 1
          1 1 1 1 1 1 1 1 1 1 1 1
          1 1 1 1 1 1 1 1 1 1 1 1
          1 0.999518 1 1 1 1 1 1 1 1 1 1
          1 1 1 1 1 1 1 1 1 1 1 1
          1 1 1 1 1 1 1 1 1 1 1 1
          1 1 1 1 1 1 1 1 1 1 1 1
          1 1 1 1 1 1 1 1 1 1 1 1
          1 1 1 1 1 1 1 1 1 1 1 1
          1 1 1 1 1 1 1 1 1 1 1 1
          1 1 1 1 1 1 1 1 1 1 1 1
          1 1 1 1 1 1 1 1 1 1 1 1
          1 1 1 1 1 1 1 1 1 1 1 1
          1 1 1 1 1 1 1 1 1 1 1 1
          1 1 1 1 1 1 1 1 1 1 1 1
          1 1 1 1 1 1 1 1 1 1 1 1
          1 1 1 1 1 1 1 1 1 1 1 1
          1 1 1 1 1 1 1 1 1 1 1 1
          1 1 1 1 1 1 1 1 1 1 1 1
          1 1 1 1 1 1 1 1 1 1 1 1
          1 1 1 1 1 1 1 1 1 1 1 1
          1 1 1 1 1 1 1 1 1 1 1 1
          1 1 1 1 1 1 1 1 1 1 1 1
          1 1 1 1 1 1 1 1 1 1 1 1
          1 1 1 1 1 1 1 1 1 1 1 1
          1 1 1 1 1 1 1 1 1 1 1 1
          1 1 1 1 1 1 1 1 1 1 1 1
          1 1 1 1 1 1 1 1 1 1 1 1
          1 1 1 1 1 1 1 1 1 1 1 1
          1 1 1 1 1 1 1 1 1 1 1 1
          1 1 1 1 1 1 1 1 1 1 1 1
          1 1 1 1 1 1 1 1 1 1 1 1
          1 1 1 1 1 1 1 1 1 1 1 1
          1 1 1 1 1 1 1 1 1 1 1 1
          1 1 1 1 1 1 1 1 1 1 1 1
          1 1 1 1 1 1 1 1 1 1 1 1
          1 1 1 1 1 1 1 1 1 1 1 1
          1 1 1 1 1 1 1 1 1 1 1 1
          1 1 1 1 1 1 1 1 1 1 1 1
          1 1 1 1 1 1 1 1 1 1 1 1
          1 1 1 1 1 1 1 1 1 1 1 1
          1 1 1 1 1 1 1 1 1 1 1 1
          1 1 1 1 1 1 1 1 1 1 1 1
          1 1 1 1 1 1 1 1 1 1 1 1
          1 1 1 1 1 1 1 1 1 1 1 1
          1 1 1 1 1 1 1 1 1 1 1 1
          1 1 1 1 1 1 1 1 1 1 1 1
          1 1 1 1 1 1 1 1 1 1 1 1
          1 1 1 1 1 1 1 1 1 1 1 1
          1 1 1 1 1 1 1 1 1 1 1 1
          1 1 1 1 1 1 1 1 1 1 1 1
          1 1 1 1 1 1 1 1 1 1 1 1
          1 1 1 1 1 1 1 1 1 1 1 1
          1 1 1 1 1 1 1 1 1 1 1 1
          1 1 1 1 1 1 1 1 1 1 1 1
          1 1 1 1 1 1 1 1 1 1 1 1
          1 1 1 1 1 1 1 1 1 1 1 1
          1 1 1 1 1 1 1 1 1 1 1 1
          1 1 1 1 1 1 1 1 1 1 1 1
          1 1 1 1 1 1 1 1 1 1 1 1
          1 1 1 1 1 1 1 1 1 1 1 1
          1 1 1 1 1 1 1 1 1 1 1 1
          1 1 1 1 1 1 1 1 1 1 1 1
          1 1 1 1 1 1 1 1 1 1 1 1
          1 1 1 1 1 1 1 1 1 1 1 1
          1 1 1 1 1 1 1 1 1 1 1 1
          1 1 1 1 1 1 1 1 1 1 1 1
          1 1 1 1 1 1 1 1 1 1 1 1
          1 1 1 1 1 1 1 1 1 1 1 1
          1 1 1 1 1 1 1 1 1 1 1 1
          1 1 1 1 1 1 1 1 1 1 1 1
          1 1 1 1 1 1 1 1 1 1 1 1
          1 1 1 1 1 1 1 1 1 1 1 1
          1 1 1 1 1 1 1 1 1 1 1 1
          1 1 1 1 1 1 1 1 1 1 1 1
          1 1 1 1 1 1 1 1 1 1 1 1
          1 1 1 1 1 1 1 1 1 1 1 1
          1 1 1 1 1 1 1 1 1 1 1 1
          1 1 1 1 1 1 1 1 1 1 1 1
          1 1 1 1 1 1 1 1 1 1 1 1
          1 1 1 1 1 1 1 1 1 1 1 1
          1 1 1 1 1 1 1 1 1 1 1 1
          1 1 1 1 1 1 1 1 1 1 1 1
          1 1 1 1 1 1 1 1 1 1 1 1
          1 1 1 1 1 1 1 1 1 1 1 1
          1 1 1 1 1 1 1 1 1 1 1 1
          1 1 1 1 1 1 1 1 1 1 1 1
          1 1 1 1 1 1 1 1 1 1 1 1
          1 1 1 1 1 1 1 1 1 1 1 1
          1 1 1 1 1 1 1 1 1 1 1 1
          1 1 1 1 1 1 1 1 1 1 1 1
          1 1 1 1 1 1 1 1 1 1 1 1
          1 1 1 1 1 1 1 1 1 1 1 1
          1 1 1 1 1 1 1 1 1 1 1 1
          1 1 1 1 1 1 1 1 1 1 1 1
          1 1 1 1 1 1 1 1 1 1 1 1
          1 1 1 1 1 1 1 1 1 1 1 1
          1 1 1 1 1 1 1 1 1 1 1 1
          1 1 1 1 1 1 1 1 1 1 1 1
          1 1 1 1 1 1 1 1 1 1 1 1
          1 1 1 1 1 1 1 1 1 1 1 1
          1 1 1 1 1 1 1 1 1 1 1 1
          1 1 1 1 1 1 1 1 1 1 1 1
          1 1 1 1 1 1 1 1 1 1 1 1
          1 1 1 1 1 1 1 1 1 1 1 1
          1 1 1 1 1 1 1 1 0.998864 0.5 1 1
          1 0.998864 1 1 1 1 0.5 1 0.5 0.5 1 1
          0.998864 0.5 0.5 1 0.5 0.5 0.998864 0.5 0.5 0.998864 0.5 0.999372
          0.998864 1 0.5 0.999372 0.5 0.5 1 0.999372 0.998864 1 1 1
          1 0.998864 1 1 1 1 1 1 1 1 1 1
          1 0.998864 0.999372 1 1 0.999372 0.998864 1 1 1 1 0.999372
          0.5 1 1 1 1 1 1 0.5 1 0.5 1 0.5
          1 1 0.5 0.999372 0.5 1 0.5 0.999372 0.5 1 1 0.999372
          1 1 1 0.999372 1 1 1 0.999372 1 1 1 0.999372
          1 1 1 0.999372 1 1 1 0.999372 1 1 0.999372 1
          0.5 0.998757 0.5 0.998864 0.5 0.5 0.998757 0.5 0.5 0.998757 0.998864 0.999372
          0.5 0.5 0.998757 0.999372 0.5 0.5 0.998757 0.5 0.998757 0.998378 0.999372 0.5
          0.998757 1 0.998864 0.999372 0.998757 1 1 0.999372 1 1 0.999372 1
          0.998757 0.999372 0.998378 1 1 0.998757 1 0.999372 0.5 0.5 0.5 0.999372
          0.5 0.5 0.999497 0.999372 0.5 0.5 0.5 0.999372 0.5 0.99955 0.5 0.999372
          1 0.999497 0.999372 1 1 0.999372 0.99955 1 0.5 0.999497 0.99955 0.999372
          0.99955 0.999372 0.999497 1 1 1 1 1 1 1 1 1
          1 1 1 1 1 1 1 1 1 1 1 1
          1 1 1 1 1 1 1 1 1 1 1 1
          1 1 1 1 1 1 1 1 1 1 1 1
          1 1 1 1 1 1 1 1 1 1 1 1
          1 1 1 1 1 1 1 1 1 1 1 1
          1 1 1 1 1 1 1 1 1 1 1 1
          1 1 1 1 1 1 1 1 1 1 1 1
          1 1 1 1 1 1 1 1 1 1 1 1
          1 1 1 1 1 1 0.5 1 1 0.5 0.5 1
          1 1 0.5 1 0.5 1 0.999497 0.999372 0.5 0.5 1 0.999497
          1 1 1 0.999497 1 0.999497 1 0.999372 0.5 1 1 1
          1 0.5 1 1 1 0.5 0.5 1 0.5 1 1 0.999236
          0.5 0.999497 1 0.999236 0.5 1 0.5 0.999236 1 1 1 0.999497
          1 1 1 0.999236 1 1 0.999497 0.999236 1 0.999497 1 1
          1 1 1 0.999236 0.999497 1 1 0.999236 0.5 0.5 0.5 0.999497
          0.5 0.5 0.5 0.999497 0.5 0.99955 0.5 0.999497 0.5 0.5 0.5 0.999236
          0.5 0.999497 0.5 0.999236 0.5 0.5 0.5 0.999497 0.5 0.999235 0.999497 0.999236
          1 1 0.999497 0.999236 0.999497 0.999235 1 0.999236 1 1 1 1
          1 1 1 1 1 0.999497 1 1 1 1 1 1
          1 1 1 1 1 1 1 1 1 1 1 1
          1 1 1 1 1 1 1 1 1 1 1 1
          1 1 1 1 1 1 1 1 1 1 1 1
          1 1 1 1 1 1 1 1 1 1 0.999497 1
          1 0.999497 1 1 0.99955 0.999497 1 1 1 1 1 1
          1 1 1 1 1 1 1 1 1 1 1 1
          1 1 1 1 1 1 0.999497 1 1 0.999497 1 1
          1 1 1 1 1 1 1 1 0.998378 0.5 0.5 0.998757
          0.5 0.5 0.998378 0.5 0.99955 0.999372 0.998378 0.5 0.998378 0.5 0.5 0.99955
          0.5 0.5 0.998378 0.5 0.5 0.998832 0.5 0.998378 0.99955 0.998378 0.998832 0.5
          1 1 1 0.99955 0.99955 0.998378 0.999372 1 1 1 0.99955 0.999372
          0.99955 0.998832 0.998378 1 0.99955 1 0.998832 1 1 1 1 0.99955
          0.5 0.5 0.5 0.99955 0.5 0.5 0.5 0.99955 0.5 0.998832 0.5 0.5
          0.998832 0.5 0.5 0.5 0.5 0.998832 0.998822 0.5 0.998832 0.5 0.998822 0.99955
          0.998822 0.998832 0.5 0.5 0.998832 0.999594 0.998822 0.5 0.5 0.5 0.998822 0.5
          0.5 0.998822 0.5 0.5 0.99955 0.998832 1 0.998822 0.99983 1 0.998822 0.99955
          1 1 1 0.99955 0.99983 1 1 0.99955 0.998832 0.999594 1 0.998822
          0.999594 1 0.998822 1 1 0.999594 1 1 1 0.99983 0.998822 1
          0.5 0.99983 0.998822 0.99955 0.5 0.5 0.998783 0.5 0.5 0.5 0.998783 0.99955
          0.5 0.998783 0.99983 0.99955 0.5 0.998783 0.5 0.998822 0.998783 0.5 0.99983 0.998822
          0.5 0.5 0.998783 0.5 0.998783 0.99983 0.99955 0.999736 1 0.99955 0.99983 0.999736
          0.99983 1 1 0.99955 1 1 1 1 1 1 1 0.99955
          1 1 1 1 1 1 1 1 1 1 0.99955 1
          1 1 1 1 1 1 1 1 1 1 1 1
          1 1 1 1 0.99955 1 1 1 1 1 0.99955 1
          1 1 0.99955 0.999736 1 1 1 1 1 1 1 1
          1 1 1 1 1 1 1 1 1 1 1 1
          1 1 1 1 1 1 1 1 1 1 1 1
          1 1 1 1 1 1 1 1 1 1 1 1
          1 1 1 1 1 1 1 1 1 1 1 0.99955
          1 1 1 1 1 1 1 1 1 1 1 1
          1 1 1 1 1 1 1 1 1 1 1 1
          0.5 0.5 0.5 0.99955 0.5 0.99955 0.5 0.999736 0.5 0.5 0.5 0.999736
          0.5 0.99955 0.999497 0.999736 1 0.999497 0.99955 0.999736 0.5 0.5 0.5 0.999235
          0.5 0.5 0.999497 0.999235 0.999235 0.5 0.999736 0.5 0.5 0.5 0.5 0.999235
          0.999235 0.999736 0.5 0.999497 1 0.999235 0.999497 0.999736 1 1 1 0.999235
          0.5 0.5 0.998783 0.5 0.5 0.999736 0.998783 0.5 0.5 0.998783 0.999736 0.999309
          0.5 0.999309 0.998783 0.5 0.999309 0.5 0.5 0.5 0.5 0.998783 0.99955 0.999736
          0.998783 1 0.99983 0.999736 0.999309 1 0.998783 0.999736 0.999309 1 1 0.999736
          0.999309 0.5 0.998555 0.999235 0.998555 0.5 0.5 0.999235 0.998555 0.999309 0.5 0.5
          0.5 0.998555 0.5 0.5 0.999309 0.5 0.999235 0.999736 1 0.999309 0.999235 0.999736
          0.999736 1 1 0.999235 1 1 0.999309 0.999736 0.999309 0.998555 1 0.999235
          0.99955 1 1 0.999736 0.999497 1 1 0.999736 1 1 1 0.999736
          1 1 1 0.999736 1 1 1 1 1 0.999497 1 0.999736
          1 1 0.999235 0.999736 1 1 1 1 1 1 1 1
          1 1 1 1 1 1 1 1 1 1 1 0.999736
          1 1 1 0.999736 1 1 1 0.999736 1 1 1 0.999736
          1 1 1 1 0.999736 1 1 1 1 1 1 0.999736
          1 1 1 1 1 1 1 1 1 1 1 1
          1 1 1 1 1 1 1 1 1 1 1 1
          1 1 1 1 1 1 1 1 1 1 1 1
          1 1 1 1 1 1 1 1 1 1 1 1
          1 1 1 1 1 1 1 1 1 1 1 1
          1 1 1 1 1 1 1 1 1 1 1 1
          1 1 1 1 1 1 1 1 1 1 1 1
          1 1 1 1 1 1 1 1 1 1 1 1
          1 1 1 1 1 1 1 1 1 1 1 1
          1 1 1 1 1 1 1 1 1 1 1 1
          1 1 1 1 1 1 1 1 1 1 1 1
          1 1 1 1 1 1 1 1 1 1 1 1
          1 1 1 1 1 1 1 1 1 1 1 1
          1 1 1 1 1 1 1 1 1 1 1 1
          1 1 1 1 1 1 1 1 1 1 1 1
          1 1 1 1 1 1 1 1 1 1 1 1
          1 1 1 1 1 1 1 1 1 1 1 1
          1 1 1 1 1 1 1 1 1 1 1 1
          1 1 1 1 1 1 1 1 1 1 1 1
          1 1 1 1 1 1 1 1 1 1 1 1
          1 1 1 1 1 1 1 1 1 1 1 1
          1 1 1 1 1 1 1 1 1 1 1 1
          1 1 1 1 1 1 1 1 1 1 1 1
          1 1 1 1 1 1 1 1 1 1 1 1
          1 1 1 1 1 1 1 1 1 1 1 1
          1 1 1 1 1 1 1 1 1 1 1 1
          1 1 1 1 1 1 1 1 1 1 1 1
          1 1 1 1 1 1 1 1 1 1 1 1
          1 1 1 1 1 1 1 1 1 1 1 1
          1 1 1 1 1 1 1 1 1 1 1 1
          1 1 1 1 1 1 1 1 1 1 1 1
          1 1 1 1 1 1 1 1 1 1 1 1
          1 1 1 1 1 1 1 1 1 1 1 1
          1 1 1 1 1 1 1 1 1 1 1 1
          1 1 1 1 1 1 1 1 1 1 1 1
          1 1 1 1 1 1 1 1 1 1 1 1
          1 1 1 1 1 1 1 1 1 1 1 1
          1 1 1 1 1 1 1 1 1 1 1 1
          1 1 1 1 1 1 1 1 1 1 1 1
          1 1 1 1 1 1 1 1 1 1 1 1
          1 1 1 1 1 1 1 1 1 1 1 1
          1 1 1 1 1 1 1 1 1 1 1 1
          1 1 1 1 1 1 1 1 1 1 1 1
          1 1 1 1 1 1 1 1 1 1 1 1
          1 1 1 1 1 1 1 1 1 1 1 1
          1 1 1 1 1 1 1 1 1 1 1 1
          1 1 1 1 1 1 1 1 1 1 1 1
          1 1 1 1 1 1 1 1 1 1 1 1
          1 1 1 1 1 1 1 1 1 1 1 1
          1 1 1 1 1 1 1 1 1 1 1 1
          1 1 1 1 1 1 1 1 1 1 1 1
          1 1 1 1 1 1 1 1 1 1 1 1
          1 1 1 1 1 1 1 1 1 1 1 1
          1 1 1 1 1 1 1 1 1 1 1 1
          1 1 1 1 1 1 1 1 1 1 1 1
          1 1 1 1 1 1 1 1 1 1 1 1
          1 1 1 1 1 1 1 1 1 1 1 1
          1 1 1 1 1 1 1 1 1 1 1 1
          1 1 1 1 1 1 1 1 1 1 1 1
          1 1 1 1 1 1 1 1 1 1 1 1
          1 1 1 1 1 1 1 1 1 1 1 1
          1 1 1 1 1 1 1 1 1 1 1 1
          1 1 1 1 1 1 1 1 1 1 1 1
          1 1 1 1 1 1 1 1 1 1 1 1
          1 1 1 1 1 1 1 1 1 1 1 1
          1 1 1 1 1 1 1 1 1 1 1 1
          1 1 1 1 1 1 1 1 1 1 1 1
          1 1 1 1 1 1 1 1 1 1 1 1
          1 1 1 1 1 1 1 1 1 1 1 1
          1 1 1 1 1 1 1 1 1 1 1 1
          1 1 1 1 1 1 1 1 1 1 1 1
          1 1 1 1 1 1 1 1 1 1 1 1
          1 1 1 1 1 1 1 1 1 1 1 1
          1 1 1 1 1 1 1 1 1 1 1 1
          1 1 1 1 1 1 1 1 1 1 1 1
          1 1 1 1 1 1 1 1 1 1 1 1
          1 1 1 1 1 1 1 1 1 1 1 1
          1 1 1 1 1 1 1 1 1 1 1 1
          1 1 1 1 1 1 1 1 1 1 1 1
          1 1 1 1 1 1 1 1 1 1 1 1
          1 1 1 1 1 1 1 1 1 1 1 1
          1 1 1 1 1 1 1 1 1 1 1 1
          1 1 1 1 1 1 1 1 1 1 1 1
          1 1 1 1 1 1 1 1 1 1 1 1
          1 1 1 1 1 1 1 1 1 1 1 1
          1 1 1 1 1 1 1 1 1 1 1 1
          1 1 1 1 1 1 1 1 1 1 1 1
          1 1 1 1 1 1 1 1 1 1 1 1
          1 1 1 1 1 1 1 1 1 1 1 1
          1 1 1 1 1 1 1 1 1 1 1 1
          1 1 1 1 1 1 1 1 1 1 1 1
          1 1 1 1 1 1 1 1 1 1 1 1
          1 1 1 1 1 1 1 1 1 1 1 1
          1 1 1 1 1 1 1 1 1 1 1 1
          1 1 1 1 0.5 1 0.5 1 1 1 0.5 1
          0.5 1 0.5 0.999236 0.5 1 1 0.999236 0.5 1 0.999444 0.999236
          1 1 1 0.999236 1 1 1 0.999236 1 1 1 0.999236
          1 1 0.999444 0.999236 1 1 0.5 1 0.5 1 1 0.5
          0.5 1 1 1 1 0.5 0.5 0.999444 1 1 0.5 0.999444
          1 1 1 0.999444 1 1 1 0.999444 0.5 0.5 0.5 0.999236
          0.5 0.5 0.999444 0.999236 0.5 0.5 0.5 0.999236 0.999236 0.999265 0.5 0.5
          0.999236 0.5 0.999265 0.999444 1 1 1 0.999236 1 0.999444 1 0.999236
          1 0.999265 0.999444 0.999236 0.5 0.5 0.5 0.999444 0.5 0.5 0.5 0.999444
          1 1 1 1 1 1 1 0.999236 1 1 1 1
          1 1 1 1 1 1 1 1 1 1 1 1
          1 1 1 1 1 1 1 1 1 1 1 0.999444
          1 1 1 1 1 1 1 1 1 1 1 1
          1 1 1 1 1 1 1 1 1 1 1 1
          1 1 1 1 1 1 1 1 1 1 1 1
          1 1 1 1 1 1 1 0.999444 1 0.999444 1 1
          0.999826 1 1 0.999444 1 0.999444 0.999826 1 1 1 1 1
          1 1 1 1 1 1 1 1 1 1 0.5 1
          1 1 1 0.5 0.5 1 1 0.5 1 0.5 0.999444 0.999354
          1 0.5 0.5 0.999354 1 1 0.5 0.999354 1 1 1 0.999354
          1 1 1 0.999354 1 0.999444 1 0.999354 1 0.999354 0.999444 1
          1 0.999354 1 1 1 0.5 1 1 1 1 0.5 1
          1 1 0.5 0.5 0.5 0.998729 1 1 0.5 1 0.998729 1
          1 0.998729 1 1 1 1 0.998729 1 0.998729 0.5 0.5 0.999354
          0.999354 0.5 1 0.5 0.5 1 0.998729 0.999354 1 0.5 0.5 0.998729
          0.5 0.5 0.998729 0.5 1 1 1 1 1 1 1 1
          1 1 0.998729 1 1 0.998729 1 0.999354 1 1 1 0.999354
          1 1 0.999354 1 0.5 0.5 0.999444 0.999354 0.5 0.5 0.5 0.999354
          0.5 0.5 0.5 0.999354 0.999826 0.999444 0.5 0.999354 0.999444 0.999354 0.999826 1
          0.999826 0.999354 1 1 0.998729 0.998922 0.5 0.999354 0.998729 0.5 0.5 0.998922
          0.5 0.5 0.998922 0.5 0.5 0.998922 0.5 0.999354 0.5 0.999354 0.998922 0.999473
          0.5 0.5 0.998922 0.5 1 0.999354 1 1 1 0.998922 0.998729 0.999354
          1 1 0.998922 0.999354 1 0.999473 0.998922 0.999354 1 1 1 1
          1 1 1 1 1 1 1 1 1 1 1 1
          1 1 1 1 1 1 1 1 1 1 1 1
          1 1 1 1 1 1 1 1 1 1 1 1
          1 1 1 1 1 1 1 1 1 1 1 1
          1 1 1 1 1 1 1 1 1 1 1 1
          1 1 1 1 1 1 1 1 0.999826 1 1 1
          1 1 0.999826 1 1 1 1 1 1 1 1 1
          1 1 1 1 1 0.999826 1 1 1 1 1 1
          1 1 1 1 1 1 1 1 1 1 1 1
          1 1 1 1 1 1 1 1 1 1 1 1
          0.5 0.999265 0.999235 0.999236 0.5 0.5 0.5 0.999265 0.5 0.999265 0.5 0.999235
          0.5 0.999265 0.5 0.5 1 0.999235 0.999265 0.999236 0.999265 1 1 0.999235
          1 1 1 0.999265 0.5 0.5 0.5 0.999265 0.5 0.5 0.999444 0.999265
          0.5 0.999826 0.5 0.999265 0.5 0.5 0.5 0.999265 0.999826 0.999444 1 0.999265
          1 1 0.999826 0.999265 0.5 0.999444 0.999826 0.999265 1 0.999826 1 0.999265
          0.998555 0.999235 0.5 0.999265 0.5 0.998555 0.5 0.999265 0.998555 0.5 0.998938 0.999265
          0.5 0.998555 0.5 0.5 0.998555 0.5 0.5 0.5 0.998555 0.5 0.5 0.998938
          0.998555 1 0.999235 0.999265 0.999265 1 1 1 0.998555 0.998938 1 0.999265
          1 1 0.998938 0.999265 0.5 0.5 0.5 0.998938 0.5 0.5 0.998938 0.999265
          0.998726 0.5 0.999473 0.999265 0.5 0.998726 0.998938 0.999265 0.5 0.5 0.5 0.998938
          0.5 0.5 0.998938 0.998726 1 0.998938 0.998726 0.999265 1 1 0.998938 0.999265
          1 0.998726 1 0.999265 1 1 1 1 1 1 1 1
          1 1 1 1 1 1 1 1 1 1 0.999826 1
          1 1 0.999826 1 1 1 1 1 1 1 1 1
          1 1 1 1 1 1 1 1 1 1 1 1
          1 1 1 1 1 1 1 1 1 1 1 1
          1 1 1 1 1 1 1 1 1 1 1 1
          1 1 1 1 1 1 1 0.999265 1 1 1 1
          1 1 1 1 1 1 1 1 0.5 0.5 0.5 0.999473
          0.5 0.5 0.999354 0.999473 0.5 0.999826 0.5 0.999473 0.5 0.5 0.5 0.999473
          0.999826 0.999354 0.5 0.999473 0.999826 0.999473 0.5 0.999265 0.999473 1 0.999265 0.999826
          0.998922 0.5 0.5 0.998146 0.5 0.5 0.998146 0.5 0.998922 0.998146 0.5 0.999473
          0.5 0.998146 0.5 0.999473 0.998146 0.998614 0.5 0.999473 0.5 0.998146 0.5 0.5
          0.998146 0.5 0.5 0.998614 1 0.999354 0.999826 0.999473 1 0.998146 0.998922 0.999473
          0.998922 0.999473 1 1 1 0.999826 1 0.999473 1 0.998614 0.998146 0.999473
          1 1 1 0.999473 1 1 1 0.999473 0.5 0.5 0.5 0.998726
          0.5 0.998726 0.5 0.999473 0.5 0.998873 0.998726 0.999473 0.5 0.5 0.5 0.998726
          0.5 0.5 0.998873 0.998726 1 0.998726 0.999473 0.999265 0.999473 0.999265 1 1
          1 0.998726 0.998873 0.999473 1 1 0.998873 0.999473 1 1 1 0.999473
          0.5 0.5 0.998614 0.999473 0.5 0.998873 0.5 0.999473 0.5 0.998614 0.998873 0.999473