<?xml version="1.0"?>
<VTKFile type="UnstructuredGrid" version="0.1" byte_order="LittleEndian">
  <UnstructuredGrid>
    <Piece NumberOfCells="1928" NumberOfPoints="999">
      <CellData Scalars="x^tracer_0">
        <DataArray type="Float32" Name="x^tracer_0" NumberOfComponents="1" format="ascii">
          0 0 0 0 0 0 0 0 0 0 0 0
          0 0 0 0 0 0 0 0 0 0 0 0
          0 0 0 0 0 0 0 0 0 0 0 0
          0 0 0 0 0 0 0 0 0 0 0 0
          0 0 0 0 0 0 0 0 0 0 0 0
          0 0 0 0 0 0 0 0 0 0 0 0
          0 0 0 0 0 0 0 0 0 0 0 0
          0 0 0 0 0 0 0 0 0 0 0 0
          0 0 0 0 0 0 0 0 0 0 0 0
          0 0 0 0 0 0 0 0 0 0 0 0
          0 0 0 0 0 0 0 0 0 0 0 0
          0 0 0 0 0 0 0 0 0 0 0 0
          0 0 0 0 0 0 0 0 0 0 0 0
          0 0 0 0 0 0 0 0 0 0 0 0
          0 0 0 0 0 0 0 0 0 0 0 0
          0 0 0 0 0 0 0 0 0 0 0 0
          0 0 0 0 0 0 0 0 0 0 0 0
          0 0 0 0 0 0 0 0 0 0 0 0
          0 0 0 0 0 0 0 0 0 0 0 0
          0 0 0 0 0 0 0 0 0 0 0 0
          0 0 0 0 0 0 0 0 0 0 0 0
          0 0 0 0 0 0 0 0 0 0 0 0
          0 0 0 0 0 0 0 0 0 0 0 0
          0 0 0 0 0 0 0 0 0 0 0 0
          0 0 0 0 0 0 0 0 0 0 0 0
          0 0 0 0 0 0 0 0 0 0 0 0
          0 0 0 0 0 0 0 0 0 0 0 0
          0 0 0 0 0 0 0 0 0 0 0 0
          0 0 0 0 0 0 0 0 0 0 0 0
          0 0 0 0 0 0 0 0 0 0 0 0
          0 0 0 0 0 0 0 0 0 0 0 0
          0 0 0 0 0 0 0 0 0 0 0 0
          0 0 0.0668279 0.0833496 0 0 0.165266 0 0.183225 0.325136 0.351872 0.184003
          0.147317 0.162665 0.0286402 0 0 0 0 0 0 0 0 0.055401
          0.0415301 0 0 0 0 0 0 0 0.0110803 3.93134e-08 2.07603e-05 3.18619e-10
          2.1823e-07 1.40507e-09 0.276898 0.284776 0.230606 0.38377 0.348423 0.0758324 0.177697 0.274746 0.160552 0.108256
          0.0118683 0.102006 0.0617528 0.0191013 0.000137846 0.000102037 1.10788e-06 0.000336987 3.08229e-06 1.94699e-08 8.2142e-09 0.000222246
          2.50498e-06 1.38225e-10 2.12584e-08 5.64288e-11 0 0 0 0 0 0 0 0
          0 0.0134449 0.000597277 0.000201328 0 0 0 6.54999e-06 0 0 0 0
          0 0 0 0 0 0 0 0 0 0 0 0
          0 0 0 0 0 0.00519189 5.74141e-05 8.66641e-06 0.000941909 3.87508e-05 1.45954e-06 0
          1.53438e-07 1.91561e-05 1.8309e-07 8.84163e-06 6.18013e-08 1.26535e-06 5.62858e-09 3.14846e-07 1.82668e-09 2.94438e-11 1.0338e-12 9.40242e-12
          1.14401e-09 9.6211e-11 5.93006e-15 4.24978e-17 4.7205e-14 2.91383e-16 0 0 0 0 1.17341e-06 1.95543e-06
          1.84156e-08 1.00453e-10 8.92503e-12 0 2.52441e-07 9.7254e-09 1.71687e-09 5.48192e-14 3.09993e-16 7.3104e-08 5.00333e-13 2.62327e-15
          6.63224e-14 2.62353e-16 9.46579e-19 3.62292e-18 1.14886e-20 1.21553e-19 3.25173e-17 1.77239e-19 1.32995e-18 8.96538e-09 4.04297e-22 8.82887e-10
          2.01874e-24 0 0 0 0 0 0 0 0 0 0 0
          0 0 0 0 0 0 0 0 0 0 0 0
          0 0 0 0 0 0 0 0 0 0 0 0
          0 0 0 0 0 0 0 0 0 0 0 0
          0 0 0 0 0 0 0 0 0 0 0 0
          0 0 0 0 0 0 0 0 0 0 0 0
          0 0 0 0 0 0 0 0 0 0 0 0
          0 0 0 0 0 0 0 0 0 0 0 0
          0 0 0 0 0 0 0 0 0 0 0 0
          0 0 0 0 0 0 0 0 0 0 0 0
          0 0 0 0 0 0 0 0 0 0 0 0
          0 0 0 0 0 0 0 0 0 0 0 0
          0 0 0 0 0 0 0 0 0 0 0 0
          0 0 0 0 0 0 0 0 0 0 0 0
          0 0 0 0 0 1.44546e-08 0 5.18823e-09 0 0 0 2.74987e-09
          1.28417e-09 5.22995e-11 1.01526e-07 7.42358e-10 9.24282e-08 2.34947e-10 4.7051e-12 5.64961e-14 5.80157e-08 6.15891e-10 3.42589e-08 6.0361e-12
          1.63291e-12 2.01496e-14 5.62939e-14 3.39973e-16 2.68662e-12 4.0417e-16 2.33401e-14 9.76441e-12 1.02485e-13 5.45379e-13 1.03686e-15 3.52275e-18
          5.6207e-17 3.46319e-18 6.18179e-19 8.79413e-18 7.92312e-20 4.4902e-21 7.56741e-22 3.80969e-10 1.41735e-10 1.25621e-12 2.74057e-12 3.33906e-14
          2.83402e-16 1.1223e-14 7.04256e-11 9.57305e-13 6.80878e-13 1.07815e-13 1.18995e-14 1.96871e-15 3.19524e-17 1.5967e-16 3.68309e-18 3.13504e-20
          1.01336e-17 1.02249e-19 4.6733e-23 2.3849e-22 3.35694e-24 2.8808e-26 3.72048e-28 3.21234e-19 3.5872e-20 1.28711e-21 1.27374e-23 1.45037e-21
          1.38487e-23 0 0 0 0 0 0 0 0 0 0 0
          0 0 0 0 1.85085e-11 1.3126e-12 4.1761e-10 0 2.19368e-10 0 4.47459e-11 5.99747e-12
          8.22671e-14 2.37877e-12 2.31748e-14 0 0 0 0 0 0 0 0 0
          0 0 0 0 0 0 0 0 1.56014e-11 1.12566e-13 4.78851e-13 4.71315e-15
          8.06639e-16 2.84631e-12 2.11226e-14 1.00875e-12 6.94201e-15 1.06801e-18 1.49996e-16 3.11327e-17 1.69547e-14 5.97655e-16 1.19563e-15 7.73118e-17
          5.13453e-20 1.10371e-18 6.78596e-18 2.99751e-16 1.99454e-18 7.31938e-22 2.93238e-20 2.74176e-22 2.97907e-22 7.00055e-21 8.41752e-23 9.80704e-25
          2.27111e-24 7.70837e-27 3.17057e-26 8.63317e-29 7.66132e-24 7.59431e-26 3.05814e-24 3.01505e-26 8.48537e-28 1.02822e-29 1.02791e-31 2.83001e-17
          3.08452e-19 9.70575e-18 2.63538e-21 8.82155e-20 1.9301e-21 2.27695e-23 2.57903e-25 2.69001e-23 2.17605e-25 5.79449e-20 6.16872e-22 5.52497e-22
          7.19332e-21 5.17136e-23 5.94079e-24 2.72774e-26 3.04395e-25 1.57643e-26 3.4022e-28 2.56223e-27 2.19654e-29 1.76754e-27 3.03225e-30 3.16676e-32
          2.25519e-31 2.0538e-33 2.9963e-28 1.48311e-29 2.73376e-30 1.00216e-28 1.37454e-31 1.06262e-33 2.58662e-32 5.57712e-33 9.0273e-31 0
          0 0 0 0 0 0 0 0 0 0 0 0
          0 0 0 0 0 0 0 0 0 0 0 0
          0 0 0 0 0 0 0 0 0 0 0 0
          0 0 0 0 0 0 0 0 0 0 0 0
          0 0 0 0 0 0 0 0 0 0 0 0
          0 0 0 0 0 0 0 0 0 0 0 0
          0 0 0 0 0 0 0 0 0 0 0 0
          0 0 0 0 0 0 0 0 0 0 0 0
          0 0 0 0 0 0 0 1.72749e-36 0 0 0 0
          0 0 0 0 0 2.05902e-37 8.22659e-30 1.14845e-27 0 0 0 3.76266e-35
          0 0 2.24372e-30 3.15424e-24 1.23519e-32 2.63506e-21 3.96604e-22 5.24443e-32 1.85557e-34 4.03275e-26 5.40427e-32 6.75411e-28
          9.56706e-30 3.9671e-25 6.06631e-24 3.24919e-19 1.96465e-21 1.36721e-19 1.91694e-23 7.97398e-22 8.33232e-20 5.56528e-20 0 0
          5.69931e-34 1.49861e-31 1.84611e-31 3.85995e-28 1.36061e-29 1.24709e-27 5.11397e-25 2.93278e-29 1.24736e-24 1.68223e-23 1.72098e-21 3.51779e-23
          1.2084e-21 2.4074e-20 4.84684e-19 7.7428e-24 1.79924e-19 2.27446e-20 1.08729e-21 2.95417e-25 4.93081e-28 1.79523e-26 0 9.64376e-26
          6.12545e-28 4.9128e-18 1.32351e-15 2.57181e-23 2.50917e-14 7.98049e-19 4.22286e-19 9.28444e-17 2.71363e-15 1.52777e-16 1.36906e-14 1.91251e-14
          8.02159e-15 1.27479e-13 5.51975e-16 7.06462e-14 1.51529e-19 1.63543e-18 8.00838e-22 1.12092e-15 9.68768e-15 3.68219e-18 5.43214e-16 3.22083e-16
          7.56081e-18 1.44041e-16 2.96643e-18 6.91536e-20 3.0225e-17 9.65844e-16 1.13185e-17 2.25706e-16 2.66544e-15 7.63055e-17 3.5204e-18 1.68683e-16
          5.33799e-17 1.55934e-18 4.03365e-16 1.60239e-17 8.89411e-17 6.53361e-18 1.87925e-19 2.44494e-18 9.94244e-20 5.25249e-21 1.48643e-22 1.83086e-21
          1.04877e-20 6.48263e-19 1.81269e-19 3.65155e-22 7.52538e-24 3.24662e-24 6.44826e-19 4.90275e-16 3.34679e-21 1.48341e-22 2.15193e-18 1.42781e-20
          2.49677e-15 6.59039e-17 4.86486e-20 2.44374e-18 6.96317e-16 1.03979e-16 7.46081e-19 1.82906e-17 5.86294e-25 1.13644e-26 7.04043e-23 5.57382e-21
          5.93136e-19 8.59181e-25 7.91777e-27 3.4116e-23 3.18638e-21 5.91218e-17 1.41176e-17 2.02104e-18 1.71572e-19 3.63815e-18 8.58899e-18 1.55646e-21
          3.79836e-23 2.76358e-20 1.20461e-24 5.91558e-23 6.74449e-23 1.03316e-24 1.17841e-23 2.11805e-25 3.81702e-26 1.79833e-21 7.82508e-20 1.43852e-20
          2.00916e-23 7.47835e-22 4.17878e-26 1.48671e-24 9.06641e-18 1.0782e-17 1.7758e-18 2.37138e-18 3.75734e-18 8.32164e-19 7.16174e-20 3.50556e-19
          2.68909e-20 1.1659e-21 1.02266e-20 2.97437e-21 2.74018e-22 1.10928e-23 1.91675e-23 1.59104e-22 5.1823e-23 1.48511e-24 3.93146e-25 1.97324e-26
          4.34319e-25 5.25081e-27 2.55965e-28 1.21654e-26 1.02319e-27 4.33996e-28 6.20809e-30 1.40523e-31 8.45296e-27 4.52267e-29 0 0
          0 0 7.16455e-18 0 0 3.01602e-20 1.85944e-12 1.04863e-14 4.62863e-17 1.12557e-19 1.65935e-14 0
          5.42652e-23 1.52236e-25 1.13617e-28 2.00888e-31 3.56438e-22 9.16605e-20 4.93908e-25 1.092e-27 2.57415e-22 1.92644e-25 5.57321e-12 2.21592e-11
          6.10003e-17 7.94495e-14 2.32635e-16 4.85385e-13 2.99944e-13 2.06006e-15 9.38386e-18 1.79665e-19 3.96771e-25 3.22019e-22 7.05263e-19 1.09925e-20
          2.89471e-23 5.91284e-22 2.23353e-27 1.72761e-34 1.0641e-30 1.17075e-33 3.52809e-37 2.78684e-28 6.64161e-32 0 0 5.63279e-35
          3.49247e-38 4.21809e-28 6.26086e-31 1.32575e-24 4.45901e-30 9.88944e-28 1.35404e-30 4.07571e-33 4.77576e-34 3.96068e-37 9.68356e-34 9.30595e-37
          3.30891e-14 1.5931e-16 7.8262e-19 1.54444e-17 1.24578e-19 3.12296e-21 1.34595e-19 3.68936e-22 5.86743e-20 1.06058e-23 1.72038e-22 3.6229e-25
          3.93984e-22 1.34257e-24 3.06711e-27 7.2564e-26 1.56228e-28 2.54036e-30 2.12742e-26 3.98917e-29 8.14094e-32 7.36085e-36 1.17e-24 4.42907e-27
          1.19429e-23 1.05736e-27 8.61642e-30 2.0677e-32 5.17065e-22 3.29882e-26 5.19735e-27 5.4035e-27 7.60987e-11 1.6905e-29 1.98662e-32 2.8016e-30
          4.35217e-33 8.1251e-36 2.57211e-37 1.56939e-34 0 2.75317e-35 5.26389e-38 0 0 0 0 0
          1.62708e-31 2.99851e-34 1.57916e-37 4.01005e-33 1.39307e-36 1.22923e-38 0 0 5.19042e-36 0 0 0
          0 0 0 0 0 0 0 0 0 0 0 0
          0 0 0 0 0 0 0 0 0 0 0 0
          0 0 0 0 0 0 0 0 0 0 0 0
          0 0 0 0 0 0 0 0 0 0 0 0
          0 0 0 0 0 0 0 0 0 0 0 0
          0 0 0 0 0 0 0 0 0 0 0 0
          0 0 0 0 0 0 0 0 0 0 0 0
          0 0 0 0 0 0 0 0 0 0 0 0
          0 0 0 0 0 0 0 0 0 0 7.47159e-13 6.55195e-15
          8.67321e-17 9.00673e-15 7.52263e-12 9.04066e-14 8.8637e-16 1.1272e-17 9.72998e-19 1.04137e-22 7.27688e-24 8.63894e-21 1.30011e-19 1.18177e-24
          2.70839e-23 1.19588e-26 4.63999e-15 4.7167e-13 6.06811e-17 1.03306e-18 5.64299e-15 3.05982e-14 9.69733e-17 7.03832e-18 1.77271e-21 1.33596e-22
          3.10424e-25 3.03123e-27 1.83588e-24 1.16029e-20 9.27687e-22 6.30291e-26 2.91385e-25 6.91365e-26 3.3607e-27 2.94951e-29 2.60807e-31 3.73272e-28
          3.82847e-30 2.64654e-32 3.20613e-30 7.36744e-26 9.75112e-28 1.09951e-25 1.92338e-33 2.20011e-35 9.13831e-30 2.04845e-32 2.80908e-29 2.08972e-31
          6.63817e-28 5.67765e-30 2.40044e-33 6.54221e-32 2.40593e-37 1.9008e-34 2.56161e-35 9.04854e-36 0 0 0 4.52282e-16
          2.25443e-17 8.17419e-20 3.20082e-19 4.44956e-21 1.74625e-15 2.05346e-17 3.89844e-19 9.42184e-24 3.59802e-25 4.44836e-23 3.70747e-23 4.36965e-27
          3.63004e-27 0 7.76527e-17 1.02686e-18 3.42675e-21 1.56582e-20 0 2.28122e-18 4.9337e-22 2.80328e-20 3.72217e-25 8.64004e-26
          9.10179e-24 2.35966e-25 8.99167e-28 1.31116e-29 3.69848e-29 9.70808e-34 4.93566e-35 5.53024e-31 7.23967e-33 7.9474e-35 8.23753e-38 4.84347e-37
          0 0 0 6.75092e-37 0 0 4.32089e-29 3.7964e-31 5.51545e-33 5.7372e-35 1.53974e-31 1.93897e-33
          2.85689e-35 6.67306e-37 0 0 0 2.89925e-37 0 0 0 1.84485e-27 3.72716e-28 2.15726e-29
          9.1788e-30 2.60648e-31 4.43071e-30 4.17889e-32 1.12299e-31 1.17802e-33 4.52898e-34 1.33576e-35 9.08469e-31 1.26267e-32 8.71701e-34 5.45819e-35
          6.52473e-37 7.44892e-36 4.03825e-38 2.17083e-36 2.09346e-38 1.03877e-37 0 0 0 0 0 0
          0 0 0 3.21865e-34 1.8689e-35 1.47134e-36 1.77028e-38 1.70265e-37 0 1.11567e-35 6.0753e-35 1.18366e-31
          1.00588e-37 4.49834e-36 2.02428e-33 0 0 0 0 0 0 0 0 5.51007e-38
          6.32309e-35 0 0 9.52121e-37 0 0 0 0 0 0 0 0
          0 0 0 0 0 0 0 0 0 0 0 0
          0 0 0 0 0 0 0 0 0 0 0 0
          0 0 0 0 0 0 0 0 0 0 0 0
          0 0 0 0 0 8.17134e-20 9.80053e-22 1.51651e-23 0 2.93911e-21 6.44493e-22 1.19358e-23
          5.93177e-25 3.68889e-27 1.90399e-25 4.68691e-29 1.00858e-30 2.69723e-27 1.10691e-28 2.61738e-32 0 0 3.18761e-23 4.79416e-23
          0 4.99179e-25 1.00028e-24 8.55668e-27 1.51172e-28 1.93536e-30 3.60637e-32 1.0688e-26 1.12144e-28 2.142e-30 1.77813e-30 1.15407e-32
          1.27055e-34 1.40008e-36 1.84588e-38 1.07674e-32 1.28628e-34 1.39455e-38 1.06925e-36 0 0 0 0 0
          0 3.1159e-34 4.04559e-36 6.06607e-34 3.80636e-38 0 7.39539e-36 1.3639e-37 0 0 0 0
          0 0 0 8.16997e-27 0 0 1.06113e-26 8.64855e-29 1.78673e-28 2.00098e-30 2.99569e-32 1.24032e-30
          1.53534e-32 0 1.31839e-28 1.69997e-30 0 0 5.41985e-31 2.49845e-32 3.44455e-34 5.43728e-36 1.38884e-34 7.78912e-33
          4.37386e-38 1.61202e-36 4.58321e-34 4.47089e-36 0 5.62325e-38 1.75125e-36 1.43293e-34 0 1.7418e-38 0 0
          0 0 8.05668e-38 0 0 0 0 0 0 0 0 0
          0 0 0 0 0 0 0 0 0 0 0 0
          0 0 0 0 0 0 0 0 0 0 0 0
          0 0 0 0 0 0 0 0 0 0 0 0
          0 0 0 0 0 0 0 0 0 0 0 0
          0 0 0 0 3.82046e-27 6.13394e-29 4.49955e-25 2.41974e-23 8.59874e-31 2.42384e-24 5.79861e-26 1.28691e-21
          6.20988e-20 3.21252e-19 3.1961e-19 6.82311e-19 1.18304e-20 5.04503e-22 4.32633e-20 4.57565e-33 4.67184e-28 1.00092e-29 1.31987e-26 9.95292e-32
          4.27212e-25 1.84755e-23 3.43698e-21 2.88746e-22 4.58339e-28 1.16829e-23 1.2928e-23 5.6846e-25 3.54744e-25 1.27023e-21 6.05662e-23 2.92401e-20
          3.23885e-20 1.40212e-24 3.74706e-26 5.6145e-24 2.11375e-25 3.78332e-27 3.25179e-21 1.14452e-22 1.85994e-22 7.08478e-24 1.79836e-25 4.47584e-27
          4.12096e-27 1.54211e-33 0 2.88124e-35 0 4.12166e-37 1.15802e-29 5.57156e-27 1.54942e-28 0 3.61756e-30 0
          0 0 0 0 5.1823e-32 0 1.09508e-26 2.43727e-28 4.24759e-30 7.10137e-29 1.32297e-33 1.25164e-35
          7.41581e-32 9.09029e-34 1.73872e-35 8.31774e-30 9.45976e-29 1.40134e-30 9.86141e-29 2.00318e-30 1.66211e-32 3.17305e-32 1.62942e-33 1.60113e-34
          1.52165e-30 3.59777e-34 1.9935e-32 2.16753e-37 3.84598e-36 1.34341e-36 4.07037e-38 0 0 0 0 0
          0 0 0 0 1.9456e-37 0 2.99885e-38 0 0 0 0 0
          0 0 0 0 0 0 0 0 0 0 0 0
          0 0 0 0 0 0 0 0
        </DataArray>
        <DataArray type="Float32" Name="X^tracer_0" NumberOfComponents="1" format="ascii">
          0 0 0 0 0 0 0 0 0 0 0 0
          0 0 0 0 0 0 0 0 0 0 0 0
          0 0 0 0 0 0 0 0 0 0 0 0
          0 0 0 0 0 0 0 0 0 0 0 0
          0 0 0 0 0 0 0 0 0 0 0 0
          0 0 0 0 0 0 0 0 0 0 0 0
          0 0 0 0 0 0 0 0 0 0 0 0
          0 0 0 0 0 0 0 0 0 0 0 0
          0 0 0 0 0 0 0 0 0 0 0 0
          0 0 0 0 0 0 0 0 0 0 0 0
          0 0 0 0 0 0 0 0 0 0 0 0
          0 0 0 0 0 0 0 0 0 0 0 0
          0 0 0 0 0 0 0 0 0 0 0 0
          0 0 0 0 0 0 0 0 0 0 0 0
          0 0 0 0 0 0 0 0 0 0 0 0
          0 0 0 0 0 0 0 0 0 0 0 0
          0 0 0 0 0 0 0 0 0 0 0 0
          0 0 0 0 0 0 0 0 0 0 0 0
          0 0 0 0 0 0 0 0 0 0 0 0
          0 0 0 0 0 0 0 0 0 0 0 0
          0 0 0 0 0 0 0 0 0 0 0 0
          0 0 0 0 0 0 0 0 0 0 0 0
          0 0 0 0 0 0 0 0 0 0 0 0
          0 0 0 0 0 0 0 0 0 0 0 0
          0 0 0 0 0 0 0 0 0 0 0 0
          0 0 0 0 0 0 0 0 0 0 0 0
          0 0 0 0 0 0 0 0 0 0 0 0
          0 0 0 0 0 0 0 0 0 0 0 0
          0 0 0 0 0 0 0 0 0 0 0 0
          0 0 0 0 0 0 0 0 0 0 0 0
          0 0 0 0 0 0 0 0 0 0 0 0
          0 0 0 0 0 0 0 0 0 0 0 0
          0 0 0.0011138 0.00138916 0 0 0.00275444 0 0.00305375 0.00541894 0.00586454 0.00306671
          0.00245528 0.00271108 0.000477336 0 0 0 0 0 0 0 0 0.000923349
          0.000692168 0 0 0 0 0 0 0 0.000184672 6.55223e-10 3.46005e-07 5.31031e-12
          3.63717e-09 2.34178e-11 0.00461497 0.00474626 0.00384344 0.00639617 0.00580706 0.00126387 0.00296161 0.00457911 0.00267587 0.00180427
          0.000197805 0.0017001 0.00102921 0.000318355 2.29743e-06 1.70061e-06 1.84646e-08 5.61645e-06 5.13716e-08 3.24498e-10 1.36903e-10 3.7041e-06
          4.17496e-08 2.30376e-12 3.54307e-10 9.40481e-13 0 0 0 0 0 0 0 0
          0 0.000224082 9.95461e-06 3.35546e-06 0 0 0 1.09167e-07 0 0 0 0
          0 0 0 0 0 0 0 0 0 0 0 0
          0 0 0 0 0 8.65315e-05 9.56901e-07 1.4444e-07 1.56985e-05 6.45847e-07 2.43256e-08 0
          2.5573e-09 3.19269e-07 3.0515e-09 1.47361e-07 1.03002e-09 2.10892e-08 9.38097e-11 5.24743e-09 3.04447e-11 4.90729e-13 1.723e-14 1.56707e-13
          1.90669e-11 1.60352e-12 9.88344e-17 7.08297e-19 7.86749e-16 4.85638e-18 0 0 0 0 1.95569e-08 3.25905e-08
          3.06927e-10 1.67422e-12 1.48751e-13 0 4.20735e-09 1.6209e-10 2.86144e-11 9.13654e-16 5.16656e-18 1.2184e-09 8.33889e-15 4.37211e-17
          1.10537e-15 4.37254e-18 1.57763e-20 6.03821e-20 1.91476e-22 2.02589e-21 5.41955e-19 2.95398e-21 2.21658e-20 1.49423e-10 6.73828e-24 1.47148e-11
          3.36456e-26 0 0 0 0 0 0 0 0 0 0 0
          0 0 0 0 0 0 0 0 0 0 0 0
          0 0 0 0 0 0 0 0 0 0 0 0
          0 0 0 0 0 0 0 0 0 0 0 0
          0 0 0 0 0 0 0 0 0 0 0 0
          0 0 0 0 0 0 0 0 0 0 0 0
          0 0 0 0 0 0 0 0 0 0 0 0
          0 0 0 0 0 0 0 0 0 0 0 0
          0 0 0 0 0 0 0 0 0 0 0 0
          0 0 0 0 0 0 0 0 0 0 0 0
          0 0 0 0 0 0 0 0 0 0 0 0
          0 0 0 0 0 0 0 0 0 0 0 0
          0 0 0 0 0 0 0 0 0 0 0 0
          0 0 0 0 0 0 0 0 0 0 0 0
          0 0 0 0 0 2.40909e-10 0 8.64705e-11 0 0 0 4.58312e-11
          2.14028e-11 8.71658e-13 1.69209e-09 1.23726e-11 1.54047e-09 3.91578e-12 7.84184e-14 9.41602e-16 9.66928e-10 1.02648e-11 5.70982e-10 1.00602e-13
          2.72152e-14 3.35827e-16 9.38232e-16 5.66621e-18 4.4777e-14 6.73617e-18 3.89002e-16 1.6274e-13 1.70809e-15 9.08966e-15 1.7281e-17 5.87125e-20
          9.36783e-19 5.77199e-20 1.0303e-20 1.46569e-19 1.32052e-21 7.48366e-23 1.26124e-23 6.34948e-12 2.36226e-12 2.09368e-14 4.56762e-14 5.5651e-16
          4.72337e-18 1.87051e-16 1.17376e-12 1.59551e-14 1.1348e-14 1.79692e-15 1.98325e-16 3.28118e-17 5.32539e-19 2.66116e-18 6.13848e-20 5.22507e-22
          1.68893e-19 1.70415e-21 7.78884e-25 3.97483e-24 5.5949e-26 4.80134e-28 6.2008e-30 5.3539e-21 5.97866e-22 2.14519e-23 2.1229e-25 2.41729e-23
          2.30811e-25 0 0 0 0 0 0 0 0 0 0 0
          0 0 0 0 3.08476e-13 2.18766e-14 6.96016e-12 0 3.65614e-12 0 7.45765e-13 9.99578e-14
          1.37112e-15 3.96462e-14 3.86246e-16 0 0 0 0 0 0 0 0 0
          0 0 0 0 0 0 0 0 2.60023e-13 1.87611e-15 7.98084e-15 7.85525e-17
          1.3444e-17 4.74386e-14 3.52043e-16 1.68125e-14 1.157e-16 1.78001e-20 2.49993e-18 5.18878e-19 2.82578e-16 9.96092e-18 1.99271e-17 1.28853e-18
          8.55755e-22 1.83951e-20 1.13099e-19 4.99585e-18 3.32423e-20 1.2199e-23 4.8873e-22 4.5696e-24 4.96511e-24 1.16676e-22 1.40292e-24 1.63451e-26
          3.78518e-26 1.28473e-28 5.28428e-28 1.43886e-30 1.27689e-25 1.26572e-27 5.09691e-26 5.02508e-28 1.41423e-29 1.7137e-31 1.71318e-33 4.71668e-19
          5.14087e-21 1.61762e-19 4.39229e-23 1.47026e-21 3.21684e-23 3.79492e-25 4.29838e-27 4.48335e-25 3.62674e-27 9.65748e-22 1.02812e-23 9.20828e-24
          1.19889e-22 8.61893e-25 9.90132e-26 4.54623e-28 5.07324e-27 2.62739e-28 5.67033e-30 4.27038e-29 3.6609e-31 2.9459e-29 5.05375e-32 5.27794e-34
          3.75865e-33 3.423e-35 4.99384e-30 2.47185e-31 4.55626e-32 1.67026e-30 2.29089e-33 1.77104e-35 4.31103e-34 9.2952e-35 1.50455e-32 0
          0 0 0 0 0 0 0 0 0 0 0 0
          0 0 0 0 0 0 0 0 0 0 0 0
          0 0 0 0 0 0 0 0 0 0 0 0
          0 0 0 0 0 0 0 0 0 0 0 0
          0 0 0 0 0 0 0 0 0 0 0 0
          0 0 0 0 0 0 0 0 0 0 0 0
          0 0 0 0 0 0 0 0 0 0 0 0
          0 0 0 0 0 0 0 0 0 0 0 0
          0 0 0 0 0 0 0 2.87914e-38 0 0 0 0
          0 0 0 0 0 0 1.3711e-31 1.91409e-29 0 0 0 6.2711e-37
          0 0 3.73954e-32 5.25707e-26 2.05865e-34 4.39176e-23 6.61007e-24 8.74072e-34 3.09261e-36 6.72125e-28 9.00711e-34 1.12569e-29
          1.59451e-31 6.61183e-27 1.01105e-25 5.41532e-21 3.27442e-23 2.27869e-21 3.1949e-25 1.329e-23 1.38872e-21 9.27546e-22 0 0
          9.49886e-36 2.49769e-33 3.07686e-33 6.43326e-30 2.26769e-31 2.07849e-29 8.52328e-27 4.88796e-31 2.07893e-26 2.80372e-25 2.86829e-23 5.86298e-25
          2.014e-23 4.01234e-22 8.07807e-21 1.29047e-25 2.99874e-21 3.79077e-22 1.81215e-23 4.92361e-27 8.21802e-30 2.99205e-28 0 1.60729e-27
          1.02091e-29 8.18799e-20 2.20585e-17 4.28635e-25 4.18195e-16 1.33008e-20 7.0381e-21 1.54741e-18 4.52272e-17 2.54629e-18 2.28177e-16 3.18751e-16
          1.33693e-16 2.12465e-15 9.19958e-18 1.17744e-15 2.52548e-21 2.72572e-20 1.33473e-23 1.86821e-17 1.61461e-16 6.13699e-20 9.05357e-18 5.36805e-18
          1.26014e-19 2.40069e-18 4.94406e-20 1.15256e-21 5.03749e-19 1.60974e-17 1.88641e-19 3.76177e-18 4.44241e-17 1.27176e-18 5.86734e-20 2.81138e-18
          8.89665e-19 2.59889e-20 6.72276e-18 2.67066e-19 1.48235e-18 1.08893e-19 3.13208e-21 4.0749e-20 1.65707e-21 8.75415e-23 2.47739e-24 3.05143e-23
          1.74796e-22 1.08044e-20 3.02115e-21 6.08592e-24 1.25423e-25 5.41104e-26 1.07471e-20 8.17125e-18 5.57799e-23 2.47236e-24 3.58655e-20 2.37968e-22
          4.16128e-17 1.0984e-18 8.10811e-22 4.07289e-20 1.16053e-17 1.73298e-18 1.24347e-20 3.04844e-19 9.77156e-27 1.89406e-28 1.17341e-24 9.2897e-23
          9.8856e-21 1.43197e-26 1.31963e-28 5.68599e-25 5.31063e-23 9.85363e-19 2.35293e-19 3.36839e-20 2.85953e-21 6.06359e-20 1.4315e-19 2.5941e-23
          6.3306e-25 4.60596e-22 2.00768e-26 9.8593e-25 1.12408e-24 1.72193e-26 1.96401e-25 3.53009e-27 6.3617e-28 2.99721e-23 1.30418e-21 2.39752e-22
          3.34859e-25 1.24639e-23 6.96464e-28 2.47785e-26 1.51107e-19 1.797e-19 2.95966e-20 3.9523e-20 6.26223e-20 1.38694e-20 1.19362e-21 5.8426e-21
          4.48181e-22 1.94317e-23 1.70444e-22 4.95728e-23 4.56696e-24 1.8488e-25 3.19458e-25 2.65173e-24 8.63717e-25 2.47518e-26 6.55243e-27 3.28873e-28
          7.23865e-27 8.75136e-29 4.26609e-30 2.02756e-28 1.70531e-29 7.23327e-30 1.03468e-31 2.34205e-33 1.40883e-28 7.53779e-31 0 0
          0 0 1.19409e-19 0 0 5.0267e-22 3.09907e-14 1.74771e-16 7.71438e-19 1.87595e-21 2.76558e-16 0
          9.0442e-25 2.53726e-27 1.89361e-30 3.34813e-33 5.94063e-24 1.52768e-21 8.23181e-27 1.82001e-29 4.29025e-24 3.21073e-27 9.28869e-14 3.6932e-13
          1.01667e-18 1.32416e-15 3.87725e-18 8.08976e-15 4.99906e-15 3.43343e-17 1.56398e-19 2.99442e-21 6.61284e-27 5.36699e-24 1.17544e-20 1.83208e-22
          4.82452e-25 9.85473e-24 3.72255e-29 2.87936e-36 1.77349e-32 1.95124e-35 0 4.64473e-30 1.10694e-33 0 0 9.38798e-37
          0 7.03016e-30 1.04348e-32 2.20959e-26 7.43169e-32 1.64824e-29 2.25673e-32 6.79285e-35 7.9596e-36 0 1.61393e-35 1.55099e-38
          5.51484e-16 2.65516e-18 1.30437e-20 2.57406e-19 2.07631e-21 5.20494e-23 2.24325e-21 6.14894e-24 9.77904e-22 1.76763e-25 2.8673e-24 6.03816e-27
          6.56641e-24 2.23762e-26 5.11186e-29 1.2094e-27 2.6038e-30 4.23393e-32 3.5457e-28 6.64861e-31 1.35682e-33 1.22681e-37 1.95001e-26 7.38178e-29
          1.99048e-25 1.76226e-29 1.43607e-31 3.44616e-34 8.61775e-24 5.49804e-28 8.66225e-29 9.00583e-29 1.26831e-12 2.8175e-31 3.31103e-34 4.66933e-32
          7.25361e-35 1.35418e-37 0 2.61566e-36 0 4.58862e-37 0 0 0 0 0 0
          2.7118e-33 4.99751e-36 0 6.68341e-35 2.32179e-38 0 0 0 8.6507e-38 0 0 0
          0 0 0 0 0 0 0 0 0 0 0 0
          0 0 0 0 0 0 0 0 0 0 0 0
          0 0 0 0 0 0 0 0 0 0 0 0
          0 0 0 0 0 0 0 0 0 0 0 0
          0 0 0 0 0 0 0 0 0 0 0 0
          0 0 0 0 0 0 0 0 0 0 0 0
          0 0 0 0 0 0 0 0 0 0 0 0
          0 0 0 0 0 0 0 0 0 0 0 0
          0 0 0 0 0 0 0 0 0 0 1.24526e-14 1.09199e-16
          1.44554e-18 1.50112e-16 1.25377e-13 1.50678e-15 1.47728e-17 1.87867e-19 1.62166e-20 1.73561e-24 1.21281e-25 1.43982e-22 2.16684e-21 1.96962e-26
          4.51398e-25 1.99314e-28 7.73332e-17 7.86117e-15 1.01135e-18 1.72177e-20 9.40498e-17 5.09969e-16 1.61622e-18 1.17305e-19 2.95452e-23 2.22661e-24
          5.17374e-27 5.05206e-29 3.05979e-26 1.93382e-22 1.54615e-23 1.05049e-27 4.85642e-27 1.15227e-27 5.60117e-29 4.91586e-31 4.34679e-33 6.22121e-30
          6.38078e-32 4.4109e-34 5.34355e-32 1.22791e-27 1.62519e-29 1.83251e-27 3.20564e-35 3.66685e-37 1.52305e-31 3.41408e-34 4.68181e-31 3.48286e-33
          1.10636e-29 9.46276e-32 4.00073e-35 1.09037e-33 0 3.168e-36 4.26936e-37 1.50809e-37 0 0 0 7.53804e-18
          3.75739e-19 1.36237e-21 5.3347e-21 7.41593e-23 2.91041e-17 3.42243e-19 6.49739e-21 1.57031e-25 5.99669e-27 7.41393e-25 6.17912e-25 7.28275e-29
          6.05006e-29 0 1.29421e-18 1.71144e-20 5.71125e-23 2.6097e-22 0 3.80204e-20 8.22282e-24 4.67213e-22 6.20362e-27 1.44001e-27
          1.51697e-25 3.93277e-27 1.49861e-29 2.18527e-31 6.16413e-31 1.61801e-35 8.22611e-37 9.21706e-33 1.20661e-34 1.32457e-36 0 0
          0 0 0 0 0 0 7.20149e-31 6.32734e-33 9.19241e-35 9.56201e-37 2.56624e-33 3.23161e-35
          4.76148e-37 0 0 0 0 0 0 0 0 3.07475e-29 6.21194e-30 3.59544e-31
          1.5298e-31 4.34413e-33 7.38452e-32 6.96482e-34 1.87165e-33 1.96337e-35 7.54831e-36 2.22626e-37 1.51412e-32 2.10445e-34 1.45283e-35 9.09698e-37
          0 1.24149e-37 0 3.61805e-38 0 0 0 0 0 0 0 0
          0 0 0 5.36442e-36 3.11484e-37 2.45224e-38 0 0 0 1.85944e-37 1.01255e-36 1.97277e-33
          0 7.49723e-38 3.37381e-35 0 0 0 0 0 0 0 0 0
          1.05385e-36 0 0 1.58687e-38 0 0 0 0 0 0 0 0
          0 0 0 0 0 0 0 0 0 0 0 0
          0 0 0 0 0 0 0 0 0 0 0 0
          0 0 0 0 0 0 0 0 0 0 0 0
          0 0 0 0 0 1.36189e-21 1.63342e-23 2.52752e-25 0 4.89852e-23 1.07416e-23 1.9893e-25
          9.88628e-27 6.14815e-29 3.17332e-27 7.81152e-31 1.68097e-32 4.49538e-29 1.84486e-30 4.3623e-34 0 0 5.31268e-25 7.99027e-25
          0 8.31965e-27 1.66714e-26 1.42611e-28 2.51954e-30 3.2256e-32 6.01062e-34 1.78134e-28 1.86906e-30 3.57e-32 2.96355e-32 1.92345e-34
          2.11758e-36 2.33347e-38 0 1.79456e-34 2.1438e-36 0 1.78208e-38 0 0 0 0 0
          0 5.19316e-36 6.74265e-38 1.01101e-35 0 0 1.23256e-37 0 0 0 0 0
          0 0 0 1.36166e-28 0 0 1.76856e-28 1.44143e-30 2.97788e-30 3.33497e-32 4.99282e-34 2.06719e-32
          2.5589e-34 0 2.19731e-30 2.83328e-32 0 0 9.03309e-33 4.16408e-34 5.74092e-36 9.06213e-38 2.31473e-36 1.29819e-34
          0 2.6867e-38 7.63868e-36 7.45148e-38 0 0 2.91875e-38 2.38821e-36 0 0 0 0
          0 0 0 0 0 0 0 0 0 0 0 0
          0 0 0 0 0 0 0 0 0 0 0 0
          0 0 0 0 0 0 0 0 0 0 0 0
          0 0 0 0 0 0 0 0 0 0 0 0
          0 0 0 0 0 0 0 0 0 0 0 0
          0 0 0 0 6.36743e-29 1.02232e-30 7.49925e-27 4.0329e-25 1.43312e-32 4.03973e-26 9.66436e-28 2.14484e-23
          1.03498e-21 5.35421e-21 5.32683e-21 1.13718e-20 1.97174e-22 8.40839e-24 7.21054e-22 7.62608e-35 7.78641e-30 1.6682e-31 2.19979e-28 1.65882e-33
          7.1202e-27 3.07925e-25 5.7283e-23 4.81243e-24 7.63898e-30 1.94715e-25 2.15467e-25 9.47433e-27 5.91241e-27 2.11705e-23 1.00944e-24 4.87334e-22
          5.39808e-22 2.33686e-26 6.2451e-28 9.35751e-26 3.52292e-27 6.30553e-29 5.41966e-23 1.90754e-24 3.0999e-24 1.1808e-25 2.99726e-27 7.45974e-29
          6.86826e-29 2.57019e-35 0 4.80206e-37 0 0 1.93004e-31 9.28593e-29 2.58236e-30 0 6.02926e-32 0
          0 0 0 0 8.63716e-34 0 1.82514e-28 4.06211e-30 7.07931e-32 1.18356e-30 2.20495e-35 2.08607e-37
          1.23597e-33 1.51505e-35 2.89786e-37 1.38629e-31 1.57663e-30 2.33557e-32 1.64357e-30 3.33864e-32 2.77018e-34 5.28842e-34 2.7157e-35 2.66855e-36
          2.53608e-32 5.99628e-36 3.3225e-34 0 6.40996e-38 2.23902e-38 0 0 0 0 0 0
          0 0 0 0 0 0 0 0 0 0 0 0
          0 0 0 0 0 0 0 0 0 0 0 0
          0 0 0 0 0 0 0 0
        </DataArray>
        <DataArray type="Float32" Name="rho" NumberOfComponents="1" format="ascii">
          1000 1000 1000 1000 1000 1000 1000 1000 1000 1000 1000 1000
          1000 1000 1000 1000 1000 1000 1000 1000 1000 1000 1000 1000
          1000 1000 1000 1000 1000 1000 1000 1000 1000 1000 1000 1000
          1000 1000 1000 1000 1000 1000 1000 1000 1000 1000 1000 1000
          1000 1000 1000 1000 1000 1000 1000 1000 1000 1000 1000 1000
          1000 1000 1000 1000 1000 1000 1000 1000 1000 1000 1000 1000
          1000 1000 1000 1000 1000 1000 1000 1000 1000 1000 1000 1000
          1000 1000 1000 1000 1000 1000 1000 1000 1000 1000 1000 1000
          1000 1000 1000 1000 1000 1000 1000 1000 1000 1000 1000 1000
          1000 1000 1000 1000 1000 1000 1000 1000 1000 1000 1000 1000
          1000 1000 1000 1000 1000 1000 1000 1000 1000 1000 1000 1000
          1000 1000 1000 1000 1000 1000 1000 1000 1000 1000 1000 1000
          1000 1000 1000 1000 1000 1000 1000 1000 1000 1000 1000 1000
          1000 1000 1000 1000 1000 1000 1000 1000 1000 1000 1000 1000
          1000 1000 1000 1000 1000 1000 1000 1000 1000 1000 1000 1000
          1000 1000 1000 1000 1000 1000 1000 1000 1000 1000 1000 1000
          1000 1000 1000 1000 1000 1000 1000 1000 1000 1000 1000 1000
          1000 1000 1000 1000 1000 1000 1000 1000 1000 1000 1000 1000
          1000 1000 1000 1000 1000 1000 1000 1000 1000 1000 1000 1000
          1000 1000 1000 1000 1000 1000 1000 1000 1000 1000 1000 1000
          1000 1000 1000 1000 1000 1000 1000 1000 1000 1000 1000 1000
          1000 1000 1000 1000 1000 1000 1000 1000 1000 1000 1000 1000
          1000 1000 1000 1000 1000 1000 1000 1000 1000 1000 1000 1000
          1000 1000 1000 1000 1000 1000 1000 1000 1000 1000 1000 1000
          1000 1000 1000 1000 1000 1000 1000 1000 1000 1000 1000 1000
          1000 1000 1000 1000 1000 1000 1000 1000 1000 1000 1000 1000
          1000 1000 1000 1000 1000 1000 1000 1000 1000 1000 1000 1000
          1000 1000 1000 1000 1000 1000 1000 1000 1000 1000 1000 1000
          1000 1000 1000 1000 1000 1000 1000 1000 1000 1000 1000 1000
          1000 1000 1000 1000 1000 1000 1000 1000 1000 1000 1000 1000
          1000 1000 1000 1000 1000 1000 1000 1000 1000 1000 1000 1000
          1000 1000 1000 1000 1000 1000 1000 1000 1000 1000 1000 1000
          1000 1000 1000 1000 1000 1000 1000 1000 1000 1000 1000 1000
          1000 1000 1000 1000 1000 1000 1000 1000 1000 1000 1000 1000
          1000 1000 1000 1000 1000 1000 1000 1000 1000 1000 1000 1000
          1000 1000 1000 1000 1000 1000 1000 1000 1000 1000 1000 1000
          1000 1000 1000 1000 1000 1000 1000 1000 1000 1000 1000 1000
          1000 1000 1000 1000 1000 1000 1000 1000 1000 1000 1000 1000
          1000 1000 1000 1000 1000 1000 1000 1000 1000 1000 1000 1000
          1000 1000 1000 1000 1000 1000 1000 1000 1000 1000 1000 1000
          1000 1000 1000 1000 1000 1000 1000 1000 1000 1000 1000 1000
          1000 1000 1000 1000 1000 1000 1000 1000 1000 1000 1000 1000