<?xml version="1.0"?>
<VTKFile type="UnstructuredGrid" version="0.1" byte_order="LittleEndian">
  <UnstructuredGrid>
    <Piece NumberOfCells="4096" NumberOfPoints="4225">
      <PointData Scalars="S_liq">
        <DataArray type="Float32" Name="S_liq" NumberOfComponents="1" format="ascii">
          1 1 1 1 1 1 1 1 1 1 1 1
          1 1 1 1 1 1 1 1 1 1 1 1
          1 1 1 1 1 1 1 1 1 1 1 1
          1 1 1 1 1 1 1 1 1 1 1 0.973727
          0.8 0.842243 0.8 0.838614 0.8 0.840082 0.8 0.840938 0.8 0.841283 0.8 0.841141
          0.8 0.840169 0.8 0.835861 0.8 0.805747 0.8 0.803411 0.8 0.802605 0.8 0.802046
          0.8 0.801459 0.8 0.800713 0.8 0.799683 0.8 0.798737 0.8 0.808199 0.964922 0.939528
          1 1 1 1 1 1 1 1 1 1 1 1
          1 1 1 1 1 1 1 1 1 1 1 1
          1 1 1 1 1 1 1 1 1 1 1 1
          1 1 1 1 1 1 1 1 1 1 1 1
          1 1 1 1 1 1 1 1 1 1 1 1
          1 1 1 1 1 1 1 1 1 1 0.883186 0.884736
          0.887557 0.888988 0.889566 0.889369 0.887957 0.881381 0.840964 0.83708 0.835842 0.834924 0.833931 0.832659
          0.830865 0.828821 0.837672 0.974438 1 1 1 1 1 1 1 1
          1 1 1 1 1 1 1 1 1 1 1 1
          1 1 1 1 1 1 1 1 1 1 1 1
          1 1 1 1 1 1 1 1 1 1 1 1
          1 1 1 0.968077 0.972995 0.976366 0.978067 0.978764 0.978588 0.97712 0.969942 0.912667
          0.906876 0.904769 0.90305 0.901141 0.898705 0.895269 0.890696 0.899176 1 1 1 1
          1 1 1 1 1 1 1 1 1 1 1 1
          1 1 1 1 1 1 1 1 1 1 1 1
          1 1 1 1 1 1 1 1 1 1 1 1
          1 1 1 1 1 1 1 1 1 1 1 1
          1 1 1 1 1 1 1 1 0.999689 0.998356 0.996381 0.993532
          0.998366 1 1 1 1 1 1 1 1 1 1 1
          1 1 1 1 1 1 1 1 1 1 1 1
          1 1 1 1 1 1 1 1 1 1 1 1
          1 1 1 1 1 1 1 1 1 1 1 1
          1 1 1 1 1 1 1 1 1 1 1 1
          1 1 1 1 1 1 1 1 1 1 1 1
          1 1 1 1 1 1 1 1 1 1 1 1
          1 1 1 1 1 1 1 1 1 1 1 1
          1 1 1 1 1 1 1 1 1 1 1 1
          1 1 1 1 1 1 1 1 1 1 1 1
          1 1 1 1 1 1 1 1 1 1 1 1
          1 1 1 1 1 1 1 1 1 1 1 1
          1 1 1 1 1 1 1 1 1 1 1 1
          1 1 1 1 1 1 1 1 1 1 1 1
          1 1 1 1 1 1 1 1 1 1 1 1
          1 1 1 1 1 1 1 1 1 1 1 1
          1 1 1 1 1 1 1 1 1 1 1 1
          1 1 1 1 1 1 1 1 1 1 1 1
          1 1 1 1 1 1 1 1 1 1 1 1
          1 1 1 1 1 1 1 1 1 1 1 1
          1 1 1 1 1 1 1 1 1 1 1 1
          1 1 1 1 1 1 1 1 1 1 1 1
          1 1 1 1 1 1 1 1 1 1 1 1
          1 1 1 1 1 1 1 1 1 1 1 1
          1 1 1 1 1 1 1 1 1 1 1 1
          1 1 1 1 1 1 1 1 1 1 1 1
          1 1 1 1 1 1 1 1 1 1 1 1
          1 1 1 1 1 1 1 1 1 1 1 1
          1 1 1 1 1 1 1 1 1 1 1 1
          1 1 1 1 1 1 1 1 1 1 1 1
          1 1 1 1 1 1 1 1 1 1 1 1
          1 1 1 1 1 1 1 1 1 1 1 1
          1 1 1 1 1 1 1 1 1 1 1 1
          1 1 1 1 1 1 1 1 1 1 1 1
          1 1 1 1 1 1 1 1 1 1 1 1
          1 1 1 1 1 1 1 1 1 1 1 1
          1 1 1 1 1 1 1 1 1 1 1 1
          1 1 1 1 1 1 1 1 1 1 1 1
          1 1 1 1 1 1 1 1 1 1 1 1
          1 1 1 1 1 1 1 1 1 1 1 1
          1 1 1 1 1 1 1 1 1 1 1 1
          1 1 1 1 1 1 1 1 1 1 1 1
          1 1 1 1 1 1 1 1 1 1 1 1
          1 1 1 1 1 1 1 1 1 1 1 1
          1 1 1 1 1 1 1 1 1 1 1 1
          1 1 1 1 1 1 1 1 1 1 1 1
          1 1 1 1 1 1 1 1 1 1 1 1
          1 1 1 1 1 1 1 1 1 1 1 1
          1 1 1 1 1 1 1 1 1 1 1 1
          1 1 1 1 1 1 1 1 1 1 1 1
          1 1 1 1 1 1 1 1 1 1 1 1
          1 1 1 1 1 1 1 1 1 1 1 1
          1 1 1 1 1 1 1 1 1 1 1 1
          1 1 1 1 1 1 1 1 1 1 1 1
          1 1 1 1 1 1 1 1 1 1 1 1
          1 1 1 1 1 1 1 1 1 1 1 1
          1 1 1 1 1 1 1 1 1 1 1 1
          1 1 1 1 1 1 1 1 1 1 1 1
          1 1 1 1 1 1 1 1 1 1 1 1
          1 1 1 1 1 1 1 1 1 1 1 1
          1 1 1 1 1 1 1 1 1 1 1 1
          1 1 1 1 1 1 1 1 1 1 1 1
          1 1 1 1 1 1 1 1 1 1 1 1
          1 1 1 1 1 1 1 1 1 1 1 1
          1 1 1 1 1 1 1 1 1 1 1 1
          1 1 1 1 1 1 1 1 1 1 1 1
          1 1 1 1 1 1 1 1 1 1 1 1
          1 1 1 1 1 1 1 1 1 1 1 1
          1 1 1 1 1 1 1 1 1 1 1 1
          1 1 1 1 1 1 1 1 1 1 1 1
          1 1 1 1 1 1 1 1 1 1 1 1
          1 1 1 1 1 1 1 1 1 1 1 1
          1 1 1 1 1 1 1 1 1 1 1 1
          1 1 1 1 1 1 1 1 1 1 1 1
          1 1 1 1 1 1 1 1 1 1 1 1
          1 1 1 1 1 1 1 1 1 1 1 1
          1 1 1 1 1 1 1 1 1 1 1 1
          1 1 1 1 1 1 1 1 1 1 1 1
          1 1 1 1 1 1 1 1 1 1 1 1
          1 1 1 1 1 1 1 1 1 1 1 1
          1 1 1 1 1 1 1 1 1 1 1 1
          1 1 1 1 1 1 1 1 1 1 1 1
          1 1 1 1 1 1 1 1 1 1 1 1
          1 1 1 1 1 1 1 1 1 1 1 1
          1 1 1 1 1 1 1 1 1 1 1 1
          1 1 1 1 1 1 1 1 1 1 1 1
          1 1 1 1 1 1 1 1 1 1 1 1
          1 1 1 1 1 1 1 1 1 1 1 1
          1 1 1 1 1 1 1 1 1 1 1 1
          1 1 1 1 1 1 1 1 1 1 1 1
          1 1 1 1 1 1 1 1 1 1 1 1
          1 1 1 1 1 1 1 1 1 1 1 1
          1 1 1 1 1 1 1 1 1 1 1 1
          1 1 1 1 1 1 1 1 1 1 1 1
          1 1 1 1 1 1 1 1 1 1 1 1
          1 1 1 1 1 1 1 1 1 1 1 1
          1 1 1 1 1 1 1 1 1 1 1 1
          1 1 1 1 1 1 1 1 1 1 1 1
          1 1 1 1 1 1 1 1 1 1 1 1
          1 1 1 1 1 1 1 1 1 1 1 1
          1 1 1 1 1 1 1 1 1 1 1 1
          1 1 1 1 1 1 1 1 1 1 1 1
          1 1 1 1 1 1 1 1 1 1 1 1
          1 1 1 1 1 1 1 1 1 1 1 1
          1 1 1 1 1 1 1 1 1 1 1 1
          1 1 1 1 1 1 1 1 1 1 1 1
          1 1 1 1 1 1 1 1 1 1 1 1
          1 1 1 1 1 1 1 1 1 1 1 1
          1 1 1 1 1 1 1 1 1 1 1 1
          1 1 1 1 1 1 1 1 1 1 1 1
          1 1 1 1 1 1 1 1 1 1 1 1
          1 1 1 1 1 1 1 1 1 1 1 1
          1 1 1 1 1 1 1 1 1 1 1 1
          1 1 1 1 1 1 1 1 1 1 1 1
          1 1 1 1 1 1 1 1 1 1 1 1
          1 1 1 1 1 1 1 1 1 1 1 1
          1 1 1 1 1 1 1 1 1 1 1 1
          1 1 1 1 1 1 1 1 1 1 1 1
          1 1 1 1 1 1 1 1 1 1 1 1
          1 1 1 1 1 1 1 1 1 1 1 1
          1 1 1 1 1 1 1 1 1 1 1 1
          1 1 1 1 1 1 1 1 1 1 1 1
          1 1 1 1 1 1 1 1 1 1 1 1
          1 1 1 1 1 1 1 1 1 1 1 1
          1 1 1 1 1 1 1 1 1 1 1 1
          1 1 1 1 1 1 1 1 1 1 1 1
          1 1 1 1 1 1 1 1 1 1 1 1
          1 1 1 1 1 1 1 1 1 1 1 1
          1 1 1 1 1 1 1 1 1 1 1 1
          1 1 1 1 1 1 1 1 1 1 1 1
          1 1 1 1 1 1 1 1 1 1 1 1
          1 1 1 1 1 1 1 1 1 1 1 1
          1 1 1 1 1 1 1 1 1 1 1 1
          1 1 1 1 1 1 1 1 1 1 1 1
          1 1 1 1 1 1 1 1 1 1 1 1
          1 1 1 1 1 1 1 1 1 1 1 1
          1 1 1 1 1 1 1 1 1 1 1 1
          1 1 1 1 1 1 1 1 1 1 1 1
          1 1 1 1 1 1 1 1 1 1 1 1
          1 1 1 1 1 1 1 1 1 1 1 1
          1 1 1 1 1 1 1 1 1 1 1 1
          1 1 1 1 1 1 1 1 1 1 1 1
          1 1 1 1 1 1 1 1 1 1 1 1
          1 1 1 1 1 1 1 1 1 1 1 1
          1 1 1 1 1 1 1 1 1 1 1 1
          1 1 1 1 1 1 1 1 1 1 1 1
          1 1 1 1 1 1 1 1 1 1 1 1
          1 1 1 1 1 1 1 1 1 1 1 1
          1 1 1 1 1 1 1 1 1 1 1 1
          1 1 1 1 1 1 1 1 1 1 1 1
          1 1 1 1 1 1 1 1 1 1 1 1
          1 1 1 1 1 1 1 1 1 1 1 1
          1 1 1 1 1 1 1 1 1 1 1 1
          1 1 1 1 1 1 1 1 1 1 1 1
          1 1 1 1 1 1 1 1 1 1 1 1
          1 1 1 1 1 1 1 1 1 1 1 1
          1 1 1 1 1 1 1 1 1 1 1 1
          1 1 1 1 1 1 1 1 1 1 1 1
          1 1 1 1 1 1 1 1 1 1 1 1
          1 1 1 1 1 1 1 1 1 1 1 1
          1 1 1 1 1 1 1 1 1 1 1 1
          1 1 1 1 1 1 1 1 1 1 1 1
          1 1 1 1 1 1 1 1 1 1 1 1
          1 1 1 1 1 1 1 1 1 1 1 1
          1 1 1 1 1 1 1 1 1 1 1 1
          1 1 1 1 1 1 1 1 1 1 1 1
          1 1 1 1 1 1 1 1 1 1 1 1
          1 1 1 1 1 1 1 1 1 1 1 1
          1 1 1 1 1 1 1 1 1 1 1 1
          1 1 1 1 1 1 1 1 1 1 1 1
          1 1 1 1 1 1 1 1 1 1 1 1
          1 1 1 1 1 1 1 1 1 1 1 1
          1 1 1 1 1 1 1 1 1 1 1 1
          1 1 1 1 1 1 1 1 1 1 1 1
          1 1 1 1 1 1 1 1 1 1 1 1
          1 1 1 1 1 1 1 1 1 1 1 1
          1 1 1 1 1 1 1 1 1 1 1 1
          1 1 1 1 1 1 1 1 1 1 1 1
          1 1 1 1 1 1 1 1 1 1 1 1
          1 1 1 1 1 1 1 1 1 1 1 1
          1 1 1 1 1 1 1 1 1 1 1 1
          1 1 1 1 1 1 1 1 1 1 1 1
          1 1 1 1 1 1 1 1 1 1 1 1
          1 1 1 1 1 1 1 1 1 1 1 1
          1 1 1 1 1 1 1 1 1 1 1 1
          1 1 1 1 1 1 1 1 1 1 1 1
          1 1 1 1 1 1 1 1 1 1 1 1
          1 1 1 1 1 1 1 1 1 1 1 1
          1 1 1 1 1 1 1 1 1 1 1 1
          1 1 1 1 1 1 1 1 1 1 1 1
          1 1 1 1 1 1 1 1 1 1 1 1
          1 1 1 1 1 1 1 1 1 1 1 1
          1 1 1 1 1 1 1 1 1 1 1 1
          1 1 1 1 1 1 1 1 1 1 1 1
          1 1 1 1 1 1 1 1 1 1 1 1
          1 1 1 1 1 1 1 1 1 1 1 1
          1 1 1 1 1 1 1 1 1 1 1 1
          1 1 1 1 1 1 1 1 1 1 1 1
          1 1 1 1 1 1 1 1 1 1 1 1
          1 1 1 1 1 1 1 1 1 1 1 1
          1 1 1 1 1 1 1 1 1 1 1 1
          1 1 1 1 1 1 1 1 1 1 1 1
          1 1 1 1 1 1 1 1 1 1 1 1
          1 1 1 1 1 1 1 1 1 1 1 1
          1 1 1 1 1 1 1 1 1 1 1 1
          1 1 1 1 1 1 1 1 1 1 1 1
          1 1 1 1 1 1 1 1 1 1 1 1
          1 1 1 1 1 1 1 1 1 1 1 1
          1 1 1 1 1 1 1 1 1 1 1 1
          1 1 1 1 1 1 1 1 1 1 1 1
          1 1 1 1 1 1 1 1 1 1 1 1
          1 1 1 1 1 1 1 1 1 1 1 1
          1 1 1 1 1 1 1 1 1 1 1 1
          1 1 1 1 1 1 1 1 1 1 1 1
          1 1 1 1 1 1 1 1 1 1 1 1
          1 1 1 1 1 1 1 1 1 1 1 1
          1 1 1 1 1 1 1 1 1 1 1 1
          1 1 1 1 1 1 1 1 1 1 1 1
          1 1 1 1 1 1 1 1 1 1 1 1
          1 1 1 1 1 1 1 1 1 1 1 1
          1 1 1 1 1 1 1 1 1 1 1 1
          1 1 1 1 1 1 1 1 1 1 1 1
          1 1 1 1 1 1 1 1 1 1 1 1
          1 1 1 1 1 1 1 1 1 1 1 1
          1 1 1 1 1 1 1 1 1 1 1 1
          1 1 1 1 1 1 1 1 1 1 1 1
          1 1 1 1 1 1 1 1 1 1 1 1
          1 1 1 1 1 1 1 1 1 1 1 1
          1 1 1 1 1 1 1 1 1 1 1 1
          1 1 1 1 1 1 1 1 1 1 1 1
          1 1 1 1 1 1 1 1 1 1 1 1
          1 1 1 1 1 1 1 1 1 1 1 1
          1 1 1 1 1 1 1 1 1 1 1 1
          1 1 1 1 1 1 1 1 1 1 1 1
          1 1 1 1 1 1 1 1 1 1 1 1
          1 1 1 1 1 1 1 1 1 1 1 1
          1 1 1 1 1 1 1 1 1 1 1 1
          1 1 1 1 1 1 1 1 1 1 1 1
          1 1 1 1 1 1 1 1 1 1 1 1
          1 1 1 1 1 1 1 1 1 1 1 1
          1 1 1 1 1 1 1 1 1 1 1 1
          1 1 1 1 1 1 1 1 1 1 1 1
          1 1 1 1 1 1 1 1 1 1 1 1
          1 1 1 1 1 1 1 1 1 1 1 1
          1 1 1 1 1 1 1 1 1 1 1 1
          1 1 1 1 1 1 1 1 1 1 1 1
          1 1 1 1 1 1 1 1 1 1 1 1
          1 1 1 1 1 1 1 1 1 1 1 1
          1 1 1 1 1 1 1 1 1 1 1 1
          1 1 1 1 1 1 1 1 1 1 1 1
          1 1 1 1 1 1 1 1 1 1 1 1
          1 1 1 1 1 1 1 1 1 1 1 1
          1 1 1 1 1 1 1 1 1 1 1 1
          1 1 1 1 1 1 1 1 1 1 1 1
          1 1 1 1 1 1 1 1 1 1 1 1
          1 1 1 1 1 1 1 1 1 1 1 1
          1 1 1 1 1 1 1 1 1 1 1 1
          1 1 1 1 1 1 1 1 1 1 1 1
          1 1 1 1 1 1 1 1 1 1 1 1
          1 1 1 1 1 1 1 1 1 1 1 1
          1 1 1 1 1 1 1 1 1 1 1 1
          1 1 1 1 1 1 1 1 1 1 1 1
          1 1 1 1 1 1 1 1 1 1 1 1
          1 1 1 1 1 1 1 1 1 1 1 1
          1 1 1 1 1 1 1 1 1 1 1 1
          1 1 1 1 1 1 1 1 1 1 1 1
          1 1 1 1 1 1 1 1 1 1 1 1
          1 1 1 1 1 1 1 1 1 1 1 1
          1 1 1 1 1 1 1 1 1 1 1 1
          1 1 1 1 1 1 1 1 1 1 1 1
          1 1 1 1 1 1 1 1 1 1 1 1
          1 1 1 1 1 1 1 1 1 1 1 1
          1 1 1 1 1 1 1 1 1 1 1 1
          1 1 1 1 1 1 1 1 1 1 1 1
          1 1 1 1 1 1 1 1 1 1 1 1
          1 1 1 1 1 1 1 1 1 1 1 1
          1 1 1 1 1 1 1 1 1 1 1 1
          1 1 1 1 1 1 1 1 1 1 1 1
          1 1 1 1 1 1 1 1 1 1 1 1
          1 1 1 1 1 1 1 1 1 1 1 1
          1 1 1 1 1 1 1 1 1 1 1 1
          1 1 1 1 1 1 1 1 1 1 1 1
          1 1 1 1 1 1 1 1 1 1 1 1
          1 1 1 1 1 1 1 1 1 1 1 1
          1 1 1 1 1 1 1 1 1 1 1 1
          1 1 1 1 1 1 1 1 1 1 1 1
          1 1 1 1 1 1 1 1 1 1 1 1
          1 1 1 1 1 1 1 1 1 1 1 1
          1 1 1 1 1 1 1 1 1 1 1 1
          1 1 1 1 1 1 1 1 1 1 1 1
          1 1 1 1 1 1 1 1 1 1 1 1
          1 1 1 1 1 1 1 1 1 1 1 1
          1 1 1 1 1 1 1 1 1 1 1 1
          1 1 1 1 1 1 1 1 1 1 1 1
          1 1 1 1 1 1 1 1 1 1 1 1
          1 1 1 1 1 1 1 1 1 1 1 1
          1 1 1 1 1 1 1 1 1 1 1 1
          1 1 1 1 1 1 1 1 1 1 1 1
          1 1 1 1 1 1 1 1 1 1 1 1
          1 1 1 1 1 1 1 1 1 1 1 1
          1 1 1 1 1 1 1 1 1 1 1 1
          1 1 1 1 1 1 1 1 1 1 1 1
          1 1 1 1 1 1 1 1 1 1 1 1
          1 1 1 1 1 1 1 1 1 1 1 1
          1 1 1 1 1 1 1 1 1 1 1 1
          1 1 1 1 1 1 1 1 1 1 1 1
          1 1 1 1 1 1 1 1 1 1 1 1
          1 1 1 1 1 1 1 1 1 1 1 1
          1 1 1 1 1 1 1 1 1 1 1 1
          1 1 1 1 1 1 1 1 1 1 1 1
          1 1 1 1 1 1 1 1 1 1 1 1
          1 1 1 1 1 1 1 1 1 1 1 1
          1 1 1 1 1 1 1 1 1 1 1 1
          1 1 1 1 1 1 1 1 1 1 1 1
          1 1 1 1 1 1 1 1 1 1 1 1
          1 1 1 1 1 1 1 1 1 1 1 1
          1 1 1 1 1 1 1 1 1 1 1 1
          1 1 1 1 1 1 1 1 1 1 1 1
          1 1 1 1 1 1 1 1 1 1 1 1
          1 1 1 1 1 1 1 1 1 1 1 1
          1 1 1 1 1 1 1 1 1 1 1 1
          1 1 1 1 1 1 1 1 1 1 1 1
          1 1 1 1 1 1 1 1 1 1 1 1
          1 1 1 1 1 1 1 1 1 1 1 1
          1 1 1 1 1 1 1 1 1 1 1 1
          1 1 1 1 1 1 1 1 1 1 1 1
          1 1 1 1 1 1 1 1 1 1 1 1
          1
        </DataArray>
        <DataArray type="Float32" Name="p_liq" NumberOfComponents="1" format="ascii">
          9.91e+06 9.91012e+06 9.90387e+06 9.904e+06 9.91026e+06 9.90414e+06 9.9104e+06 9.90429e+06 9.91056e+06 9.90444e+06 9.91071e+06 9.9046e+06
          9.91087e+06 9.90476e+06 9.91103e+06 9.90492e+06 9.91119e+06 9.90508e+06 9.91136e+06 9.90524e+06 9.91152e+06 9.90541e+06 9.91169e+06 9.90558e+06
          9.91187e+06 9.90576e+06 9.91204e+06 9.90593e+06 9.91222e+06 9.90611e+06 9.9124e+06 9.90629e+06 9.91258e+06 9.90647e+06 9.91275e+06 9.90665e+06
          9.91293e+06 9.90682e+06 9.91309e+06 9.90699e+06 9.91324e+06 9.90715e+06 9.91332e+06 9.90727e+06 9.91329e+06 9.90731e+06 9.91275e+06 9.90731e+06
          9.91e+06 9.90731e+06 9.91e+06 9.90733e+06 9.91e+06 9.90746e+06 9.91e+06 9.90753e+06 9.91e+06 9.90755e+06 9.91e+06 9.90754e+06
          9.91e+06 9.90746e+06 9.91e+06 9.90725e+06 9.91e+06 9.90672e+06 9.91e+06 9.90658e+06 9.91e+06 9.9065e+06 9.91e+06 9.90644e+06
          9.91e+06 9.90639e+06 9.91e+06 9.90632e+06 9.91e+06 9.90622e+06 9.91e+06 9.90609e+06 9.91e+06 9.90609e+06 9.91162e+06 9.90616e+06
          9.91189e+06 9.90609e+06 9.91187e+06 9.90602e+06 9.91179e+06 9.90592e+06 9.91171e+06 9.90583e+06 9.91164e+06 9.90575e+06 9.91159e+06 9.9057e+06
          9.9116e+06 9.90568e+06 9.91173e+06 9.90569e+06 9.91175e+06 9.90567e+06 9.9117e+06 9.9056e+06 9.91162e+06 9.90552e+06 9.91151e+06 9.90541e+06
          9.91139e+06 9.90529e+06 9.91126e+06 9.90516e+06 9.91113e+06 9.90502e+06 9.91098e+06 9.90488e+06 9.91084e+06 9.90473e+06 9.91069e+06 9.90458e+06
          9.91055e+06 9.90444e+06 9.9104e+06 9.90429e+06 9.91026e+06 9.90414e+06 9.91012e+06 9.904e+06 9.91e+06 9.90387e+06 9.89774e+06 9.89788e+06
          9.89803e+06 9.89818e+06 9.89833e+06 9.89848e+06 9.89864e+06 9.8988e+06 9.89896e+06 9.89913e+06 9.8993e+06 9.89947e+06 9.89964e+06 9.89982e+06
          9.9e+06 9.90017e+06 9.90036e+06 9.90054e+06 9.90072e+06 9.90091e+06 9.90109e+06 9.90127e+06 9.90147e+06 9.90174e+06 9.90278e+06 9.9033e+06
          9.90352e+06 9.90364e+06 9.90368e+06 9.90366e+06 9.90356e+06 9.9033e+06 9.90262e+06 9.90245e+06 9.90234e+06 9.90224e+06 9.90215e+06 9.90204e+06
          9.90188e+06 9.90162e+06 9.90121e+06 9.90067e+06 9.90035e+06 9.90018e+06 9.90004e+06 9.89993e+06 9.89984e+06 9.89977e+06 9.89972e+06 9.8997e+06
          9.89962e+06 9.89954e+06 9.89943e+06 9.89932e+06 9.89919e+06 9.89906e+06 9.89892e+06 9.89877e+06 9.89862e+06 9.89847e+06 9.89832e+06 9.89818e+06
          9.89803e+06 9.89788e+06 9.89774e+06 9.89161e+06 9.89175e+06 9.8919e+06 9.89206e+06 9.89221e+06 9.89236e+06 9.89252e+06 9.89268e+06 9.89285e+06
          9.89302e+06 9.89318e+06 9.89335e+06 9.89353e+06 9.8937e+06 9.89388e+06 9.89406e+06 9.89424e+06 9.89443e+06 9.89462e+06 9.89482e+06 9.89503e+06
          9.89527e+06 9.89557e+06 9.89604e+06 9.89709e+06 9.89762e+06 9.89787e+06 9.898e+06 9.89805e+06 9.89804e+06 9.89795e+06 9.89776e+06 9.89738e+06
          9.89722e+06 9.8971e+06 9.897e+06 9.8969e+06 9.89677e+06 9.8966e+06 9.8963e+06 9.89577e+06 9.89485e+06 9.89454e+06 9.89431e+06 9.89414e+06
          9.89401e+06 9.8939e+06 9.89382e+06 9.89376e+06 9.89371e+06 9.8936e+06 9.89348e+06 9.89336e+06 9.89324e+06 9.8931e+06 9.89296e+06 9.89282e+06
          9.89267e+06 9.89252e+06 9.89237e+06 9.89221e+06 9.89206e+06 9.89191e+06 9.89176e+06 9.89161e+06 9.88548e+06 9.88563e+06 9.88578e+06 9.88593e+06
          9.88609e+06 9.88624e+06 9.88640e+06 9.88657e+06 9.88673e+06 9.8869e+06 9.88706e+06 9.88724e+06 9.88741e+06 9.88758e+06 9.88776e+06 9.88794e+06
          9.88813e+06 9.88832e+06 9.88852e+06 9.88873e+06 9.88896e+06 9.88922e+06 9.88954e+06 9.88998e+06 9.89048e+06 9.8909e+06 9.89117e+06 9.89133e+06
          9.8914e+06 9.8914e+06 9.89131e+06 9.89112e+06 9.89082e+06 9.89069e+06 9.89058e+06 9.89047e+06 9.89035e+06 9.89023e+06 9.89007e+06 9.88983e+06
          9.88939e+06 9.88898e+06 9.88864e+06 9.8884e+06 9.88821e+06 9.88806e+06 9.88794e+06 9.88785e+06 9.88777e+06 9.88771e+06 9.88758e+06 9.88744e+06
          9.8873e+06 9.88716e+06 9.88702e+06 9.88687e+06 9.88672e+06 9.88657e+06 9.88641e+06 9.88626e+06 9.8861e+06 9.88594e+06 9.88579e+06 9.88563e+06
          9.88548e+06 9.87934e+06 9.8795e+06 9.87965e+06 9.87981e+06 9.87996e+06 9.88012e+06 9.88028e+06 9.88045e+06 9.88061e+06 9.88078e+06 9.88094e+06
          9.88112e+06 9.88129e+06 9.88146e+06 9.88164e+06 9.88182e+06 9.88201e+06 9.8822e+06 9.8824e+06 9.88262e+06 9.88285e+06 9.88311e+06 9.88341e+06
          9.88375e+06 9.8841e+06 9.88442e+06 9.88465e+06 9.88481e+06 9.88488e+06 9.88489e+06 9.88482e+06 9.88469e+06 9.8845e+06 9.8844e+06 9.8843e+06
          9.88419e+06 9.88407e+06 9.88393e+06 9.88375e+06 9.88352e+06 9.88323e+06 9.88293e+06 9.88265e+06 9.88242e+06 9.88224e+06 9.88209e+06 9.88196e+06
          9.88186e+06 9.88178e+06 9.88171e+06 9.88155e+06 9.8814e+06 9.88124e+06 9.88109e+06 9.88094e+06 9.88079e+06 9.88063e+06 9.88047e+06 9.88031e+06
          9.88015e+06 9.87999e+06 9.87983e+06 9.87967e+06 9.87950e+06 9.87934e+06 9.87321e+06 9.87337e+06 9.87352e+06 9.87368e+06 9.87384e+06 9.874e+06
          9.87416e+06 9.87432e+06 9.87449e+06 9.87465e+06 9.87482e+06 9.87499e+06 9.87516e+06 9.87534e+06 9.87552e+06 9.8757e+06 9.87588e+06 9.87608e+06
          9.87628e+06 9.87648e+06 9.87671e+06 9.87695e+06 9.87722e+06 9.8775e+06 9.87777e+06 9.87802e+06 9.87822e+06 9.87836e+06 9.87843e+06 9.87845e+06
          9.87841e+06 9.87832e+06 9.87819e+06 9.87811e+06 9.87802e+06 9.87792e+06 9.87781e+06 9.87767e+06 9.8775e+06 9.8773e+06 9.87707e+06 9.87684e+06
          9.87661e+06 9.87641e+06 9.87624e+06 9.87609e+06 9.87596e+06 9.87586e+06 9.87577e+06 9.87569e+06 9.87552e+06 9.87535e+06 9.87519e+06 9.87503e+06
          9.87486e+06 9.8747e+06 9.87454e+06 9.87437e+06 9.87421e+06 9.87404e+06 9.87388e+06 9.87371e+06 9.87354e+06 9.87338e+06 9.87321e+06 9.86708e+06
          9.86724e+06 9.8674e+06 9.86756e+06 9.86771e+06 9.86787e+06 9.86804e+06 9.8682e+06 9.86836e+06 9.86853e+06 9.8687e+06 9.86887e+06 9.86904e+06
          9.86921e+06 9.86939e+06 9.86957e+06 9.86975e+06 9.86994e+06 9.87014e+06 9.87034e+06 9.87055e+06 9.87078e+06 9.87101e+06 9.87125e+06 9.87148e+06
          9.87168e+06 9.87185e+06 9.87197e+06 9.87204e+06 9.87207e+06 9.87205e+06 9.87199e+06 9.8719e+06 9.87184e+06 9.87176e+06 9.87167e+06 9.87156e+06
          9.87143e+06 9.87128e+06 9.87111e+06 9.87092e+06 9.87073e+06 9.87054e+06 9.87037e+06 9.87021e+06 9.87007e+06 9.86994e+06 9.86984e+06 9.86974e+06
          9.86966e+06 9.86948e+06 9.8693e+06 9.86913e+06 9.86896e+06 9.86879e+06 9.86862e+06 9.86845e+06 9.86828e+06 9.86811e+06 9.86794e+06 9.86777e+06
          9.8676e+06 9.86742e+06 9.86725e+06 9.86708e+06 9.86095e+06 9.86111e+06 9.86127e+06 9.86143e+06 9.86159e+06 9.86175e+06 9.86191e+06 9.86207e+06
          9.86224e+06 9.8624e+06 9.86257e+06 9.86274e+06 9.86291e+06 9.86308e+06 9.86326e+06 9.86344e+06 9.86362e+06 9.8638e+06 9.86399e+06 9.86419e+06
          9.86439e+06 9.86459e+06 9.8648e+06 9.86501e+06 9.8652e+06 9.86537e+06 9.86552e+06 9.86563e+06 9.8657e+06 9.86574e+06 9.86573e+06 9.8657e+06
          9.86563e+06 9.86558e+06 9.86552e+06 9.86544e+06 9.86534e+06 9.86522e+06 9.86509e+06 9.86494e+06 9.86479e+06 9.86462e+06 9.86446e+06 9.8643e+06
          9.86416e+06 9.86403e+06 9.86391e+06 9.8638e+06 9.86371e+06 9.86362e+06 9.86344e+06 9.86325e+06 9.86307e+06 9.86289e+06 9.86271e+06 9.86254e+06
          9.86236e+06 9.86218e+06 9.86201e+06 9.86183e+06 9.86166e+06 9.86148e+06 9.8613e+06 9.86113e+06 9.86095e+06 9.85482e+06 9.85498e+06 9.85514e+06
          9.8553e+06 9.85546e+06 9.85562e+06 9.85578e+06 9.85594e+06 9.85611e+06 9.85628e+06 9.85644e+06 9.85661e+06 9.85678e+06 9.85695e+06 9.85712e+06
          9.8573e+06 9.85748e+06 9.85766e+06 9.85784e+06 9.85803e+06 9.85822e+06 9.8584e+06 9.85859e+06 9.85878e+06 9.85894e+06 9.8591e+06 9.85923e+06
          9.85933e+06 9.8594e+06 9.85944e+06 9.85945e+06 9.85943e+06 9.85938e+06 9.85934e+06 9.85929e+06 9.85922e+06 9.85913e+06 9.85903e+06 9.85892e+06
          9.85879e+06 9.85865e+06 9.85851e+06 9.85837e+06 9.85823e+06 9.8581e+06 9.85798e+06 9.85786e+06 9.85776e+06 9.85766e+06 9.85758e+06 9.85739e+06
          9.85719e+06 9.857e+06 9.85682e+06 9.85663e+06 9.85645e+06 9.85627e+06 9.85609e+06 9.85591e+06 9.85572e+06 9.85554e+06 9.85536e+06 9.85518e+06
          9.855e+06 9.85482e+06 9.84869e+06 9.84885e+06 9.84901e+06 9.84917e+06 9.84933e+06 9.84949e+06 9.84965e+06 9.84982e+06 9.84998e+06 9.85015e+06
          9.85031e+06 9.85048e+06 9.85065e+06 9.85082e+06 9.85099e+06 9.85116e+06 9.85133e+06 9.85151e+06 9.85168e+06 9.85186e+06 9.85204e+06 9.85222e+06
          9.85239e+06 9.85256e+06 9.85271e+06 9.85285e+06 9.85296e+06 9.85306e+06 9.85313e+06 9.85317e+06 9.85319e+06 9.85318e+06 9.85315e+06 9.85312e+06
          9.85308e+06 9.85302e+06 9.85294e+06 9.85285e+06 9.85275e+06 9.85264e+06 9.85252e+06 9.8524e+06 9.85227e+06 9.85215e+06 9.85203e+06 9.85191e+06
          9.85181e+06 9.85171e+06 9.85161e+06 9.85152e+06 9.85133e+06 9.85113e+06 9.85094e+06 9.85074e+06 9.85056e+06 9.85037e+06 9.85018e+06 9.84999e+06
          9.84981e+06 9.84962e+06 9.84943e+06 9.84925e+06 9.84906e+06 9.84887e+06 9.84869e+06 9.84256e+06 9.84272e+06 9.84288e+06 9.84304e+06 9.8432e+06
          9.84336e+06 9.84352e+06 9.84369e+06 9.84385e+06 9.84402e+06 9.84418e+06 9.84435e+06 9.84451e+06 9.84468e+06 9.84485e+06 9.84502e+06 9.84519e+06
          9.84536e+06 9.84553e+06 9.8457e+06 9.84587e+06 9.84603e+06 9.84619e+06 9.84635e+06 9.84649e+06 9.84662e+06 9.84672e+06 9.84682e+06 9.84688e+06
          9.84693e+06 9.84696e+06 9.84696e+06 9.84694e+06 9.84692e+06 9.84688e+06 9.84683e+06 9.84677e+06 9.84669e+06 9.8466e+06 9.8465e+06 9.8464e+06
          9.84629e+06 9.84618e+06 9.84606e+06 9.84595e+06 9.84585e+06 9.84574e+06 9.84564e+06 9.84555e+06 9.84547e+06 9.84527e+06 9.84506e+06 9.84487e+06
          9.84467e+06 9.84447e+06 9.84428e+06 9.84409e+06 9.8439e+06 9.84370e+06 9.84351e+06 9.84332e+06 9.84313e+06 9.84294e+06 9.84275e+06 9.84256e+06
          9.83642e+06 9.83659e+06 9.83675e+06 9.83691e+06 9.83707e+06 9.83723e+06 9.8374e+06 9.83756e+06 9.83772e+06 9.83788e+06 9.83805e+06 9.83821e+06
          9.83838e+06 9.83854e+06 9.83871e+06 9.83888e+06 9.83904e+06 9.83921e+06 9.83937e+06 9.83954e+06 9.8397e+06 9.83985e+06 9.84000e+06 9.84015e+06
          9.84028e+06 9.8404e+06 9.84050e+06 9.84059e+06 9.84066e+06 9.84071e+06 9.84074e+06 9.84075e+06 9.84075e+06 9.84073e+06 9.8407e+06 9.84066e+06
          9.8406e+06 9.84053e+06 9.84046e+06 9.84037e+06 9.84028e+06 9.84018e+06 9.84008e+06 9.83998e+06 9.83987e+06 9.83977e+06 9.83968e+06 9.83958e+06
          9.83949e+06 9.8394e+06 9.8392e+06 9.839e+06 9.83879e+06 9.83859e+06 9.83839e+06 9.8382e+06 9.838e+06 9.8378e+06 9.8376e+06 9.83741e+06
          9.83721e+06 9.83701e+06 9.83682e+06 9.83662e+06 9.83642e+06 9.83029e+06 9.83046e+06 9.83062e+06 9.83078e+06 9.83094e+06 9.8311e+06 9.83126e+06
          9.83143e+06 9.83159e+06 9.83175e+06 9.83192e+06 9.83208e+06 9.83224e+06 9.83241e+06 9.83257e+06 9.83273e+06 9.8329e+06 9.83306e+06 9.83322e+06
          9.83338e+06 9.83353e+06 9.83368e+06 9.83382e+06 9.83396e+06 9.83409e+06 9.8342e+06 9.8343e+06 9.83439e+06 9.83446e+06 9.83451e+06 9.83455e+06
          9.83457e+06 9.83457e+06 9.83456e+06 9.83453e+06 9.8345e+06 9.83445e+06 9.83439e+06 9.83432e+06 9.83425e+06 9.83416e+06 9.83407e+06 9.83398e+06
          9.83389e+06 9.83379e+06 9.8337e+06 9.8336e+06 9.83351e+06 9.83342e+06 9.83333e+06 9.83313e+06 9.83292e+06 9.83272e+06 9.83251e+06 9.83231e+06
          9.83211e+06 9.83190e+06 9.8317e+06 9.8315e+06 9.8313e+06 9.8311e+06 9.8309e+06 9.8307e+06 9.8305e+06 9.83029e+06 9.82416e+06 9.82432e+06
          9.82449e+06 9.82465e+06 9.82481e+06 9.82497e+06 9.82513e+06 9.8253e+06 9.82546e+06 9.82562e+06 9.82578e+06 9.82595e+06 9.82611e+06 9.82627e+06
          9.82643e+06 9.82659e+06 9.82675e+06 9.82691e+06 9.82707e+06 9.82722e+06 9.82737e+06 9.82751e+06 9.82765e+06 9.82778e+06 9.82790e+06 9.82802e+06
          9.82811e+06 9.8282e+06 9.82827e+06 9.82833e+06 9.82837e+06 9.8284e+06 9.8284e+06 9.8284e+06 9.82838e+06 9.82835e+06 9.82831e+06 9.82826e+06
          9.8282e+06 9.82813e+06 9.82805e+06 9.82797e+06 9.82789e+06 9.8278e+06 9.82771e+06 9.82762e+06 9.82753e+06 9.82744e+06 9.82735e+06 9.82726e+06
          9.82706e+06 9.82685e+06 9.82664e+06 9.82644e+06 9.82623e+06 9.82602e+06 9.82581e+06 9.82561e+06 9.8254e+06 9.82519e+06 9.82499e+06 9.82478e+06
          9.82458e+06 9.82437e+06 9.82416e+06 9.81803e+06 9.81819e+06 9.81836e+06 9.81852e+06 9.81868e+06 9.81884e+06 9.819e+06 9.81917e+06 9.81933e+06
          9.81949e+06 9.81965e+06 9.81981e+06 9.81997e+06 9.82013e+06 9.82029e+06 9.82045e+06 9.82061e+06 9.82076e+06 9.82092e+06 9.82107e+06 9.82121e+06
          9.82135e+06 9.82149e+06 9.82162e+06 9.82173e+06 9.82184e+06 9.82194e+06 9.82203e+06 9.8221e+06 9.82216e+06 9.82221e+06 9.82224e+06 9.82225e+06
          9.82225e+06 9.82223e+06 9.82221e+06 9.82217e+06 9.82213e+06 9.82208e+06 9.82202e+06 9.82195e+06 9.82188e+06 9.8218e+06 9.82172e+06 9.82163e+06
          9.82155e+06 9.82146e+06 9.82137e+06 9.82128e+06 9.8212e+06 9.82099e+06 9.82078e+06 9.82057e+06 9.82036e+06 9.82014e+06 9.81993e+06 9.81972e+06
          9.81951e+06 9.8193e+06 9.81909e+06 9.81888e+06 9.81866e+06 9.81845e+06 9.81824e+06 9.81803e+06 9.8119e+06 9.81206e+06 9.81222e+06 9.81239e+06
          9.81255e+06 9.81271e+06 9.81287e+06 9.81304e+06 9.8132e+06 9.81336e+06 9.81352e+06 9.81368e+06 9.81384e+06 9.814e+06 9.81416e+06 9.81431e+06
          9.81447e+06 9.81462e+06 9.81477e+06 9.81492e+06 9.81506e+06 9.8152e+06 9.81533e+06 9.81546e+06 9.81557e+06 9.81568e+06 9.81578e+06 9.81586e+06
          9.81594e+06 9.81600e+06 9.81606e+06 9.8161e+06 9.81611e+06 9.81611e+06 9.8161e+06 9.81608e+06 9.81605e+06 9.81601e+06 9.81597e+06 9.81591e+06
          9.81585e+06 9.81578e+06 9.81571e+06 9.81563e+06 9.81555e+06 9.81547e+06 9.81539e+06 9.8153e+06 9.81521e+06 9.81512e+06 9.81492e+06 9.8147e+06
          9.81449e+06 9.81427e+06 9.81406e+06 9.81384e+06 9.81363e+06 9.81341e+06 9.8132e+06 9.81298e+06 9.81276e+06 9.81255e+06 9.81233e+06 9.81212e+06
          9.8119e+06 9.80577e+06 9.80593e+06 9.80609e+06 9.80626e+06 9.80642e+06 9.80658e+06 9.80674e+06 9.8069e+06 9.80706e+06 9.80723e+06 9.80739e+06
          9.80755e+06 9.80771e+06 9.80786e+06 9.80802e+06 9.80818e+06 9.80833e+06 9.80848e+06 9.80863e+06 9.80877e+06 9.80891e+06 9.80905e+06 9.80918e+06
          9.8093e+06 9.80942e+06 9.80953e+06 9.80963e+06 9.80972e+06 9.80979e+06 9.80986e+06 9.80992e+06 9.80996e+06 9.80998e+06 9.80998e+06 9.80998e+06
          9.80996e+06 9.80994e+06 9.80991e+06 9.80986e+06 9.80982e+06 9.80976e+06 9.8097e+06 9.80963e+06 9.80956e+06 9.80948e+06 9.8094e+06 9.80932e+06
          9.80923e+06 9.80914e+06 9.80906e+06 9.80885e+06 9.80863e+06 9.80841e+06 9.8082e+06 9.80798e+06 9.80776e+06 9.80754e+06 9.80732e+06 9.8071e+06
          9.80688e+06 9.80665e+06 9.80643e+06 9.80621e+06 9.80599e+06 9.80577e+06 9.79964e+06 9.7998e+06 9.79996e+06 9.80013e+06 9.80029e+06 9.80045e+06
          9.80061e+06 9.80077e+06 9.80094e+06 9.8011e+06 9.80126e+06 9.80142e+06 9.80157e+06 9.80173e+06 9.80189e+06 9.80204e+06 9.80219e+06 9.80234e+06
          9.80249e+06 9.80263e+06 9.80277e+06 9.80291e+06 9.80304e+06 9.80316e+06 9.80328e+06 9.80338e+06 9.80348e+06 9.80358e+06 9.80366e+06 9.80373e+06
          9.80379e+06 9.80384e+06 9.80386e+06 9.80387e+06 9.80386e+06 9.80386e+06 9.80384e+06 9.80381e+06 9.80377e+06 9.80372e+06 9.80367e+06 9.80361e+06
          9.80355e+06 9.80348e+06 9.80341e+06 9.80333e+06 9.80325e+06 9.80316e+06 9.80308e+06 9.80299e+06 9.80278e+06 9.80256e+06 9.80234e+06 9.80212e+06
          9.80189e+06 9.80167e+06 9.80144e+06 9.80122e+06 9.80099e+06 9.80077e+06 9.80054e+06 9.80032e+06 9.80009e+06 9.79986e+06 9.79964e+06 9.79351e+06
          9.79367e+06 9.79383e+06 9.794e+06 9.79416e+06 9.79432e+06 9.79448e+06 9.79464e+06 9.79480e+06 9.79496e+06 9.79512e+06 9.79528e+06 9.79544e+06
          9.7956e+06 9.79575e+06 9.79591e+06 9.79606e+06 9.79621e+06 9.79635e+06 9.7965e+06 9.79663e+06 9.79677e+06 9.7969e+06 9.79702e+06 9.79714e+06
          9.79725e+06 9.79735e+06 9.79744e+06 9.79753e+06 9.79761e+06 9.79767e+06 9.79773e+06 9.79775e+06 9.79776e+06 9.79776e+06 9.79776e+06 9.79774e+06
          9.79772e+06 9.79768e+06 9.79764e+06 9.79759e+06 9.79754e+06 9.79748e+06 9.79741e+06 9.79734e+06 9.79726e+06 9.79718e+06 9.7971e+06 9.79701e+06
          9.79692e+06 9.79671e+06 9.79649e+06 9.79626e+06 9.79604e+06 9.79581e+06 9.79558e+06 9.79535e+06 9.79512e+06 9.79489e+06 9.79466e+06 9.79443e+06
          9.7942e+06 9.79397e+06 9.79374e+06 9.79351e+06 9.78738e+06 9.78754e+06 9.7877e+06 9.78786e+06 9.78803e+06 9.78819e+06 9.78835e+06 9.78851e+06
          9.78868e+06 9.78884e+06 9.789e+06 9.78915e+06 9.78931e+06 9.78947e+06 9.78962e+06 9.78978e+06 9.78993e+06 9.79007e+06 9.79022e+06 9.79036e+06
          9.7905e+06 9.79064e+06 9.79076e+06 9.79089e+06 9.79101e+06 9.79112e+06 9.79122e+06 9.79132e+06 9.79141e+06 9.79149e+06 9.79157e+06 9.79163e+06
          9.79165e+06 9.79166e+06 9.79167e+06 9.79166e+06 9.79165e+06 9.79163e+06 9.7916e+06 9.79156e+06 9.79152e+06 9.79147e+06 9.79141e+06 9.79135e+06