<?xml version="1.0"?>
<VTKFile type="UnstructuredGrid" version="0.1" byte_order="LittleEndian">
  <UnstructuredGrid>
    <Piece NumberOfCells="13826" NumberOfPoints="55304">
      <PointData Scalars="p">
        <DataArray type="Float32" Name="p" NumberOfComponents="1" format="ascii">
          0.0439712 0.0458484 0.0443153 0.0461925 0.0267775 0.0258046 0.0269903 0.0260174 0.0140007 0.0141298 0.0139438 0.0140729
          0.0302924 0.027592 0.027395 0.0246946 0.00706772 0.0069512 0.00710689 0.00699037 0.00041184 0.00029482 0.000352767 0.000235747
          0.00993682 0.0106946 0.0110302 0.0117879 0.0528708 0.0521619 0.0512299 0.0505211 0.0295327 0.0321565 0.0297292 0.032353
          0.0705556 0.0715638 0.0739448 0.074953 0.0267712 0.026836 0.0269908 0.0270557 0.0140533 0.0139857 0.0138862 0.0138186
          0.0708166 0.0693073 0.0706354 0.0691261 0.027976 0.0279899 0.0276903 0.0277042 0.0336226 0.0323053 0.0324718 0.0311545
          0.0275459 0.0275026 0.0281645 0.0281211 0.0622563 0.0623647 0.0621573 0.0622658 0.0175959 0.0174206 0.0175198 0.0173445
          0.0213016 0.0214789 0.0212967 0.021474 0.0088539 0.00847006 0.00821065 0.00782681 0.0813667 0.0793455 0.0842534 0.0822322
          0.0269697 0.0268143 0.0270025 0.0268471 0.0199938 0.0177519 0.0197346 0.0174927 0.0293924 0.0293471 0.0292384 0.029193
          0.0618067 0.0618793 0.0620016 0.0620742 0.0842721 0.079134 0.0873872 0.0822491 0.00363432 0.00375977 0.00363241 0.00375786
          0.0221299 0.0225214 0.023145 0.0235365 0.0450058 0.0464891 0.044901 0.0463843 0.0292093 0.0289603 0.0291563 0.0289073
          0.0251579 0.0252995 0.0251636 0.0253052 0.0166593 0.016506 0.0157125 0.0155591 0.0211047 0.0212884 0.0211573 0.021341
          0.0887161 0.0876625 0.0911622 0.0901085 0.0272385 0.0272451 0.027083 0.0270897 0.0280565 0.0286513 0.028025 0.0286198
          0.0107256 0.0105687 0.0107456 0.0105887 0.0835041 0.0813217 0.0821241 0.0799417 0.0273764 0.0271643 0.0274018 0.0271896
          0.0508668 0.0526216 0.0518446 0.0535994 0.0633783 0.0628534 0.0643262 0.0638013 0.00850482 0.0085418 0.00865279 0.00868977
          0.0234455 0.0233992 0.0236286 0.0235824 0.0644958 0.0648011 0.0643977 0.064703 0.030632 0.0305485 0.0304503 0.0303667
          0.0492592 0.0526122 0.0527502 0.0561033 0.0423586 0.0418357 0.0443469 0.0438241 0.0263322 0.0241855 0.0269154 0.0247687
          0.0119797 0.0120304 0.0121701 0.0122209 0.0120729 0.0118728 0.0119929 0.0117928 0.0145568 0.014539 0.0146979 0.0146801
          0.0649596 0.0659255 0.0659728 0.0669387 0.0965727 0.10083 0.0911622 0.09542 0.0300178 0.0299359 0.0301905 0.0301086
          0.00544402 0.00541963 0.00558182 0.00555744 0.0581095 0.0575488 0.0570461 0.0564854 0.0207133 0.0205138 0.0206618 0.0204623
          0.022455 0.021672 0.0223663 0.0215833 0.00912407 0.00852366 0.00985508 0.00925467 0.0179256 0.0228028 0.0182951 0.0231724
          0.0130545 0.0131114 0.0123521 0.012409 0.0264626 0.0265347 0.0265933 0.0266654 0.0269728 0.0268924 0.0264398 0.0263595
          0.0299607 0.0301214 0.0302714 0.0304321 0.0168438 0.0157776 0.0165812 0.015515 0.0336372 0.027816 0.0332835 0.0274623
          0.0138968 0.0146097 0.0137702 0.014483 0.0624757 0.0626623 0.0623442 0.0625308 0.0681987 0.0673253 0.0673393 0.0664659
          0.0271638 0.0271487 0.027072 0.0270568 0.0207469 0.0207807 0.0209367 0.0209705 0.0273715 0.0275776 0.0273492 0.0275552
          0.0290865 0.0288374 0.0289978 0.0287487 0.00900733 0.00896302 0.00887625 0.00883195 0.0269985 0.0270266 0.0266934 0.0267214
          0.0303447 0.0317278 0.0351586 0.0365417 0.0246844 0.0202931 0.024139 0.0197477 0.032052 0.0351345 0.0307366 0.0338191
          0.0269466 0.0269242 0.0268138 0.0267915 0.0173328 0.0173655 0.0174993 0.0175319 0.0241044 0.0238681 0.0251193 0.024883
          0.0103779 0.0105338 0.0104466 0.0106025 0.0208175 0.0209608 0.0208984 0.0210417 0.0433244 0.0446035 0.0392086 0.0404876
          0.0298105 0.0299731 0.029645 0.0298075 0.015592 0.0146595 0.0151779 0.0142453 0.0208783 0.0244651 0.021189 0.0247758
          0.0773413 0.0798788 0.0786979 0.0812353 0.0261869 0.026545 0.0261997 0.0265578 -0.00765675 -0.00820759 -0.0043956 -0.00494645
          0.00721301 0.00646832 0.0074727 0.00672801 0.01646 0.0154624 0.0174239 0.0164263 0.0165303 0.0156456 0.0149785 0.0140938
          0.0121941 0.0117266 0.0120312 0.0115637 0.0182553 0.0179684 0.0233707 0.0230838 0.0247829 0.0245664 0.0246993 0.0244828
          0.077376 0.0793204 0.0766649 0.0786093 0.0253341 0.0248303 0.0247131 0.0242092 0.0686617 0.0674687 0.0693274 0.0681344
          0.0788602 0.0834377 0.073922 0.0784996 0.0268971 0.0272115 0.0270184 0.0273328 0.0132463 0.0130228 0.0138063 0.0135828
          0.0298304 0.029685 0.0294779 0.0293325 0.0266032 0.0265395 0.0265683 0.0265046 0.069747 0.070179 0.0724004 0.0728324
          0.014076 0.0140254 0.0146792 0.0146287 0.0300256 0.0299756 0.0298032 0.0297531 0.0245989 0.0247733 0.0246235 0.0247979
          0.0265031 0.0263343 0.0264148 0.026246 0.0265015 0.0264261 0.0264625 0.0263871 0.0151509 0.0149733 0.0151949 0.0150173
          0.0862006 0.0898967 0.0886219 0.092318 0.00023864 0.000241008 0.000171519 0.000173886 0.101339 0.103386 0.102456 0.104504
          0.0285782 0.0283554 0.0281695 0.0279467 0.000972683 0.00346191 0.00230251 0.00479173 0.0981779 0.100795 0.0996376 0.102254
          0.0241968 0.0244064 0.0242284 0.024438 0.077096 0.0752977 0.0810233 0.079225 0.0136788 0.0125839 0.0106093 0.0095144
          0.0136839 0.0115626 0.0169168 0.0147955 0.0435814 0.0460674 0.0427813 0.0452673 0.0081548 0.00738077 0.00779565 0.00702162
          0.0157786 0.0147637 0.0154928 0.0144779 0.0146806 0.0143344 0.0144416 0.0140953 0.0184624 0.0182549 0.0183888 0.0181813
          0.00737414 0.00737768 0.0072352 0.00723873 0.0241809 0.0235531 0.024782 0.0241542 0.0251019 0.0250466 0.0253194 0.0252641
          0.059353 0.0616767 0.0596496 0.0619733 0.0237466 0.0239627 0.0237835 0.0239997 0.00723473 0.0070957 0.00722976 0.00709073
          0.0275046 0.0273757 0.0270066 0.0268777 0.0259629 0.0255436 0.0255191 0.0250998 0.0266712 0.0265573 0.0266434 0.0265295
          0.0678805 0.0714951 0.0642405 0.0678551 0.00171056 0.00169376 0.00166821 0.00165141 0.0235625 0.0233471 0.023521 0.0233056
          0.0153984 0.0154038 0.0155465 0.0155519 0.0835557 0.0810704 0.0856736 0.0831883 0.121427 0.120055 0.11982 0.118448
          0.0187602 0.0189745 0.0186985 0.0189128 0.00336108 0.000485827 0.0044765 0.00160125 0.0288905 0.0285938 0.0287914 0.0284947
          0.000578478 0.000439001 0.00048952 0.000350043 0.0893941 0.0864771 0.0873232 0.0844061 0.0476573 0.0470389 0.0466584 0.04604
          0.0231324 0.0229159 0.0230891 0.0228727 0.00387284 0.00464317 0.00312567 0.003896 0.0277848 0.0225311 0.0276334 0.0223797
          0.00571526 0.00446234 0.0050878 0.00383489 0.0111734 0.0108233 0.0112419 0.0108918 0.0263839 0.0265245 0.0264122 0.0265527
          0.0546948 0.0543621 0.0485536 0.0482209 0.022706 0.0224889 0.0226635 0.0224464 -0.00400643 -0.00300092 -0.00184336 -0.000837857
          0.0264569 0.0263582 0.0258447 0.025746 0.0641432 0.0644197 0.0640067 0.0642833 0.0843404 0.0787498 0.0801691 0.0745786
          0.0561726 0.0571955 0.0566728 0.0576956 0.0222827 0.0220695 0.0222379 0.0220247 0.0156893 0.0158346 0.0158537 0.015999
          0.0254882 0.025524 0.025749 0.0257849 0.101632 0.105969 0.0965961 0.100932 0.0292855 0.0292731 0.0288155 0.028803
          0.0589371 0.0597188 0.0566176 0.0573994 0.0218662 0.0216547 0.0218213 0.0216099 0.0191639 0.0189312 0.0191953 0.0189627
          0.0159008 0.0153142 0.0161369 0.0155503 0.02166 0.0222574 0.0224802 0.0230776 0.0196933 0.0196781 0.0195077 0.0194925
          0.0147064 0.0156593 0.0151118 0.0160647 0.0775375 0.0772989 0.0785106 0.078272 0.0413057 0.0425351 0.0375786 0.0388079
          0.037339 0.0381339 0.0363736 0.0371685 0.0321102 0.0316015 0.0312164 0.0307077 0.00346818 0.00334665 0.00346623 0.0033447
          0.0249645 0.025921 0.0254157 0.0263722 0.0256004 0.0252733 0.0257875 0.0254604 0.0287347 0.0294206 0.0284402 0.0291262
          0.0580828 0.0579065 0.0562718 0.0560955 0.104581 0.10373 0.107126 0.106275 -0.00133361 -0.000299779 -0.00207676 -0.00104293
          0.0112208 0.0107319 0.0118033 0.0113144 0.0249031 0.0253251 0.0241347 0.0245567 0.000235704 0.000261527 0.000168595 0.000194418
          0.0637861 0.0639128 0.0637142 0.0638409 9.70032e-05 0.00021361 -6.90231e-05 4.75831e-05 0.0298351 0.0295444 0.0298997 0.0296091
          0.023027 0.0230203 0.02285 0.0228433 0.0598104 0.0595934 0.0592808 0.0590638 0.0926134 0.0903766 0.0922123 0.0899755
          0.0215565 0.0213703 0.02171 0.0215239 0.113852 0.111877 0.114975 0.113 0.00818808 0.00825167 0.00822194 0.00828553
          0.033583 0.0362395 0.0342127 0.0368692 0.0143178 0.0138095 0.0142456 0.0137373 0.0617224 0.0618836 0.0613573 0.0615185
          0.11252 0.111648 0.109423 0.108552 0.0249814 0.0251294 0.0250585 0.0252065 -0.00596128 -0.00695054 -0.00820988 -0.00919914
          0.0207274 0.0205545 0.0207188 0.0205459 0.0305554 0.0305666 0.0306211 0.0306324 0.0114412 0.0113292 0.0119446 0.0118326
          0.0267804 0.0268545 0.0266699 0.0267441 0.0793467 0.0773171 0.0790327 0.077003 0.00636184 0.00645429 0.00652265 0.0066151
          0.0213396 0.0215105 0.0213939 0.0215648 -0.00312099 -0.00224918 -0.00216781 -0.001296 0.00870081 0.00869783 0.00855606 0.00855307
          0.0599374 0.062596 0.0581294 0.060788 0.0284393 0.0281354 0.0287799 0.0284759 0.0576199 0.0584588 0.0582114 0.0590504
          0.0082411 0.00940892 0.0114917 0.0126595 0.0203423 0.0201535 0.0203286 0.0201397 0.0168441 0.0166548 0.0182303 0.0180409
          0.0199384 0.0197572 0.019938 0.0197568 0.0767695 0.0773895 0.0785934 0.0792134 0.0221171 0.0203873 0.0220504 0.0203206
          0.0301738 0.0299312 0.0302964 0.0300538 0.0191654 0.0191085 0.0189814 0.0189245 0.011404 0.0108384 0.0113253 0.0107597
          0.0270731 0.0271647 0.027328 0.0274197 0.0181895 0.0177545 0.0174292 0.0169943 0.0699237 0.0696278 0.0667299 0.066434
          0.0279547 0.0283159 0.0281153 0.0284766 0.0530437 0.0516456 0.0537923 0.0523942 0.0108973 0.0108049 0.0111256 0.0110332
          0.0259913 0.0259837 0.0262409 0.0262333 0.0292345 0.0303484 0.0258153 0.0269292 0.115114 0.112762 0.11455 0.112198
          -0.0085373 -0.00911988 -0.0055941 -0.00617668 0.0828206 0.0797685 0.0806043 0.0775523 0.0305967 0.030599 0.0306427 0.0306451
          0.0247501 0.0281563 0.0244844 0.0278906 0.0284705 0.0283511 0.0283585 0.0282391 0.0112557 0.0110962 0.0111672 0.0110078
          0.0577303 0.0570057 0.0518332 0.0511086 0.00703011 0.00717432 0.00703534 0.00717954 0.000384834 -0.00130303 -0.00111659 -0.00280446
          0.0327051 0.0302047 0.0301236 0.0276233 0.0116831 0.0116045 0.0122152 0.0121366 0.0530537 0.0536916 0.0510222 0.0516602
          0.00661205 0.00655745 0.00644008 0.00638547 0.048887 0.0519243 0.0460734 0.0491107 0.0239353 0.0236029 0.0245265 0.0241942
          0.00374084 0.00497457 0.00407562 0.00530935 0.0545094 0.0538233 0.055741 0.0550549 0.0283737 0.0279916 0.0287536 0.0283715
          -0.00824378 -0.00843053 -0.00605575 -0.0062425 0.0210923 0.0209039 0.0211009 0.0209125 0.0171761 0.0168297 0.0168803 0.0165339
          0.0177505 0.0176946 0.0175695 0.0175136 0.0261731 0.0259204 0.0256431 0.0253904 0.0242524 0.0240273 0.0249341 0.0247091
          0.0172728 0.0174469 0.0173372 0.0175114 0.0188785 0.0189826 0.0190967 0.0192008 0.0755048 0.0756885 0.0738802 0.0740639
          0.0183524 0.0137793 0.0209775 0.0164044 0.0122974 0.0125832 0.0121244 0.0124102 0.0774895 0.0766244 0.0780266 0.0771615
          0.0225298 0.0233539 0.0227299 0.023554 0.0263044 0.0263343 0.0266799 0.0267098 0.0128359 0.0131551 0.0127988 0.0131181
          -0.00549879 -0.00470229 -0.00634983 -0.00555333 0.0300364 0.0298991 0.0298385 0.0297012 0.0341985 0.0371336 0.0345066 0.0374418
          0.0278506 0.0278175 0.0274077 0.0273747 0.0136816 0.0138395 0.0137047 0.0138626 0.0118718 0.0120561 0.0118954 0.0120797
          0.00861021 0.00843869 0.00803185 0.00786033 0.0193178 0.0194711 0.0192516 0.0194048 0.0269183 0.0268119 0.0268505 0.026744
          0.0142986 0.0143248 0.0145055 0.0145317 0.0224887 0.0226056 0.0217699 0.0218868 0.0264805 0.0264676 0.0267332 0.0267203
          0.0291681 0.0297018 0.0290306 0.0295643 0.00709488 0.00574428 0.00468673 0.00333613 0.0276692 0.0280248 0.0278862 0.0282418
          0.016058 0.0153404 0.0149256 0.014208 0.114832 0.112657 0.113697 0.111522 0.0689331 0.0718012 0.0673017 0.0701698
          0.0279524 0.0273953 0.0276384 0.0270813 0.0220793 0.0215592 0.0213061 0.020786 0.0302294 0.0301083 0.0300904 0.0299693
          0.0124277 0.0124306 0.0122591 0.012262 0.00081645 -0.000591495 0.00125881 -0.000149132 0.0182827 0.018241 0.0184182 0.0183765
          0.0456648 0.0424205 0.0425678 0.0393235 0.0739699 0.0757207 0.0749115 0.0766623 0.0255631 0.0258393 0.0260898 0.0263661
          0.0620743 0.0609608 0.0549035 0.05379 0.0264007 0.0266403 0.0267471 0.0269867 0.0128667 0.0124928 0.0127842 0.0124104
          0.0289599 0.0288923 0.0287676 0.0287 -0.0071072 -0.00960614 -0.00746776 -0.0099667 0.0596866 0.0594627 0.0590669 0.0588431
          0.0290223 0.0290884 0.029026 0.0290922 0.0401369 0.0385791 0.0395309 0.0379731 0.0138852 0.0140037 0.0140393 0.0141578
          0.122488 0.128229 0.124908 0.130648 0.0639788 0.0603986 0.0609366 0.0573565 0.0545052 0.0540711 0.0564967 0.0560626
          0.0350188 0.0336961 0.0353654 0.0340427 0.0256906 0.0212157 0.0275596 0.0230847 0.0266314 0.0266276 0.0265289 0.0265251
          0.00305337 0.00318848 0.00305233 0.00318744 0.0440352 0.0456949 0.0479867 0.0496464 0.0245619 0.0247626 0.0246296 0.0248303
          0.0117794 0.0118454 0.0119856 0.0120516 0.0278353 0.0277948 0.0275994 0.0275588 0.0265126 0.0264418 0.0264549 0.0263841
          0.00139691 0.00148444 0.00152025 0.00160778 0.00449964 0.00542007 0.00784449 0.00876492 0.0160976 0.0162016 0.015841 0.015945
          0.00858495 0.00816085 0.00923426 0.00881016 0.0189243 0.0188932 0.0187544 0.0187233 0.0600539 0.0596877 0.0595333 0.0591671
          0.0269877 0.0269725 0.0272417 0.0272264 0.0619888 0.0644565 0.0620942 0.064562 0.00550144 0.00542363 0.00536592 0.0052881
          0.00788226 0.00776658 0.00784508 0.00772939 0.0288409 0.0290902 0.0289106 0.02916 0.0303884 0.030302 0.0300631 0.0299767
          0.00523664 0.0052687 0.0050815 0.00511356 0.027214 0.0265844 0.0272909 0.0266613 0.056903 0.0538085 0.0531221 0.0500275
          0.0787074 0.0761667 0.0773103 0.0747696 0.0273233 0.027155 0.0272943 0.027126 -0.00245991 -0.00241022 -0.00532099 -0.0052713
          0.0242514 0.0242649 0.0240975 0.024111 0.014075 0.0142596 0.0140109 0.0141955 0.0148406 0.0148419 0.0150126 0.0150139
          0.0151804 0.0152162 0.0153568 0.0153926 0.0250182 0.0250043 0.0248517 0.0248377 0.0246339 0.0254235 0.0242912 0.0250809
          0.0187227 0.0187447 0.018552 0.0185741 0.0670703 0.0675373 0.0695278 0.0699949 0.107874 0.110511 0.106802 0.109439
          0.0242734 0.0238904 0.0250631 0.02468 0.00692287 0.00854412 0.00562073 0.00724199 0.027198 0.0270575 0.0270366 0.0268961
          0.00131049 0.00248286 0.000471261 0.00164363 0.0251884 0.024918 0.0235532 0.0232828 0.0195901 0.0197822 0.019557 0.019749
          0.0216448 0.0217698 0.0205579 0.0206829 0.0969524 0.0997578 0.0928913 0.0956968 0.117012 0.118019 0.119405 0.120412
          0.0568173 0.0574824 0.0547379 0.055403 0.0779022 0.0785584 0.0776656 0.0783218 0.00911175 0.00895426 0.00911668 0.0089592
          0.0285744 0.0257046 0.031292 0.0284223 0.0223906 0.0220374 0.0217795 0.0214263 0.0150749 0.0154509 0.0152919 0.0156679
          0.00172805 0.00179542 0.00186678 0.00193415 0.0338408 0.0328336 0.0331969 0.0321897 0.0574874 0.0580257 0.058456 0.0589943
          0.0274692 0.0269446 0.0274472 0.0269226 0.0219587 0.022538 0.0227424 0.0233217 0.0201403 0.0199535 0.0201288 0.019942
          0.000804044 -0.000463396 0.00159172 0.00032428 0.0920442 0.0901122 0.091262 0.08933 0.0286372 0.0288935 0.0287358 0.028992
          0.0102381 0.0103848 0.0102555 0.0104022 0.026504 0.0265146 0.0263192 0.0263298 0.00978856 0.0135117 0.0116741 0.0153973
          0.0252087 0.0251722 0.0292845 0.0292481 0.014342 0.0142644 0.014259 0.0141814 0.0245039 0.0246528 0.023834 0.0239828
          0.0233652 0.0233833 0.0232086 0.0232266 -0.00561463 -0.00664455 -0.00370462 -0.00473454 0.0211106 0.0212921 0.0211034 0.0212849
          0.0304636 0.0303428 0.0302747 0.0301539 0.0275033 0.0275198 0.0277512 0.0277678 0.0683742 0.0642098 0.0717443 0.0675799
          0.0228579 0.0228599 0.0230321 0.0230341 0.0139651 0.0140922 0.0140952 0.0142223 0.000182672 0.000102684 0.000196353 0.000116366
          0.109933 0.107186 0.109363 0.106616 0.00914538 0.00805423 0.00597506 0.00488391 0.0237763 0.0237537 0.0236118 0.0235892
          0.0238529 0.0233776 0.023094 0.0226187 0.0162514 0.0167275 0.0157025 0.0161786 0.0184106 0.0184018 0.0185847 0.018576
          0.0283406 0.0285695 0.0284589 0.0286879 -0.00189611 -0.000879282 -0.00327072 -0.0022539 0.105597 0.109018 0.105614 0.109035
          0.0123487 0.012539 0.0122196 0.0124099 0.0311004 0.0306512 0.0303983 0.0299491 0.0248135 0.024831 0.0249711 0.0249886
          0.0256545 0.0267817 0.025404 0.0265312 0.0197678 0.020603 0.0199999 0.0208351 0.0274176 0.0272776 0.0274183 0.0272783
          0.0067218 0.00687341 0.00678672 0.00693834 0.0104354 0.0107522 0.0104385 0.0107553 0.0150385 0.0145417 0.0144739 0.013977
          0.0034888 0.00361759 0.00348189 0.00361068 0.0633544 0.063413 0.0640628 0.0641214 0.00350484 0.00262655 0.00282817 0.00194988
          0.00508262 0.00511621 0.00523247 0.00526606 0.0205427 0.0203557 0.020528 0.0203409 0.0199666 0.0211276 0.02462 0.025781
          0.0125328 0.0129355 0.0122657 0.0126684 0.0508782 0.049432 0.0513174 0.0498712 0.00566874 0.00575145 0.00583228 0.00591498
          0.0304642 0.0343319 0.0287644 0.0326322 0.0050902 0.00582315 0.0060055 0.00673845 0.016753 0.0185186 0.019701 0.0214666
          0.0168847 0.0169938 0.0170633 0.0171725 0.0249682 0.0250106 0.0251628 0.0252053 0.0197832 0.0201313 0.0206553 0.0210033
          0.00446681 0.00434097 0.00444434 0.0043185 0.0124159 0.0125749 0.0123682 0.0125271 0.0393343 0.0414086 0.0401348 0.0422091
          0.0773133 0.0793971 0.0767297 0.0788135 0.0621247 0.0621119 0.0618746 0.0618618 0.0084266 0.00779029 0.00753115 0.00689484
          0.0108312 0.00936076 0.0106287 0.00915818 0.0287249 0.0286077 0.0282013 0.028084 0.0300537 0.0296486 0.0283217 0.0279166
          0.012434 0.0124311 0.0126077 0.0126049 0.00319846 0.0033307 0.00319757 0.00332982 0.0186049 0.0179259 0.0162513 0.0155723
          0.0097142 0.00921669 0.0102183 0.00972083 0.0159653 0.017512 0.0119023 0.0134491 0.0134975 0.0136523 0.0135264 0.0136812
          0.0788466 0.08049 0.0840298 0.0856732 0.00800959 0.00733057 0.00826771 0.00758869 0.0306141 0.030402 0.0305669 0.0303548
          0.0272411 0.0269509 0.027207 0.0269168 0.00171924 0.00187012 0.000287878 0.000438757 -0.0040644 -0.00263546 -0.00270144 -0.00127249
          0.030419 0.0300867 0.0302364 0.0299041 0.0173922 0.017838 0.018123 0.0185688 0.0387715 0.0411466 0.0370382 0.0394133
          0.00418835 0.00405285 0.00415157 0.00401606 0.0305861 0.0306164 0.0306166 0.0306469 0.0268091 0.0266986 0.0266779 0.0265674
          0.0277707 0.0277337 0.0279797 0.0279428 0.0755035 0.0742004 0.0751231 0.07382 0.0258284 0.0269828 0.0263085 0.0274629
          0.0115631 0.0115537 0.0114217 0.0114122 0.0123628 0.0121782 0.0126466 0.012462 0.0280271 0.0282484 0.0283698 0.0285912
          0.0180037 0.0175618 0.0174337 0.0169919 0.0285195 0.0280381 0.0280646 0.0275832 0.0138266 0.0135887 0.0136644 0.0134265
          0.0106949 0.011268 0.010715 0.0112881 0.027343 0.0274366 0.0277323 0.0278259 0.0127232 0.0132323 0.0122107 0.0127198
          0.024513 0.0244706 0.0243302 0.0242879 0.027386 0.0279927 0.0287327 0.0293393 0.0104334 0.0106701 0.0102958 0.0105325
          0.0368776 0.0363994 0.0385453 0.0380671 0.0144955 0.0145848 0.0132583 0.0133476 0.0144886 0.0127585 0.0110595 0.0093294
          0.0787103 0.0750353 0.0739221 0.0702471 0.0281446 0.0282188 0.0283458 0.02842 -0.00486017 -0.00473192 -0.00664627 -0.00651802
          0.00861591 0.00853025 0.00920746 0.0091218 0.0925571 0.0936082 0.0905944 0.0916454 0.0144161 0.0147403 0.0141494 0.0144735
          0.0148865 0.0153814 0.016735 0.0172299 0.0259364 0.0259225 0.0256871 0.0256732 0.0258437 0.0257509 0.0251006 0.0250078
          0.0236642 0.024245 0.0228368 0.0234177 0.0263587 0.0264528 0.026866 0.0269601 -0.0123294 -0.0123601 -0.00908689 -0.00911756
          0.0882109 0.091 0.0899363 0.0927253 0.0103993 0.010828 0.010358 0.0107867 0.0186081 0.0193539 0.0186322 0.019378
          0.020864 0.0207308 0.0208794 0.0207463 0.02098 0.0212158 0.0215487 0.0217845 0.0187974 0.0187414 0.0189783 0.0189222
          0.0115453 0.0119782 0.0111258 0.0115587 0.0591683 0.0595715 0.0598457 0.0602489 0.0668071 0.0703165 0.066436 0.0699454
          0.00465164 0.00483252 0.00478151 0.00496239 0.0866033 0.0826952 0.0837085 0.0798004 0.0275611 0.0278405 0.027481 0.0277604
          0.0570488 0.0565678 0.0559687 0.0554876 0.0257814 0.0258006 0.0250725 0.0250918 0.0267194 0.0268106 0.0269637 0.0270549
          0.00959454 0.00882969 0.00985339 0.00908855 0.0122422 0.0120826 0.0122294 0.0120699 0.0233193 0.0225079 0.0235259 0.0227145
          0.0296874 0.0335046 0.0311687 0.0349859 0.0287668 0.0288346 0.0293368 0.0294047 0.0207778 0.0207083 0.0205738 0.0205043
          0.0250891 0.024913 0.0250459 0.0248699 0.0281363 0.0270484 0.0246221 0.0235342 0.00815079 0.0067381 0.0104592 0.00904655
          0.0134049 0.0108137 0.0117116 0.00912041 0.00561442 0.00449394 0.00610891 0.00498843 0.0785234 0.0791157 0.0762211 0.0768134
          0.00891465 0.00874492 0.00822967 0.00805994 0.01408 0.0141167 0.0143476 0.0143842 0.0132319 0.0135799 0.0138505 0.0141985
          0.0724924 0.0708681 0.0721795 0.0705553 0.0193335 0.018065 0.0180892 0.0168206 0.0675691 0.0658317 0.0676177 0.0658803
          0.0286466 0.0285354 0.0288357 0.0287244 0.0335592 0.0308744 0.0326581 0.0299734 0.0348945 0.0333685 0.0345894 0.0330634
          0.0355755 0.0359587 0.0312829 0.0316661 0.0846236 0.0854124 0.0835766 0.0843654 0.0152973 0.014951 0.015053 0.0147067
          0.0168089 0.0177169 0.0170581 0.0179661 0.00599052 0.00590784 0.00582903 0.00574635 0.0242526 0.024289 0.024435 0.0244715
          0.0724827 0.0721304 0.0741043 0.0737521 0.0287169 0.0288325 0.0288782 0.0289939 -0.00846134 -0.00838011 -0.00778073 -0.00769951
          0.0248345 0.0249871 0.0248815 0.025034 0.00019748 0.000242772 0.000225891 0.000271182 0.0146412 0.0144868 0.0147645 0.0146101
          0.0217488 0.0217369 0.0219505 0.0219386 0.0268817 0.0270069 0.0272273 0.0273526 0.0300804 0.0296563 0.034615 0.0341909
          0.028768 0.0287738 0.0285672 0.028573 0.0616925 0.0624226 0.0617085 0.0624386 0.0663488 0.0625803 0.0659177 0.0621492
          0.0262547 0.0249247 0.02597 0.02464 0.0483069 0.0508592 0.0477703 0.0503226 -0.00779187 -0.0061043 -0.00899254 -0.00730497
          0.015292 0.0157814 0.0156453 0.0161347 0.0274637 0.0271536 0.0274807 0.0271705 0.00575833 0.00567563 0.00558816 0.00550545
          0.0265657 0.0264887 0.0265201 0.0264431 0.00388744 0.00374986 0.00384905 0.00371147 0.0265969 0.0267136 0.0270369 0.0271537
          0.120021 0.119253 0.118172 0.117404 0.000806965 0.000676142 0.000757979 0.000627157 -0.00902491 -0.0122839 -0.00844288 -0.0117019
          0.00542788 0.00539593 0.00527776 0.0052458 0.0518113 0.050574 0.0522794 0.0510422 0.00210446 0.00204492 0.00195958 0.00190004
          0.00769552 0.0077748 0.00749682 0.00757609 0.0135492 0.0131334 0.0138538 0.013438 0.0472178 0.0498379 0.0519906 0.0546106
          0.034098 0.0312579 0.031895 0.0290549 0.113377 0.110221 0.117229 0.114074 0.00880182 0.00818018 0.00803628 0.00741464
          0.00106594 0.000484872 0.000226964 -0.000354103 0.0635876 0.0671987 0.0690286 0.0726398 0.0277431 0.0279863 0.0275649 0.027808
          0.010332 0.0105383 0.0102337 0.0104399 0.0255266 0.0254215 0.02538 0.0252749 0.00374374 0.00360408 0.00369447 0.00355481
          0.00663569 0.00583902 0.00687017 0.0060735 0.0277065 0.0273378 0.0277533 0.0273845 0.00816512 0.00791609 0.00747091 0.00722188
          0.0244729 0.0245199 0.0246513 0.0246983 0.0296014 0.029409 0.0296926 0.0295002 0.0302722 0.0300726 0.030227 0.0300274
          0.0216597 0.0214513 0.0216148 0.0214064 -0.00361111 -0.002597 -0.00198977 -0.000975653 0.00777918 0.00774111 0.00762328 0.00758521
          0.0109003 0.0111099 0.0126071 0.0128167 0.0150008 0.0152675 0.0151549 0.0154215 0.102637 0.102283 0.105529 0.105176
          0.106389 0.106865 0.108736 0.109213 0.00638886 0.00630865 0.00622639 0.00614618 0.0273809 0.0273416 0.0273093 0.02727
          0.0146547 0.0143863 0.0143318 0.0140634 -0.00424717 -0.00268697 -0.0036876 -0.00212741 0.021258 0.0219892 0.0217906 0.0225218
          0.00809759 0.00805862 0.00793954 0.00790056 0.0131297 0.0132988 0.0131706 0.0133397 0.00541443 0.00543831 0.00525973 0.0052836
          0.124533 0.124249 0.127788 0.127504 0.0473137 0.0466998 0.0452782 0.0446643 0.0276313 0.0278316 0.0280909 0.0282912
          0.0603467 0.0610279 0.0599882 0.0606694 0.0169549 0.0151237 0.0156557 0.0138245 0.0234008 0.0233966 0.023224 0.0232198
          0.0177077 0.0183601 0.0174525 0.018105 0.0116957 0.0116463 0.0118629 0.0118136 0.0134616 0.0133709 0.0132131 0.0131224
          0.0251401 0.0249977 0.025703 0.0255606 0.0465788 0.0469666 0.0480149 0.0484027 -0.000529705 -0.00300927 -0.000344554 -0.00282412
          0.0214619 0.0212535 0.0214057 0.0211973 0.0274714 0.0277188 0.0277872 0.0280347 0.0265552 0.0265052 0.022343 0.022293
          0.0583902 0.0575917 0.0581104 0.0573119 0.0297688 0.0297909 0.0300618 0.0300839 0.0112562 0.0106687 0.0105751 0.0099876
          0.0273108 0.0272863 0.0273084 0.027284 0.00753358 0.00737878 0.0075328 0.00737801 0.012753 0.0129266 0.012768 0.0129416
          0.0169463 0.0171208 0.0177827 0.0179572 -0.000236126 -0.00196568 -0.00107866 -0.00280821 0.0258826 0.0253082 0.0263499 0.0257755
          0.0130848 0.013231 0.0127477 0.012894 0.0503816 0.0501772 0.0491691 0.0489647 0.114116 0.1103 0.110774 0.106958
          0.0302414 0.0304146 0.0303529 0.0305261 0.00628698 0.0063817 0.00646028 0.00655499 0.104932 0.105401 0.102697 0.103167
          0.0898781 0.0881545 0.0908845 0.0891609 0.020798 0.0208491 0.0209797 0.0210308 0.0766689 0.0772392 0.0757349 0.0763052
          0.0306025 0.0304872 0.030676 0.0305606 0.00252121 0.00249375 0.00240126 0.0023738 0.0619053 0.0630982 0.0609094 0.0621023
          0.01087 0.0113091 0.0106607 0.0110998 0.0149019 0.0148037 0.015076 0.0149778 0.06292 0.0632946 0.0627768 0.0631514
          0.0129854 0.0157826 0.0150177 0.0178148 0.0360901 0.0349917 0.0374287 0.0363303 0.00133538 0.00134772 0.00144371 0.00145605
          0.0870896 0.0816306 0.084289 0.07883 0.028039 0.0279053 0.0281969 0.0280631 0.0264746 0.0265476 0.026579 0.026652
          0.0266079 0.023588 0.028371 0.0253511 0.0680614 0.0694575 0.0734292 0.0748254 0.0618984 0.0621522 0.0611238 0.0613776
          0.0220456 0.0217053 0.0211811 0.0208409 0.024007 0.0239107 0.023811 0.0237147 0.0220729 0.0218613 0.0220285 0.0218169
          0.0137602 0.0139891 0.0139336 0.0141625 0.0743033 0.0723134 0.0771464 0.0751565 0.0170671 0.0168958 0.0169781 0.0168068
          0.00912048 0.00906507 0.00895959 0.00890418 -0.00396305 -0.00132753 -0.004421 -0.00178548 0.0176568 0.0180848 0.0178586 0.0182866
          0.0491842 0.0500047 0.0475272 0.0483476 0.0111632 0.0111664 0.0113318 0.011335 0.039546 0.040373 0.0382635 0.0390906
          0.0247505 0.0254669 0.0251332 0.0258496 0.0236695 0.0237265 0.0238641 0.0239211 0.026432 0.0261411 0.0282859 0.0279951
          0.00496192 0.00412321 0.00571532 0.00487661 0.00527703 0.00604976 0.00805734 0.00883007 0.0182992 0.017983 0.0176246 0.0173084
          -0.00299657 -0.00511237 -0.00300089 -0.00511669 0.0222498 0.0222846 0.0224416 0.0224764 0.0249885 0.0194441 0.0236961 0.0181517
          0.0900203 0.0876628 0.0880483 0.0856908 0.0270013 0.027021 0.0271835 0.0272032 -0.00722872 -0.0066947 -0.0101756 -0.00964159
          0.0302402 0.0299831 0.0302653 0.0300082 -0.000611275 0.00082885 -0.00140941 3.07099e-05 0.010879 0.0113789 0.0102695 0.0107694
          0.0279383 0.027608 0.0278164 0.0274861 0.0332481 0.0320879 0.0336471 0.0324868 0.0579369 0.0588662 0.061162 0.0620914
          0.109487 0.106514 0.109893 0.106921 -0.00326459 -0.00466643 -0.00390233 -0.00530417 0.0273148 0.0270763 0.0273041 0.0270656
          0.00510512 0.00507843 0.00495632 0.00492962 0.0299386 0.0301395 0.0298062 0.030007 0.0128633 0.014863 0.0119389 0.0139386
          0.0784912 0.0796592 0.0729883 0.0741563 0.0570653 0.0578725 0.0580382 0.0588454 0.00653543 0.0066639 0.00655865 0.00668712
          0.0285436 0.0287012 0.0287925 0.0289501 0.0433482 0.0447869 0.0433354 0.0447742 0.0356025 0.0371011 0.0350512 0.0365498
          0.0116796 0.0115548 0.0112045 0.0110797 -0.00827565 -0.0062575 -0.00791156 -0.00589341 0.00708968 0.00770729 0.00756882 0.00818644
          0.0131127 0.0131338 0.0128552 0.0128763 0.0149742 0.0151891 0.0152622 0.015477 0.0141413 0.0144649 0.0135888 0.0139123
          0.126539 0.128816 0.126096 0.128373 0.000192958 0.00021967 0.000216239 0.00024295 0.0114229 0.0113735 0.0112752 0.0112258
          0.0273966 0.0270837 0.0273883 0.0270754 0.0402377 0.044299 0.0400837 0.044145 0.0281298 0.0277678 0.0280891 0.0277271
          0.0115763 0.0124675 0.0130525 0.0139437 0.0142955 0.0140193 0.013994 0.0137178 0.0276735 0.0275659 0.0274428 0.0273351
          -0.00574104 -0.00640072 -0.00699715 -0.00765682 0.00260576 0.00275475 0.00260901 0.002758 0.0100743 0.010227 0.0100814 0.0102341