<?xml version="1.0"?>
<VTKFile type="UnstructuredGrid" version="0.1" byte_order="LittleEndian">
  <UnstructuredGrid>
    <Piece NumberOfCells="2500" NumberOfPoints="3006">
      <CellData Scalars="waterDepth">
        <DataArray type="Float32" Name="waterDepth" NumberOfComponents="1" format="ascii">
          0.868586 0.868262 0.868263 0.868263 0.868264 0.868264 0.868264 0.868265 0.868265 0.868266 0.868266 0.868266
          0.868267 0.868267 0.868268 0.868268 0.868268 0.868269 0.868269 0.86827 0.86827 0.86827 0.868271 0.868271
          0.868272 0.868272 0.868273 0.868273 0.868273 0.868274 0.868274 0.868275 0.868275 0.868276 0.868276 0.868277
          0.868277 0.868277 0.868278 0.868278 0.868279 0.868279 0.86828 0.86828 0.868281 0.868281 0.868282 0.868282
          0.868282 0.868283 0.868283 0.868284 0.868284 0.868285 0.868285 0.868286 0.868286 0.868287 0.868287 0.868288
          0.868288 0.868289 0.868289 0.86829 0.86829 0.868291 0.868291 0.868292 0.868292 0.868293 0.868293 0.868294
          0.868295 0.868295 0.868296 0.868296 0.868297 0.868297 0.868298 0.868298 0.868299 0.868299 0.8683 0.8683
          0.868301 0.868302 0.868302 0.868303 0.868303 0.868304 0.868304 0.868305 0.868306 0.868306 0.868307 0.868307
          0.868308 0.868309 0.868309 0.86831 0.86831 0.868311 0.868312 0.868312 0.868313 0.868313 0.868314 0.868315
          0.868315 0.868316 0.868316 0.868317 0.868318 0.868318 0.868319 0.86832 0.86832 0.868321 0.868322 0.868322
          0.868323 0.868324 0.868324 0.868325 0.868326 0.868326 0.868327 0.868328 0.868328 0.868329 0.86833 0.86833
          0.868331 0.868332 0.868332 0.868333 0.868334 0.868335 0.868335 0.868336 0.868337 0.868337 0.868338 0.868339
          0.86834 0.86834 0.868341 0.868342 0.868343 0.868343 0.868344 0.868345 0.868346 0.868346 0.868347 0.868348
          0.868349 0.868349 0.86835 0.868351 0.868352 0.868353 0.868353 0.868354 0.868355 0.868356 0.868357 0.868357
          0.868358 0.868359 0.86836 0.868361 0.868361 0.868362 0.868363 0.868364 0.868365 0.868366 0.868367 0.868367
          0.868368 0.868369 0.86837 0.868371 0.868372 0.868373 0.868374 0.868374 0.868375 0.868376 0.868377 0.868378
          0.868379 0.86838 0.868381 0.868382 0.868383 0.868384 0.868384 0.868385 0.868386 0.868387 0.868388 0.868389
          0.86839 0.868391 0.868392 0.868393 0.868394 0.868395 0.868396 0.868397 0.868398 0.868399 0.8684 0.868401
          0.868402 0.868403 0.868404 0.868405 0.868406 0.868407 0.868408 0.868409 0.86841 0.868411 0.868412 0.868414
          0.868415 0.868416 0.868417 0.868418 0.868419 0.86842 0.868421 0.868422 0.868423 0.868424 0.868426 0.868427
          0.868428 0.868429 0.86843 0.868431 0.868432 0.868434 0.868435 0.868436 0.868437 0.868438 0.868439 0.868441
          0.868442 0.868443 0.868444 0.868445 0.868447 0.868448 0.868449 0.86845 0.868452 0.868453 0.868454 0.868455
          0.868457 0.868458 0.868459 0.86846 0.868462 0.868463 0.868464 0.868466 0.868467 0.868468 0.868469 0.868471
          0.868472 0.868473 0.868475 0.868476 0.868478 0.868479 0.86848 0.868482 0.868483 0.868484 0.868486 0.868487
          0.868489 0.86849 0.868491 0.868493 0.868494 0.868496 0.868497 0.868499 0.8685 0.868502 0.868503 0.868504
          0.868506 0.868507 0.868509 0.86851 0.868512 0.868513 0.868515 0.868517 0.868518 0.86852 0.868521 0.868523
          0.868524 0.868526 0.868527 0.868529 0.868531 0.868532 0.868534 0.868535 0.868537 0.868539 0.86854 0.868542
          0.868544 0.868545 0.868547 0.868549 0.86855 0.868552 0.868554 0.868555 0.868557 0.868559 0.868561 0.868562
          0.868564 0.868566 0.868568 0.868569 0.868571 0.868573 0.868575 0.868577 0.868578 0.86858 0.868582 0.868584
          0.868586 0.868588 0.868589 0.868591 0.868593 0.868595 0.868597 0.868599 0.868601 0.868603 0.868605 0.868607
          0.868608 0.86861 0.868612 0.868614 0.868616 0.868618 0.86862 0.868622 0.868624 0.868626 0.868628 0.86863
          0.868633 0.868635 0.868637 0.868639 0.868641 0.868643 0.868645 0.868647 0.868649 0.868651 0.868654 0.868656
          0.868658 0.86866 0.868662 0.868665 0.868667 0.868669 0.868671 0.868673 0.868676 0.868678 0.86868 0.868682
          0.868685 0.868687 0.868689 0.868692 0.868694 0.868696 0.868699 0.868701 0.868703 0.868706 0.868708 0.868711
          0.868713 0.868716 0.868718 0.86872 0.868723 0.868725 0.868728 0.86873 0.868733 0.868735 0.868738 0.86874
          0.868743 0.868746 0.868748 0.868751 0.868753 0.868756 0.868758 0.868761 0.868764 0.868766 0.868769 0.868772
          0.868775 0.868777 0.86878 0.868783 0.868785 0.868788 0.868791 0.868794 0.868797 0.868799 0.868802 0.868805
          0.868808 0.868811 0.868814 0.868816 0.868819 0.868822 0.868825 0.868828 0.868831 0.868834 0.868837 0.86884
          0.868843 0.868846 0.868849 0.868852 0.868855 0.868858 0.868861 0.868864 0.868868 0.868871 0.868874 0.868877
          0.86888 0.868883 0.868887 0.86889 0.868893 0.868896 0.868899 0.868903 0.868906 0.868909 0.868913 0.868916
          0.868919 0.868923 0.868926 0.868929 0.868933 0.868936 0.86894 0.868943 0.868947 0.86895 0.868954 0.868957
          0.868961 0.868964 0.868968 0.868971 0.868975 0.868979 0.868982 0.868986 0.868586 0.868262 0.868263 0.868263
          0.868264 0.868264 0.868264 0.868265 0.868265 0.868266 0.868266 0.868266 0.868267 0.868267 0.868268 0.868268
          0.868268 0.868269 0.868269 0.86827 0.86827 0.86827 0.868271 0.868271 0.868272 0.868272 0.868273 0.868273
          0.868273 0.868274 0.868274 0.868275 0.868275 0.868276 0.868276 0.868277 0.868277 0.868277 0.868278 0.868278
          0.868279 0.868279 0.86828 0.86828 0.868281 0.868281 0.868282 0.868282 0.868282 0.868283 0.868283 0.868284
          0.868284 0.868285 0.868285 0.868286 0.868286 0.868287 0.868287 0.868288 0.868288 0.868289 0.868289 0.86829
          0.86829 0.868291 0.868291 0.868292 0.868292 0.868293 0.868293 0.868294 0.868295 0.868295 0.868296 0.868296
          0.868297 0.868297 0.868298 0.868298 0.868299 0.868299 0.8683 0.8683 0.868301 0.868302 0.868302 0.868303
          0.868303 0.868304 0.868304 0.868305 0.868306 0.868306 0.868307 0.868307 0.868308 0.868309 0.868309 0.86831
          0.86831 0.868311 0.868312 0.868312 0.868313 0.868313 0.868314 0.868315 0.868315 0.868316 0.868316 0.868317
          0.868318 0.868318 0.868319 0.86832 0.86832 0.868321 0.868322 0.868322 0.868323 0.868324 0.868324 0.868325
          0.868326 0.868326 0.868327 0.868328 0.868328 0.868329 0.86833 0.86833 0.868331 0.868332 0.868332 0.868333
          0.868334 0.868335 0.868335 0.868336 0.868337 0.868337 0.868338 0.868339 0.86834 0.86834 0.868341 0.868342
          0.868343 0.868343 0.868344 0.868345 0.868346 0.868346 0.868347 0.868348 0.868349 0.868349 0.86835 0.868351
          0.868352 0.868353 0.868353 0.868354 0.868355 0.868356 0.868357 0.868357 0.868358 0.868359 0.86836 0.868361
          0.868361 0.868362 0.868363 0.868364 0.868365 0.868366 0.868367 0.868367 0.868368 0.868369 0.86837 0.868371
          0.868372 0.868373 0.868374 0.868374 0.868375 0.868376 0.868377 0.868378 0.868379 0.86838 0.868381 0.868382
          0.868383 0.868384 0.868384 0.868385 0.868386 0.868387 0.868388 0.868389 0.86839 0.868391 0.868392 0.868393
          0.868394 0.868395 0.868396 0.868397 0.868398 0.868399 0.8684 0.868401 0.868402 0.868403 0.868404 0.868405
          0.868406 0.868407 0.868408 0.868409 0.86841 0.868411 0.868412 0.868414 0.868415 0.868416 0.868417 0.868418
          0.868419 0.86842 0.868421 0.868422 0.868423 0.868424 0.868426 0.868427 0.868428 0.868429 0.86843 0.868431
          0.868432 0.868434 0.868435 0.868436 0.868437 0.868438 0.868439 0.868441 0.868442 0.868443 0.868444 0.868445
          0.868447 0.868448 0.868449 0.86845 0.868452 0.868453 0.868454 0.868455 0.868457 0.868458 0.868459 0.86846
          0.868462 0.868463 0.868464 0.868466 0.868467 0.868468 0.868469 0.868471 0.868472 0.868473 0.868475 0.868476
          0.868478 0.868479 0.86848 0.868482 0.868483 0.868484 0.868486 0.868487 0.868489 0.86849 0.868491 0.868493
          0.868494 0.868496 0.868497 0.868499 0.8685 0.868502 0.868503 0.868504 0.868506 0.868507 0.868509 0.86851
          0.868512 0.868513 0.868515 0.868517 0.868518 0.86852 0.868521 0.868523 0.868524 0.868526 0.868527 0.868529
          0.868531 0.868532 0.868534 0.868535 0.868537 0.868539 0.86854 0.868542 0.868544 0.868545 0.868547 0.868549
          0.86855 0.868552 0.868554 0.868555 0.868557 0.868559 0.868561 0.868562 0.868564 0.868566 0.868568 0.868569
          0.868571 0.868573 0.868575 0.868577 0.868578 0.86858 0.868582 0.868584 0.868586 0.868588 0.868589 0.868591
          0.868593 0.868595 0.868597 0.868599 0.868601 0.868603 0.868605 0.868607 0.868608 0.86861 0.868612 0.868614
          0.868616 0.868618 0.86862 0.868622 0.868624 0.868626 0.868628 0.86863 0.868633 0.868635 0.868637 0.868639
          0.868641 0.868643 0.868645 0.868647 0.868649 0.868651 0.868654 0.868656 0.868658 0.86866 0.868662 0.868665
          0.868667 0.868669 0.868671 0.868673 0.868676 0.868678 0.86868 0.868682 0.868685 0.868687 0.868689 0.868692
          0.868694 0.868696 0.868699 0.868701 0.868703 0.868706 0.868708 0.868711 0.868713 0.868716 0.868718 0.86872
          0.868723 0.868725 0.868728 0.86873 0.868733 0.868735 0.868738 0.86874 0.868743 0.868746 0.868748 0.868751
          0.868753 0.868756 0.868758 0.868761 0.868764 0.868766 0.868769 0.868772 0.868775 0.868777 0.86878 0.868783
          0.868785 0.868788 0.868791 0.868794 0.868797 0.868799 0.868802 0.868805 0.868808 0.868811 0.868814 0.868816
          0.868819 0.868822 0.868825 0.868828 0.868831 0.868834 0.868837 0.86884 0.868843 0.868846 0.868849 0.868852
          0.868855 0.868858 0.868861 0.868864 0.868868 0.868871 0.868874 0.868877 0.86888 0.868883 0.868887 0.86889
          0.868893 0.868896 0.868899 0.868903 0.868906 0.868909 0.868913 0.868916 0.868919 0.868923 0.868926 0.868929
          0.868933 0.868936 0.86894 0.868943 0.868947 0.86895 0.868954 0.868957 0.868961 0.868964 0.868968 0.868971
          0.868975 0.868979 0.868982 0.868986 0.868586 0.868262 0.868263 0.868263 0.868264 0.868264 0.868264 0.868265
          0.868265 0.868266 0.868266 0.868266 0.868267 0.868267 0.868268 0.868268 0.868268 0.868269 0.868269 0.86827
          0.86827 0.86827 0.868271 0.868271 0.868272 0.868272 0.868273 0.868273 0.868273 0.868274 0.868274 0.868275
          0.868275 0.868276 0.868276 0.868277 0.868277 0.868277 0.868278 0.868278 0.868279 0.868279 0.86828 0.86828
          0.868281 0.868281 0.868282 0.868282 0.868282 0.868283 0.868283 0.868284 0.868284 0.868285 0.868285 0.868286
          0.868286 0.868287 0.868287 0.868288 0.868288 0.868289 0.868289 0.86829 0.86829 0.868291 0.868291 0.868292
          0.868292 0.868293 0.868293 0.868294 0.868295 0.868295 0.868296 0.868296 0.868297 0.868297 0.868298 0.868298
          0.868299 0.868299 0.8683 0.8683 0.868301 0.868302 0.868302 0.868303 0.868303 0.868304 0.868304 0.868305
          0.868306 0.868306 0.868307 0.868307 0.868308 0.868309 0.868309 0.86831 0.86831 0.868311 0.868312 0.868312
          0.868313 0.868313 0.868314 0.868315 0.868315 0.868316 0.868316 0.868317 0.868318 0.868318 0.868319 0.86832
          0.86832 0.868321 0.868322 0.868322 0.868323 0.868324 0.868324 0.868325 0.868326 0.868326 0.868327 0.868328
          0.868328 0.868329 0.86833 0.86833 0.868331 0.868332 0.868332 0.868333 0.868334 0.868335 0.868335 0.868336
          0.868337 0.868337 0.868338 0.868339 0.86834 0.86834 0.868341 0.868342 0.868343 0.868343 0.868344 0.868345
          0.868346 0.868346 0.868347 0.868348 0.868349 0.868349 0.86835 0.868351 0.868352 0.868353 0.868353 0.868354
          0.868355 0.868356 0.868357 0.868357 0.868358 0.868359 0.86836 0.868361 0.868361 0.868362 0.868363 0.868364
          0.868365 0.868366 0.868367 0.868367 0.868368 0.868369 0.86837 0.868371 0.868372 0.868373 0.868374 0.868374
          0.868375 0.868376 0.868377 0.868378 0.868379 0.86838 0.868381 0.868382 0.868383 0.868384 0.868384 0.868385
          0.868386 0.868387 0.868388 0.868389 0.86839 0.868391 0.868392 0.868393 0.868394 0.868395 0.868396 0.868397
          0.868398 0.868399 0.8684 0.868401 0.868402 0.868403 0.868404 0.868405 0.868406 0.868407 0.868408 0.868409
          0.86841 0.868411 0.868412 0.868414 0.868415 0.868416 0.868417 0.868418 0.868419 0.86842 0.868421 0.868422
          0.868423 0.868424 0.868426 0.868427 0.868428 0.868429 0.86843 0.868431 0.868432 0.868434 0.868435 0.868436
          0.868437 0.868438 0.868439 0.868441 0.868442 0.868443 0.868444 0.868445 0.868447 0.868448 0.868449 0.86845
          0.868452 0.868453 0.868454 0.868455 0.868457 0.868458 0.868459 0.86846 0.868462 0.868463 0.868464 0.868466
          0.868467 0.868468 0.868469 0.868471 0.868472 0.868473 0.868475 0.868476 0.868478 0.868479 0.86848 0.868482
          0.868483 0.868484 0.868486 0.868487 0.868489 0.86849 0.868491 0.868493 0.868494 0.868496 0.868497 0.868499
          0.8685 0.868502 0.868503 0.868504 0.868506 0.868507 0.868509 0.86851 0.868512 0.868513 0.868515 0.868517
          0.868518 0.86852 0.868521 0.868523 0.868524 0.868526 0.868527 0.868529 0.868531 0.868532 0.868534 0.868535
          0.868537 0.868539 0.86854 0.868542 0.868544 0.868545 0.868547 0.868549 0.86855 0.868552 0.868554 0.868555
          0.868557 0.868559 0.868561 0.868562 0.868564 0.868566 0.868568 0.868569 0.868571 0.868573 0.868575 0.868577
          0.868578 0.86858 0.868582 0.868584 0.868586 0.868588 0.868589 0.868591 0.868593 0.868595 0.868597 0.868599
          0.868601 0.868603 0.868605 0.868607 0.868608 0.86861 0.868612 0.868614 0.868616 0.868618 0.86862 0.868622
          0.868624 0.868626 0.868628 0.86863 0.868633 0.868635 0.868637 0.868639 0.868641 0.868643 0.868645 0.868647
          0.868649 0.868651 0.868654 0.868656 0.868658 0.86866 0.868662 0.868665 0.868667 0.868669 0.868671 0.868673
          0.868676 0.868678 0.86868 0.868682 0.868685 0.868687 0.868689 0.868692 0.868694 0.868696 0.868699 0.868701
          0.868703 0.868706 0.868708 0.868711 0.868713 0.868716 0.868718 0.86872 0.868723 0.868725 0.868728 0.86873
          0.868733 0.868735 0.868738 0.86874 0.868743 0.868746 0.868748 0.868751 0.868753 0.868756 0.868758 0.868761
          0.868764 0.868766 0.868769 0.868772 0.868775 0.868777 0.86878 0.868783 0.868785 0.868788 0.868791 0.868794
          0.868797 0.868799 0.868802 0.868805 0.868808 0.868811 0.868814 0.868816 0.868819 0.868822 0.868825 0.868828
          0.868831 0.868834 0.868837 0.86884 0.868843 0.868846 0.868849 0.868852 0.868855 0.868858 0.868861 0.868864
          0.868868 0.868871 0.868874 0.868877 0.86888 0.868883 0.868887 0.86889 0.868893 0.868896 0.868899 0.868903
          0.868906 0.868909 0.868913 0.868916 0.868919 0.868923 0.868926 0.868929 0.868933 0.868936 0.86894 0.868943
          0.868947 0.86895 0.868954 0.868957 0.868961 0.868964 0.868968 0.868971 0.868975 0.868979 0.868982 0.868986
          0.868586 0.868262 0.868263 0.868263 0.868264 0.868264 0.868264 0.868265 0.868265 0.868266 0.868266 0.868266
          0.868267 0.868267 0.868268 0.868268 0.868268 0.868269 0.868269 0.86827 0.86827 0.86827 0.868271 0.868271
          0.868272 0.868272 0.868273 0.868273 0.868273 0.868274 0.868274 0.868275 0.868275 0.868276 0.868276 0.868277
          0.868277 0.868277 0.868278 0.868278 0.868279 0.868279 0.86828 0.86828 0.868281 0.868281 0.868282 0.868282
          0.868282 0.868283 0.868283 0.868284 0.868284 0.868285 0.868285 0.868286 0.868286 0.868287 0.868287 0.868288
          0.868288 0.868289 0.868289 0.86829 0.86829 0.868291 0.868291 0.868292 0.868292 0.868293 0.868293 0.868294
          0.868295 0.868295 0.868296 0.868296 0.868297 0.868297 0.868298 0.868298 0.868299 0.868299 0.8683 0.8683
          0.868301 0.868302 0.868302 0.868303 0.868303 0.868304 0.868304 0.868305 0.868306 0.868306 0.868307 0.868307
          0.868308 0.868309 0.868309 0.86831 0.86831 0.868311 0.868312 0.868312 0.868313 0.868313 0.868314 0.868315
          0.868315 0.868316 0.868316 0.868317 0.868318 0.868318 0.868319 0.86832 0.86832 0.868321 0.868322 0.868322
          0.868323 0.868324 0.868324 0.868325 0.868326 0.868326 0.868327 0.868328 0.868328 0.868329 0.86833 0.86833
          0.868331 0.868332 0.868332 0.868333 0.868334 0.868335 0.868335 0.868336 0.868337 0.868337 0.868338 0.868339
          0.86834 0.86834 0.868341 0.868342 0.868343 0.868343 0.868344 0.868345 0.868346 0.868346 0.868347 0.868348
          0.868349 0.868349 0.86835 0.868351 0.868352 0.868353 0.868353 0.868354 0.868355 0.868356 0.868357 0.868357
          0.868358 0.868359 0.86836 0.868361 0.868361 0.868362 0.868363 0.868364 0.868365 0.868366 0.868367 0.868367
          0.868368 0.868369 0.86837 0.868371 0.868372 0.868373 0.868374 0.868374 0.868375 0.868376 0.868377 0.868378
          0.868379 0.86838 0.868381 0.868382 0.868383 0.868384 0.868384 0.868385 0.868386 0.868387 0.868388 0.868389
          0.86839 0.868391 0.868392 0.868393 0.868394 0.868395 0.868396 0.868397 0.868398 0.868399 0.8684 0.868401
          0.868402 0.868403 0.868404 0.868405 0.868406 0.868407 0.868408 0.868409 0.86841 0.868411 0.868412 0.868414
          0.868415 0.868416 0.868417 0.868418 0.868419 0.86842 0.868421 0.868422 0.868423 0.868424 0.868426 0.868427
          0.868428 0.868429 0.86843 0.868431 0.868432 0.868434 0.868435 0.868436 0.868437 0.868438 0.868439 0.868441
          0.868442 0.868443 0.868444 0.868445 0.868447 0.868448 0.868449 0.86845 0.868452 0.868453 0.868454 0.868455
          0.868457 0.868458 0.868459 0.86846 0.868462 0.868463 0.868464 0.868466 0.868467 0.868468 0.868469 0.868471
          0.868472 0.868473 0.868475 0.868476 0.868478 0.868479 0.86848 0.868482 0.868483 0.868484 0.868486 0.868487
          0.868489 0.86849 0.868491 0.868493 0.868494 0.868496 0.868497 0.868499 0.8685 0.868502 0.868503 0.868504
          0.868506 0.868507 0.868509 0.86851 0.868512 0.868513 0.868515 0.868517 0.868518 0.86852 0.868521 0.868523
          0.868524 0.868526 0.868527 0.868529 0.868531 0.868532 0.868534 0.868535 0.868537 0.868539 0.86854 0.868542
          0.868544 0.868545 0.868547 0.868549 0.86855 0.868552 0.868554 0.868555 0.868557 0.868559 0.868561 0.868562
          0.868564 0.868566 0.868568 0.868569 0.868571 0.868573 0.868575 0.868577 0.868578 0.86858 0.868582 0.868584
          0.868586 0.868588 0.868589 0.868591 0.868593 0.868595 0.868597 0.868599 0.868601 0.868603 0.868605 0.868607
          0.868608 0.86861 0.868612 0.868614 0.868616 0.868618 0.86862 0.868622 0.868624 0.868626 0.868628 0.86863
          0.868633 0.868635 0.868637 0.868639 0.868641 0.868643 0.868645 0.868647 0.868649 0.868651 0.868654 0.868656
          0.868658 0.86866 0.868662 0.868665 0.868667 0.868669 0.868671 0.868673 0.868676 0.868678 0.86868 0.868682
          0.868685 0.868687 0.868689 0.868692 0.868694 0.868696 0.868699 0.868701 0.868703 0.868706 0.868708 0.868711
          0.868713 0.868716 0.868718 0.86872 0.868723 0.868725 0.868728 0.86873 0.868733 0.868735 0.868738 0.86874
          0.868743 0.868746 0.868748 0.868751 0.868753 0.868756 0.868758 0.868761 0.868764 0.868766 0.868769 0.868772
          0.868775 0.868777 0.86878 0.868783 0.868785 0.868788 0.868791 0.868794 0.868797 0.868799 0.868802 0.868805
          0.868808 0.868811 0.868814 0.868816 0.868819 0.868822 0.868825 0.868828 0.868831 0.868834 0.868837 0.86884
          0.868843 0.868846 0.868849 0.868852 0.868855 0.868858 0.868861 0.868864 0.868868 0.868871 0.868874 0.868877
          0.86888 0.868883 0.868887 0.86889 0.868893 0.868896 0.868899 0.868903 0.868906 0.868909 0.868913 0.868916
          0.868919 0.868923 0.868926 0.868929 0.868933 0.868936 0.86894 0.868943 0.868947 0.86895 0.868954 0.868957
          0.868961 0.868964 0.868968 0.868971 0.868975 0.868979 0.868982 0.868986 0.868586 0.868262 0.868263 0.868263
          0.868264 0.868264 0.868264 0.868265 0.868265 0.868266 0.868266 0.868266 0.868267 0.868267 0.868268 0.868268
          0.868268 0.868269 0.868269 0.86827 0.86827 0.86827 0.868271 0.868271 0.868272 0.868272 0.868273 0.868273
          0.868273 0.868274 0.868274 0.868275 0.868275 0.868276 0.868276 0.868277 0.868277 0.868277 0.868278 0.868278
          0.868279 0.868279 0.86828 0.86828 0.868281 0.868281 0.868282 0.868282 0.868282 0.868283 0.868283 0.868284
          0.868284 0.868285 0.868285 0.868286 0.868286 0.868287 0.868287 0.868288 0.868288 0.868289 0.868289 0.86829
          0.86829 0.868291 0.868291 0.868292 0.868292 0.868293 0.868293 0.868294 0.868295 0.868295 0.868296 0.868296
          0.868297 0.868297 0.868298 0.868298 0.868299 0.868299 0.8683 0.8683 0.868301 0.868302 0.868302 0.868303
          0.868303 0.868304 0.868304 0.868305 0.868306 0.868306 0.868307 0.868307 0.868308 0.868309 0.868309 0.86831
          0.86831 0.868311 0.868312 0.868312 0.868313 0.868313 0.868314 0.868315 0.868315 0.868316 0.868316 0.868317
          0.868318 0.868318 0.868319 0.86832 0.86832 0.868321 0.868322 0.868322 0.868323 0.868324 0.868324 0.868325
          0.868326 0.868326 0.868327 0.868328 0.868328 0.868329 0.86833 0.86833 0.868331 0.868332 0.868332 0.868333
          0.868334 0.868335 0.868335 0.868336 0.868337 0.868337 0.868338 0.868339 0.86834 0.86834 0.868341 0.868342
          0.868343 0.868343 0.868344 0.868345 0.868346 0.868346 0.868347 0.868348 0.868349 0.868349 0.86835 0.868351
          0.868352 0.868353 0.868353 0.868354 0.868355 0.868356 0.868357 0.868357 0.868358 0.868359 0.86836 0.868361
          0.868361 0.868362 0.868363 0.868364 0.868365 0.868366 0.868367 0.868367 0.868368 0.868369 0.86837 0.868371
          0.868372 0.868373 0.868374 0.868374 0.868375 0.868376 0.868377 0.868378 0.868379 0.86838 0.868381 0.868382
          0.868383 0.868384 0.868384 0.868385 0.868386 0.868387 0.868388 0.868389 0.86839 0.868391 0.868392 0.868393
          0.868394 0.868395 0.868396 0.868397 0.868398 0.868399 0.8684 0.868401 0.868402 0.868403 0.868404 0.868405
          0.868406 0.868407 0.868408 0.868409 0.86841 0.868411 0.868412 0.868414 0.868415 0.868416 0.868417 0.868418
          0.868419 0.86842 0.868421 0.868422 0.868423 0.868424 0.868426 0.868427 0.868428 0.868429 0.86843 0.868431
          0.868432 0.868434 0.868435 0.868436 0.868437 0.868438 0.868439 0.868441 0.868442 0.868443 0.868444 0.868445
          0.868447 0.868448 0.868449 0.86845 0.868452 0.868453 0.868454 0.868455 0.868457 0.868458 0.868459 0.86846
          0.868462 0.868463 0.868464 0.868466 0.868467 0.868468 0.868469 0.868471 0.868472 0.868473 0.868475 0.868476
          0.868478 0.868479 0.86848 0.868482 0.868483 0.868484 0.868486 0.868487 0.868489 0.86849 0.868491 0.868493
          0.868494 0.868496 0.868497 0.868499 0.8685 0.868502 0.868503 0.868504 0.868506 0.868507 0.868509 0.86851
          0.868512 0.868513 0.868515 0.868517 0.868518 0.86852 0.868521 0.868523 0.868524 0.868526 0.868527 0.868529
          0.868531 0.868532 0.868534 0.868535 0.868537 0.868539 0.86854 0.868542 0.868544 0.868545 0.868547 0.868549
          0.86855 0.868552 0.868554 0.868555 0.868557 0.868559 0.868561 0.868562 0.868564 0.868566 0.868568 0.868569
          0.868571 0.868573 0.868575 0.868577 0.868578 0.86858 0.868582 0.868584 0.868586 0.868588 0.868589 0.868591
          0.868593 0.868595 0.868597 0.868599 0.868601 0.868603 0.868605 0.868607 0.868608 0.86861 0.868612 0.868614
          0.868616 0.868618 0.86862 0.868622 0.868624 0.868626 0.868628 0.86863 0.868633 0.868635 0.868637 0.868639
          0.868641 0.868643 0.868645 0.868647 0.868649 0.868651 0.868654 0.868656 0.868658 0.86866 0.868662 0.868665
          0.868667 0.868669 0.868671 0.868673 0.868676 0.868678 0.86868 0.868682 0.868685 0.868687 0.868689 0.868692
          0.868694 0.868696 0.868699 0.868701 0.868703 0.868706 0.868708 0.868711 0.868713 0.868716 0.868718 0.86872
          0.868723 0.868725 0.868728 0.86873 0.868733 0.868735 0.868738 0.86874 0.868743 0.868746 0.868748 0.868751
          0.868753 0.868756 0.868758 0.868761 0.868764 0.868766 0.868769 0.868772 0.868775 0.868777 0.86878 0.868783
          0.868785 0.868788 0.868791 0.868794 0.868797 0.868799 0.868802 0.868805 0.868808 0.868811 0.868814 0.868816
          0.868819 0.868822 0.868825 0.868828 0.868831 0.868834 0.868837 0.86884 0.868843 0.868846 0.868849 0.868852
          0.868855 0.868858 0.868861 0.868864 0.868868 0.868871 0.868874 0.868877 0.86888 0.868883 0.868887 0.86889
          0.868893 0.868896 0.868899 0.868903 0.868906 0.868909 0.868913 0.868916 0.868919 0.868923 0.868926 0.868929
          0.868933 0.868936 0.86894 0.868943 0.868947 0.86895 0.868954 0.868957 0.868961 0.868964 0.868968 0.868971
          0.868975 0.868979 0.868982 0.868986
        </DataArray>
        <DataArray type="Float32" Name="velocityX" NumberOfComponents="1" format="ascii">
          1.14962 1.15071 1.15071 1.15071 1.15071 1.15071 1.15071 1.15071 1.1507 1.1507 1.1507 1.1507
          1.1507 1.1507 1.1507 1.1507 1.1507 1.1507 1.1507 1.1507 1.1507 1.1507 1.1507 1.1507
          1.1507 1.1507 1.1507 1.15069 1.15069 1.15069 1.15069 1.15069 1.15069 1.15069 1.15069 1.15069
          1.15069 1.15069 1.15069 1.15069 1.15069 1.15069 1.15069 1.15069 1.15068 1.15068 1.15068 1.15068
          1.15068 1.15068 1.15068 1.15068 1.15068 1.15068 1.15068 1.15068 1.15068 1.15068 1.15068 1.15067
          1.15067 1.15067 1.15067 1.15067 1.15067 1.15067 1.15067 1.15067 1.15067 1.15067 1.15067 1.15067
          1.15067 1.15067 1.15066 1.15066 1.15066 1.15066 1.15066 1.15066 1.15066 1.15066 1.15066 1.15066
          1.15066 1.15066 1.15066 1.15066 1.15065 1.15065 1.15065 1.15065 1.15065 1.15065 1.15065 1.15065
          1.15065 1.15065 1.15065 1.15065 1.15065 1.15064 1.15064 1.15064 1.15064 1.15064 1.15064 1.15064
          1.15064 1.15064 1.15064 1.15064 1.15064 1.15063 1.15063 1.15063 1.15063 1.15063 1.15063 1.15063
          1.15063 1.15063 1.15063 1.15063 1.15062 1.15062 1.15062 1.15062 1.15062 1.15062 1.15062 1.15062
          1.15062 1.15062 1.15062 1.15061 1.15061 1.15061 1.15061 1.15061 1.15061 1.15061 1.15061 1.15061
          1.15061 1.15061 1.1506 1.1506 1.1506 1.1506 1.1506 1.1506 1.1506 1.1506 1.1506 1.1506
          1.15059 1.15059 1.15059 1.15059 1.15059 1.15059 1.15059 1.15059 1.15059 1.15058 1.15058 1.15058
          1.15058 1.15058 1.15058 1.15058 1.15058 1.15058 1.15058 1.15057 1.15057 1.15057 1.15057 1.15057
          1.15057 1.15057 1.15057 1.15056 1.15056 1.15056 1.15056 1.15056 1.15056 1.15056 1.15056 1.15056
          1.15055 1.15055 1.15055 1.15055 1.15055 1.15055 1.15055 1.15055 1.15054 1.15054 1.15054 1.15054
          1.15054 1.15054 1.15054 1.15054 1.15053 1.15053 1.15053 1.15053 1.15053 1.15053 1.15053 1.15052
          1.15052 1.15052 1.15052 1.15052 1.15052 1.15052 1.15052 1.15051 1.15051 1.15051 1.15051 1.15051
          1.15051 1.15051 1.1505 1.1505 1.1505 1.1505 1.1505 1.1505 1.1505 1.15049 1.15049 1.15049
          1.15049 1.15049 1.15049 1.15049 1.15048 1.15048 1.15048 1.15048 1.15048 1.15048 1.15047 1.15047
          1.15047 1.15047 1.15047 1.15047 1.15046 1.15046 1.15046 1.15046 1.15046 1.15046 1.15045 1.15045
          1.15045 1.15045 1.15045 1.15045 1.15044 1.15044 1.15044 1.15044 1.15044 1.15044 1.15043 1.15043
          1.15043 1.15043 1.15043 1.15043 1.15042 1.15042 1.15042 1.15042 1.15042 1.15041 1.15041 1.15041
          1.15041 1.15041 1.15041 1.1504 1.1504 1.1504 1.1504 1.1504 1.15039 1.15039 1.15039 1.15039
          1.15039 1.15038 1.15038 1.15038 1.15038 1.15038 1.15037 1.15037 1.15037 1.15037 1.15037 1.15036
          1.15036 1.15036 1.15036 1.15036 1.15035 1.15035 1.15035 1.15035 1.15035 1.15034 1.15034 1.15034
          1.15034 1.15033 1.15033 1.15033 1.15033 1.15033 1.15032 1.15032 1.15032 1.15032 1.15031 1.15031
          1.15031 1.15031 1.1503 1.1503 1.1503 1.1503 1.1503 1.15029 1.15029 1.15029 1.15029 1.15028
          1.15028 1.15028 1.15028 1.15027 1.15027 1.15027 1.15027 1.15026 1.15026 1.15026 1.15026 1.15025
          1.15025 1.15025 1.15025 1.15024 1.15024 1.15024 1.15024 1.15023 1.15023 1.15023 1.15022 1.15022
          1.15022 1.15022 1.15021 1.15021 1.15021 1.15021 1.1502 1.1502 1.1502 1.15019 1.15019 1.15019
          1.15019 1.15018 1.15018 1.15018 1.15017 1.15017 1.15017 1.15017 1.15016 1.15016 1.15016 1.15015
          1.15015 1.15015 1.15014 1.15014 1.15014 1.15013 1.15013 1.15013 1.15013 1.15012 1.15012 1.15012
          1.15011 1.15011 1.15011 1.1501 1.1501 1.1501 1.15009 1.15009 1.15009 1.15008 1.15008 1.15008
          1.15007 1.15007 1.15007 1.15006 1.15006 1.15006 1.15005 1.15005 1.15005 1.15004 1.15004 1.15004
          1.15003 1.15003 1.15002 1.15002 1.15002 1.15001 1.15001 1.15001 1.15 1.15 1.15 1.14999
          1.14999 1.14998 1.14998 1.14998 1.14997 1.14997 1.14996 1.14996 1.14996 1.14995 1.14995 1.14995
          1.14994 1.14994 1.14993 1.14993 1.14993 1.14992 1.14992 1.14991 1.14991 1.1499 1.1499 1.1499
          1.14989 1.14989 1.14988 1.14988 1.14988 1.14987 1.14987 1.14986 1.14986 1.14985 1.14985 1.14985
          1.14984 1.14984 1.14983 1.14983 1.14982 1.14982 1.14981 1.14981 1.1498 1.1498 1.1498 1.14979
          1.14979 1.14978 1.14978 1.14977 1.14977 1.14976 1.14976 1.14975 1.14962 1.15071 1.15071 1.15071
          1.15071 1.15071 1.15071 1.15071 1.1507 1.1507 1.1507 1.1507 1.1507 1.1507 1.1507 1.1507
          1.1507 1.1507 1.1507 1.1507 1.1507 1.1507 1.1507 1.1507 1.1507 1.1507 1.1507 1.15069
          1.15069 1.15069 1.15069 1.15069 1.15069 1.15069 1.15069 1.15069 1.15069 1.15069 1.15069 1.15069
          1.15069 1.15069 1.15069 1.15069 1.15068 1.15068 1.15068 1.15068 1.15068 1.15068 1.15068 1.15068
          1.15068 1.15068 1.15068 1.15068 1.15068 1.15068 1.15068 1.15067 1.15067 1.15067 1.15067 1.15067
          1.15067 1.15067 1.15067 1.15067 1.15067 1.15067 1.15067 1.15067 1.15067 1.15067 1.15066 1.15066
          1.15066 1.15066 1.15066 1.15066 1.15066 1.15066 1.15066 1.15066 1.15066 1.15066 1.15066 1.15066
          1.15065 1.15065 1.15065 1.15065 1.15065 1.15065 1.15065 1.15065 1.15065 1.15065 1.15065 1.15065