<?xml version="1.0"?>
<VTKFile type="UnstructuredGrid" version="0.1" byte_order="LittleEndian">
  <UnstructuredGrid>
    <Piece NumberOfCells="1928" NumberOfPoints="5784">
      <PointData Scalars="S_aq">
        <DataArray type="Float32" Name="S_aq" NumberOfComponents="1" format="ascii">
          0.5 0.705087 0.865667 0.5 0.5 0.705087 0.865667 0.705087 0.954029 0.999133 0.865667 0.999273
          0.865667 0.954029 0.999273 0.954029 0.999985 0.999273 1 0.999273 0.999985 0.5 0.725879 0.705087
          0.954029 0.705087 0.725879 0.5 0.5 0.725879 0.807182 0.975644 0.725879 0.954029 0.725879 0.975644
          0.954029 0.975644 0.999985 0.999997 0.999985 0.975644 1 0.999133 1 0.999133 0.999273 1
          1 1 1 1 1 0.999273 1 1 1 1 1 1
          1 1 1 1 1 1 1 1 1 1 1 1
          1 1 1 1 1 1 1 1 1 1 0.999985 1
          1 1 1 0.999997 1 0.999985 1 1 1 1 1 1
          1 1 1 1 1 1 1 1 1 0.5 0.807182 0.725879
          0.5 0.720121 0.807182 0.5 0.5 0.720121 0.807182 0.720121 0.97207 0.807182 0.996507 0.975644
          0.999997 0.975644 0.996507 0.999997 0.996507 1 0.807182 0.97207 0.996507 0.996507 0.97207 0.999958
          0.996507 0.999958 1 0.5 0.681859 0.720121 0.5 0.5 0.681859 0.938894 0.720121 0.681859
          0.938894 0.97207 0.720121 0.5 0.756985 0.681859 0.938894 0.681859 0.756985 0.938894 0.999958 0.97207
          0.938894 0.991421 0.999958 0.938894 0.756985 0.991421 1 0.999958 0.991421 0.999997 1 1
          1 1 1 1 1 1 0.996507 1 1 1 1 1
          1 1 1 1 1 1 1 1 1 1 1 0.999958
          1 1 1 1 1 1 1 1 1 1 1 1
          1 1 1 1 1 1 1 1 1 1 1 1
          1 1 1 1 1 1 1 1 1 1 1 1
          1 1 1 1 1 1 1 1 1 1 1 1
          1 1 1 1 1 1 1 1 1 1 1 1
          1 1 1 1 1 1 1 1 1 1 1 1
          1 1 1 1 1 1 1 1 1 1 1 1
          1 1 1 1 1 1 1 1 1 1 1 1
          1 1 1 1 1 1 1 1 1 1 1 1
          1 1 1 1 1 1 1 1 1 1 1 1
          1 1 1 1 1 1 1 1 1 1 1 1
          1 1 1 1 1 1 1 1 1 1 1 1
          1 1 1 1 1 1 1 1 1 1 1 1
          1 1 1 1 1 1 1 1 1 1 1 1
          1 1 1 1 1 1 1 1 1 1 1 1
          1 1 1 1 1 1 1 1 1 1 1 1
          1 1 1 1 1 1 1 1 1 1 1 1
          1 1 1 1 1 1 1 1 1 1 1 1
          1 1 1 1 1 1 1 1 1 1 1 1
          1 1 1 1 1 1 1 1 1 1 1 1
          1 1 1 1 1 1 1 1 1 1 1 1
          1 1 1 1 1 1 1 1 1 1 1 1
          1 1 1 1 1 1 1 1 1 1 1 1
          1 1 1 1 1 1 1 1 1 1 1 1
          1 1 1 1 1 1 1 1 1 1 1 1
          1 1 1 1 1 1 1 1 1 1 1 1
          1 1 1 1 1 1 1 1 1 1 1 1
          1 1 1 1 1 1 1 1 1 1 1 1
          1 1 1 1 1 1 1 1 1 1 1 1
          1 1 1 1 1 1 1 1 1 1 1 1
          1 1 1 1 1 1 1 1 1 1 1 1
          1 1 1 1 1 1 1 1 1 1 1 1
          1 1 1 1 1 1 1 1 1 1 1 1
          1 1 1 1 1 1 1 1 1 1 1 1
          1 1 1 1 1 1 1 1 1 1 1 1
          1 1 1 1 1 1 1 1 1 1 1 1
          1 1 1 1 1 1 1 1 1 1 1 1
          1 1 1 1 1 1 1 1 1 1 1 1
          1 1 1 1 1 1 1 1 1 1 1 1
          1 1 1 1 1 1 1 1 1 1 1 1
          1 1 1 1 1 1 1 1 1 1 1 1
          1 1 1 1 1 1 1 1 1 1 1 1
          1 1 1 1 1 1 1 1 1 1 1 1
          1 1 1 1 1 1 1 1 1 1 1 1
          1 1 1 1 1 1 1 1 1 1 1 1
          1 1 1 1 1 1 1 1 1 1 1 1
          1 1 1 1 1 1 1 1 1 1 1 1
          1 1 1 1 1 1 1 1 1 1 1 1
          1 1 1 1 1 1 1 1 1 1 1 1
          1 1 1 1 1 1 1 1 1 1 1 1
          1 1 1 1 1 1 1 1 1 1 1 1
          1 1 1 1 1 1 1 1 1 1 1 1
          1 1 1 1 1 1 1 1 1 1 1 1
          1 1 1 1 1 1 1 1 1 1 1 1
          1 1 1 1 1 1 1 1 1 1 1 1
          1 1 1 1 1 1 1 1 1 1 1 1
          1 1 1 1 1 1 1 1 1 1 1 1
          1 1 1 1 1 1 1 1 1 1 1 1
          1 1 1 1 1 1 1 1 1 1 1 1
          1 1 1 1 1 1 1 1 1 1 1 1
          1 1 1 1 1 1 1 1 1 1 1 1
          1 1 1 0.5 0.5 0.756985 0.5 0.705055 0.756985 0.971512 0.756985 0.705055
          0.5 0.5 0.705055 0.5 0.778186 0.705055 0.971512 0.705055 0.778186 0.971512 0.991421 0.756985
          1 0.991421 0.999998 0.971512 0.999998 0.991421 0.971512 0.778186 0.985411 0.971512 0.985411 0.999998
          0.971512 0.999998 0.999998 0.5 0.668849 0.778186 0.5 0.5 0.668849 0.778186 0.668849 0.898325
          0.778186 0.898325 0.99465 0.5 0.658288 0.668849 0.5 0.5 0.658288 0.845122 0.898325 0.668849
          0.845122 0.997386 0.898325 0.845122 0.668849 0.658288 0.845122 0.875112 0.997386 0.778186 0.99465 0.985411
          0.999998 0.985411 0.99465 0.999998 1 1 0.999998 0.99465 1 0.99465 0.898325 0.997386
          1 0.99465 0.997386 1 0.997386 0.999182 1 1 0.99465 1 1 1
          1 0.999998 1 1 1 0.999998 0.999998 1 0.999998 1 0.999998 1
          1 1 1 1 1 1 1 1 1 1 1 1
          1 1 1 1 1 1 1 1 1 1 1 1
          1 1 1 1 1 1 1 1 1 1 1 1
          1 1 1 1 1 1 1 1 1 1 1 1
          1 1 1 1 1 1 1 1 1 1 1 1
          1 1 1 1 1 1 1 1 1 1 1 1
          1 1 1 1 1 1 0.5 0.66391 0.658288 0.5 0.5 0.66391
          0.845122 0.658288 0.875112 0.66391 0.875112 0.658288 0.934042 0.875112 0.66391 0.5 0.619531 0.66391
          0.66391 0.619531 0.767571 0.5 0.5 0.619531 0.5 0.598258 0.619531 0.745021 0.619531 0.598258
          0.934042 0.66391 0.767571 0.745021 0.767571 0.619531 0.745021 0.978374 0.767571 0.934042 0.767571 0.978374
          0.999182 0.997386 0.875112 0.934042 0.999182 0.875112 0.934042 0.999932 0.999182 0.999182 0.999932 1
          1 0.999182 1 1 1 1 1 1 0.999932 1 1 1
          0.934042 0.978374 0.999932 0.999996 0.999932 0.978374 0.999996 1 0.999932 1 0.999932 1
          1 1 1 1 1 1 1 1 1 0.5 0.5 0.598258
          0.745021 0.598258 0.661926 0.5 0.661926 0.598258 1 0.661926 0.5 0.745021 0.866743 0.974609
          0.745021 0.974609 0.978374 0.745021 0.661926 0.866743 1 0.866743 0.661926 0.974609 0.866743 0.998649
          1 0.998649 0.866743 1 1 0.5 1 0.669285 1 1 1 0.661926
          1 0.800377 1 1 0.5 0.669285 1 0.669285 0.800377 0.712255 0.800377 0.669285
          1 1 0.866743 1 0.800377 0.961472 1 0.961472 1 0.712255 0.961472 0.800377
          1 0.961472 0.999981 0.962 0.999981 0.961472 0.999996 0.978374 0.974609 0.999996 0.974609 0.998649
          1 0.999996 0.998649 0.999996 1 1 0.999996 1 1 1 1 0.998649
          1 1 0.998649 1 1 1 1 1 1 1 1 1
          1 1 1 1 1 1 1 1 1 1 1 1
          1 1 1 1 0.999981 1 1 0.999981 1 1 1 1
          1 1 1 1 1 1 1 1 0.999981 1 1 1
          1 1 1 1 1 1 1 1 1 1 1 1
          1 1 1 1 1 1 1 1 1 1 1 1
          1 1 1 1 1 1 1 1 1 1 1 1
          1 1 1 1 1 1 1 1 1 1 1 1
          1 1 1 1 1 1 1 1 1 1 1 1
          1 1 1 1 1 1 1 1 1 1 1 1
          1 1 1 1 1 1 1 1 1 1 1 1
          1 1 1 1 1 1 1 1 1 1 1 1
          1 1 1 1 1 1 1 1 1 1 1 1
          1 1 1 1 1 1 1 1 1 1 1 1
          1 1 1 1 1 1 1 1 1 1 1 1
          1 1 1 1 1 1 1 1 1 1 1 1
          1 1 1 1 1 1 1 1 1 1 1 1
          1 1 1 1 1 1 1 1 1 1 1 1
          1 1 1 1 1 1 1 1 1 1 1 1
          1 1 1 1 1 1 1 1 1 1 1 1
          1 1 1 1 1 1 1 1 1 1 1 1
          1 1 1 1 1 1 1 1 1 1 1 1
          1 1 1 1 1 1 1 1 1 1 1 1
          1 1 1 1 1 1 1 1 1 1 1 1
          1 1 1 1 1 1 1 1 1 1 1 1
          1 1 1 1 1 1 1 1 1 1 1 1
          1 1 1 1 1 1 1 1 1 1 1 1
          1 1 1 1 1 1 1 1 1 1 1 1
          1 1 1 1 1 1 1 1 1 1 1 1
          1 1 1 1 1 1 1 1 1 1 1 1
          1 1 1 1 1 1 1 1 1 1 1 1
          1 1 1 1 1 1 1 1 1 1 1 1
          1 1 1 1 1 1 1 1 1 1 1 1
          1 1 1 1 1 1 1 1 1 1 1 1
          1 1 1 1 1 1 1 1 1 1 1 1
          1 1 1 1 1 1 1 1 1 1 1 1
          1 1 1 1 1 1 1 1 1 1 1 1
          1 1 1 1 1 1 1 1 1 1 1 1
          1 1 1 1 1 1 1 1 1 1 1 1
          1 1 1 1 1 1 1 1 1 1 1 1
          1 1 1 1 1 1 1 1 1 1 1 1
          1 1 1 1 1 1 1 1 1 1 1 1
          1 1 1 1 1 1 1 1 1 1 1 1
          1 1 1 1 1 1 1 1 1 1 1 1
          1 1 1 1 1 1 1 1 1 1 1 1
          1 1 1 1 1 1 1 1 1 1 1 1
          1 1 1 1 1 1 1 1 1 1 1 1
          1 1 1 1 1 1 1 1 1 1 1 1
          1 1 1 1 1 1 1 1 1 1 1 1
          1 1 1 1 1 1 1 1 1 1 1 1
          1 1 1 1 1 1 1 1 1 1 1 1
          1 1 1 1 1 1 1 1 1 1 1 1
          1 1 1 1 1 1 1 1 1 1 1 1
          1 1 1 1 1 1 1 1 1 1 1 1
          1 1 1 1 1 1 1 1 1 1 1 1
          1 1 1 1 1 1 1 1 1 1 1 1
          1 1 1 1 1 1 1 1 1 1 1 1
          1 1 1 1 1 1 1 1 1 1 1 1
          1 1 1 1 1 1 1 1 1 1 1 1
          1 1 1 1 1 1 1 1 1 1 1 1
          1 1 1 1 1 1 1 1 1 1 1 1
          1 1 1 1 1 1 1 1 1 1 1 1
          1 1 1 1 1 1 1 1 1 1 1 1
          1 1 1 1 1 1 1 1 1 1 1 1
          1 1 1 1 1 1 1 1 1 1 1 1
          1 1 1 1 1 1 1 1 1 1 1 1
          1 1 1 1 1 1 1 1 1 1 1 1
          1 1 1 1 1 1 1 1 1 1 1 1
          1 1 1 1 1 1 1 1 1 1 1 1
          1 1 1 1 1 1 1 1 1 1 1 1
          1 1 1 1 1 1 1 1 1 1 1 1
          1 1 1 1 1 1 1 1 1 1 1 1
          1 1 1 1 1 1 1 1 1 1 1 1
          1 1 1 1 1 1 1 1 1 1 1 1
          1 1 1 1 1 1 1 1 1 1 1 1
          1 1 1 1 1 1 1 1 1 1 1 1
          1 1 1 1 1 1 1 1 1 1 1 1
          1 1 1 1 1 1 1 1 1 1 1 1
          1 1 1 1 1 1 1 1 1 1 1 1
          1 1 1 1 1 1 1 1 1 1 1 1
          1 1 1 1 1 1 1 1 1 1 1 1
          1 1 1 1 1 1 1 1 1 1 1 1
          1 1 1 1 1 1 1 1 1 1 1 1
          1 1 1 1 1 1 1 1 1 1 1 1
          1 1 1 1 1 1 1 1 1 1 1 1
          1 1 1 1 1 1 1 1 1 1 1 1
          1 1 1 1 1 1 1 1 1 1 1 1
          1 1 1 1 1 1 1 1 1 1 1 1
          1 1 1 1 1 1 1 1 1 1 1 1
          1 1 1 1 1 1 1 1 1 1 1 1
          1 1 1 1 1 1 1 1 1 1 1 1
          1 1 1 1 1 1 1 1 1 1 1 1
          1 1 1 1 1 1 1 1 1 1 1 1
          1 1 1 1 1 1 1 1 1 1 1 1
          1 1 1 1 1 1 1 1 1 1 1 1
          1 1 1 1 1 1 1 1 1 1 1 1
          1 1 1 1 1 1 1 1 1 1 1 1
          1 1 1 1 1 1 1 1 1 1 1 1
          1 1 1 1 1 1 1 1 1 1 1 1
          1 1 1 1 1 1 1 1 1 1 1 1
          1 1 1 1 1 1 1 1 1 1 1 1
          1 1 1 1 1 1 1 1 1 1 1 1
          1 1 1 1 1 1 1 1 1 1 1 1
          1 1 1 1 1 1 1 1 1 1 1 1
          1 1 1 1 1 1 1 1 1 1 1 1
          1 1 1 1 1 1 1 1 1 1 1 1
          1 1 1 1 1 1 1 1 1 1 1 1
          1 1 1 1 1 1 1 1 1 1 1 1
          1 1 1 1 1 1 1 1 1 1 1 1
          1 1 1 1 1 1 1 1 1 1 1 1
          1 1 1 1 1 1 1 1 1 1 1 1
          1 1 1 1 1 1 1 1 1 1 1 1
          1 1 1 1 1 1 1 1 1 1 1 1
          1 1 1 1 1 1 1 1 1 1 1 1
          1 1 1 1 1 1 1 1 1 1 1 1
          1 1 1 1 1 1 1 1 1 1 1 1
          1 1 1 1 1 1 1 1 1 1 1 1
          1 1 1 1 1 1 1 1 1 1 1 1
          1 1 1 1 1 1 1 1 1 1 1 1
          1 1 1 1 1 1 1 1 1 1 1 1
          1 1 1 1 1 1 1 1 1 1 1 1
          1 1 1 1 1 1 1 1 1 1 1 1
          1 1 1 1 1 1 1 1 1 1 1 1
          1 1 1 1 1 1 1 1 1 1 1 1
          1 1 1 1 1 1 1 1 1 1 1 1
          1 1 1 1 1 1 1 1 1 1 1 1
          1 1 1 1 1 1 1 1 1 1 1 1
          1 1 1 1 1 1 1 1 1 1 1 1
          1 1 1 1 1 1 1 1 1 1 1 1
          1 1 1 1 1 1 1 1 1 1 1 1
          1 1 1 1 1 1 1 1 1 1 1 1
          1 1 1 1 1 1 1 1 1 1 1 1
          1 1 1 1 1 1 1 1 1 1 1 1
          1 1 1 1 1 1 1 1 1 1 1 1
          1 1 1 1 1 1 1 1 1 1 1 1
          1 1 1 1 1 1 1 1 1 1 1 1
          1 1 1 1 1 1 1 1 1 1 1 1
          1 1 1 1 1 1 1 1 1 1 1 1
          1 1 1 1 1 1 1 1 1 1 1 1
          1 1 1 1 1 1 1 1 1 1 1 1
          1 1 1 1 1 1 1 1 1 1 1 1
          1 1 1 1 1 1 1 1 1 1 1 1
          1 1 1 1 1 1 1 1 1 1 1 1
          1 1 1 1 1 1 1 1 1 1 1 1
          1 1 1 1 1 1 1 1 1 1 1 1
          1 1 1 1 1 1 1 1 1 1 1 1
          1 1 1 1 1 1 1 1 1 1 1 1
          1 1 1 1 1 1 1 1 1 1 1 1
          1 1 1 1 1 1 1 1 1 1 1 1
          1 1 1 1 1 1 1 1 1 1 1 1
          1 1 1 1 1 1 1 1 1 1 1 1
          1 1 1 1 1 1 1 1 1 1 1 1
          1 1 1 1 1 1 1 1 1 1 1 1
          1 1 1 1 1 0.999586 1 1 1 1 1 1
          1 1 1 1 1 1 1 1 1 1 1 1
          1 1 1 1 1 1 1 1 1 1 1 1
          1 1 0.988836 1 1 1 1 1 0.999586 1 0.988836 1
          1 0.986915 0.988836 1 0.999586 0.986915 0.842208 0.986915 0.999586 1 0.988836 0.999999
          0.710496 0.988836 0.986915 0.710496 0.977998 0.988836 0.999999 0.988836 0.977998 1 0.999999 1
          1 1 1 1 1 0.999999 1 1 1 1 1 1
          1 1 1 1 1 1 1 1 1 1 1 1
          1 1 1 1 1 1 1 1 1 1 1 1
          1 1 1 1 1 1 1 1 1 1 1 1
          1 1 1 1 1 1 1 1 1 1 1 1
          1 1 1 1 1 1 1 1 1 1 1 1
          1 1 1 1 1 1 1 1 1 1 1 1
          1 1 1 1 1 1 1 1 1 1 1 1
          1 1 1 1 1 1 1 1 1 1 1 1
          1 1 1 1 1 1 0.989797 1 1 1 0.989797 1
          0.989797 0.934887 1 0.934887 0.999586 1 1 1 0.989797 0.989797 1 0.999995
          0.989797 0.999995 0.934887 1 1 1 1 1 1 1 1 1
          1 1 1 1 1 1 1 1 1 1 1 1
          1 1 1 1 0.999995 1 1 0.999438 0.999995 1 1 1
          1 1 1 1 1 1 1 1 1 1 1 1
          1 1 1 1 1 1 1 1 1 1 1 1
          1 1 1 1 1 1 1 1 1 1 1 1
          1 1 1 1 1 1 1 1 1 1 1 1
          1 1 1 1 1 1 1 1 1 1 1 1
          1 1 1 1 1 1 1 1 1 1 1 1
          1 1 1 1 1 1 1 1 1 1 1 1
          1 1 1 1 1 1 1 1 1 1 1 1
          1 1 1 1 1 1 1 1 1 1 1 1
          1 1 1 1 1 1 1 1 1 1 1 1
          1 1 1 1 1 1 1 1 1 1 1 1
          1 1 1 1 1 1 1 1 1 1 1 1
          0.934887 0.842208 0.999586 0.934887 0.999438 0.842208 0.710496 0.986915 0.842208 0.710496 0.842208 0.965024
          0.934887 0.999995 0.999438 0.842208 0.999438 0.965024 0.999438 0.999996 0.965024 0.977998 0.710496 0.965024
          0.999996 0.977998 0.965024 1 0.977998 0.999996 1 1 0.999438 0.999438 1 0.999996
          1 1 1 1 1 1 1 1 0.999996 1 0.999996 1
          1 0.999999 0.977998 1 0.999999 1 1 1 1 1 1 1
          1 1 1 1 1 1 1 1 1 1 1 1
          1 1 1 1 1 1 1 1 1 1 1 1
          1 1 1 1 1 1 0.5 0.583584 0.669285 0.5 0.5 0.583584
          0.712255 0.669285 0.583584 0.712255 0.583584 0.622077 0.712255 0.622077 0.763593 0.5 0.622077 0.583584
          0.5 0.593795 0.622077 0.702698 0.763593 0.622077 0.962 0.961472 0.712255 0.962 0.712255 0.763593
          0.962 0.763593 0.957412 0.702698 0.957412 0.763593 0.962 0.957412 0.999982 0.5 0.5 0.593795
          0.702698 0.622077 0.593795 0.702698 0.593795 0.647897 0.5 0.647897 0.593795 0.5 0.621332 0.647897
          0.702698 0.867155 0.957412 0.999162 0.957412 0.867155 0.702698 0.647897 0.867155 0.769396 0.867155 0.647897
          0.999162 0.867155 0.986532 0.769396 0.986532 0.867155 0.962 0.999982 0.999981 1 0.999981 0.999982
          0.999162 0.999982 0.957412 1 0.999982 1 1 0.999982 1 1 1 1
          1 1 1 1 1 1 1 1 1 0.999162 1 0.999982
          0.999162 0.986532 0.999943 0.999162 0.999943 1 1 1 1 1 1 1
          1 1 1 1 1 0.999943 1 1 1 0.5 0.5 0.621332
          0.769396 0.647897 0.621332 0.769396 0.621332 0.671541 0.5 0.671541 0.621332 0.769396 0.926201 0.986532
          0.769396 0.671541 0.926201 0.5 0.5 0.671541 0.5 0.74335 0.671541 0.74335 0.926201 0.671541
          0.74335 0.980119 0.926201 0.999943 0.986532 0.926201 0.999903 0.999943 0.926201 1 0.999943 1
          1 1 1 0.999903 1 0.999943 0.999903 1 1 1 1 1
          0.999903 0.926201 0.980119 0.999903 0.980119 0.999999 0.999903 0.999999 1 1 1 0.999999
          1 1 1 1 1 1 1 1 1 1 1 1
          1 1 1 1 1 1 1 1 1 1 1 1
          1 1 1 1 1 1 1 1 1 1 1 1
          1 1 1 1 1 1 1 1 1 1 1 1
          1 1 1 1 1 1 1 1 1 1 1 1
          1 1 1 1 1 1 1 1 1 1 1 1
          1 1 1 1 1 1 1 1 1 1 1 1
          1 1 1 1 1 1 1 1 1 1 1 1
          1 1 1 1 1 1 1 1 1 1 1 1
          1 1 1 1 1 1 1 1 1 1 1 1
          1 1 1 1 1 1 1 1 1 1 1 1
          1 1 1 1 1 1 1 1 1 1 1 1
          1 1 1 1 1 1 1 1 1 1 1 1
          1 1 1 1 1 1 1 1 1 1 1 1
          1 1 1 1 1 1 1 1 1 1 1 1
          1 1 1 1 1 1 1 1 1 1 1 1
          1 1 1 1 1 1 1 1 1 1 1 1
          1 1 1 1 1 1 1 1 1 1 1 1
          1 1 1 1 1 1 1 1 1 1 1 1
          1 1 1 1 1 1 1 1 1 1 1 1
          1 1 1 1 1 1 1 1 1 1 1 1
          1 1 1 0.5 0.675997 0.74335 0.74335 0.937079 0.980119 0.74335 0.675997 0.937079
          0.5 0.5 0.675997 0.5 0.788435 0.675997 0.788435 0.937079 0.675997 0.999931 0.999999 0.980119
          0.999931 0.980119 0.937079 1 0.999999 1 0.999931 1 0.999999 0.999931 0.937079 0.994304
          0.937079 0.788435 0.994304 0.999931 1 1 0.999931 0.994304 1 0.5 0.681404 0.788435
          0.5 0.681404 0.5 0.885069 0.788435 0.681404 0.5 0.885069 0.681404 0.885069 0.994304 0.788435
          0.994304 1 1 0.885069 0.999521 0.994304 0.999521 1 0.994304 1 1 1
          1 1 1 1 1 1 1 1 1 1 1 1
          1 1 1 1 1 1 1 1 1 1 1 1
          1 1 1 1 1 1 1 1 1 1 1 1
          1 1 1 1 1 1 1 1 1 1 1 1
          1 1 1 1 1 1 1 1 1 1 1 1
          1 1 1 1 1 1 1 1 1 1 1 1
          1 1 1 1 1 1 1 1 1 1 1 1
          1 1 1 1 1 1 1 1 1 1 1 1
          1 1 1 1 1 1 1 1 1 1 1 1
          1 1 1 1 1 1 0.999521 1 1 0.999521 1 1
          1 1 1 1 1 1 1 1 1 1 1 1
          1 1 1 1 1 1 1 1 1 1 1 1
          1 1 1 1 1 1 1 1 1 1 1 1
          1 1 1 1 1 1 1 1 1 1 1 1
          1 1 1 1 1 1 1 1 1 1 1 1
          1 1 1 1 1 1 1 1 1 1 1 1
          1 1 1 1 1 1 1 1 1 1 1 1
          1 1 1 1 1 1 1 1 1 1 1 1
          1 1 1 1 1 1 1 1 1 1 1 1
          1 1 1 1 1 1 1 1 1 1 1 1
          1 1 1 1 1 1 1 1 1 1 1 1
          1 1 1 1 1 1 1 1 1 1 1 1
          1 1 1 1 1 1 1 1 1 1 1 1
          1 1 1 1 1 1 1 1 1 1 1 1
          1 1 1 1 1 1 1 1 1 1 1 1
          1 1 1 1 1 1 1 1 1 1 1 1
          1 1 1 1 1 1 1 1 1 1 1 1
          1 1 1 1 1 1 1 1 1 1 1 1
          1 1 1 1 1 1 1 1 1 1 1 1
          1 1 1 1 1 1 1 1 1 1 1 1
          1 1 1 1 1 1 1 1 1 1 1 1
          1 1 1 1 1 1 1 1 1 1 1 1
          1 1 1 1 1 1 1 1 1 1 1 1
          1 1 1 1 1 1 1 1 1 1 1 1
          1 1 1 1 1 1 1 1 1 1 1 1
          1 1 1 1 1 1 1 1 1 1 1 1
          1 1 1 1 1 1 1 1 1 1 1 1
          1 1 1 1 1 1 1 1 1 1 1 1
          1 1 1 1 1 1 1 1 1 1 1 1
          1 1 1 1 1 1 1 1 1 1 1 1
          1 1 1 1 1 1 1 1 1 1 1 1
          1 1 1 1 1 1 1 1 1 1 1 1
          1 1 1 1 1 1 1 1 1 1 1 1
          1 1 1 1 1 1 1 1 1 1 1 1
          1 1 1 1 1 1 1 1 1 1 1 1
          1 1 1 1 1 1 1 1 1 1 1 1
          1 1 1 1 1 1 1 1 1 1 1 1
          1 1 1 1 1 1 1 1 1 1 1 1
          1 1 1 1 1 1 1 1 1 1 1 1
          1 1 1 1 1 1 1 1 1 1 1 1
          1 1 1 1 1 1 1 1 1 1 1 1
          1 1 1 1 1 1 1 1 1 1 1 1
          1 1 1 1 1 1 1 1 1 1 1 1
          1 1 1 1 1 1 1 1 1 1 1 1
          1 1 1 1 1 1 1 1 1 1 1 1
          1 1 1 1 1 1 1 1 1 1 1 1
          1 1 1 1 1 1 1 1 1 1 1 1
          1 1 1 1 1 1 1 1 1 1 1 1
          1 1 1 1 1 1 1 1 1 1 1 1
          1 1 1 1 1 1 1 1 1 1 1 1
          1 1 1 1 1 1 1 1 1 1 1 1
          1 1 1 1 1 1 1 1 1 1 1 1
          1 1 1 1 1 1 1 1 1 1 1 1
          1 1 1 1 1 1 1 1 1 1 1 1
          1 1 1 1 1 1 1 1 1 1 1 1
          1 1 1 1 1 1 1 1 1 1 1 1
          1 1 1 1 1 1 1 1 1 1 1 1
          1 1 1 1 1 1 1 1 1 1 1 1
          1 1 1 1 1 1 1 1 1 1 1 1
          1 1 1 1 1 1 1 1 1 1 1 1
          1 1 1 1 1 1 1 1 1 1 1 1
          1 1 1 1 1 1 1 1 1 1 1 1
          1 1 1 1 1 1 1 1 1 1 1 1
          1 1 1 1 1 1 1 1 1 1 1 1
          1 1 1 1 1 1 1 1 1 1 1 1
          1 1 1 1 1 1 1 1 1 1 1 1
          1 1 1 1 1 1 1 1 1 1 1 1
          1 1 1 1 1 1 1 1 1 1 1 1
          1 1 1 1 1 1 1 1 1 1 1 1
          1 1 1 1 1 1 1 1 1 1 1 1
          1 1 1 1 1 1 1 1 1 1 1 1
          1 1 1 1 1 1 1 1 1 1 1 1
          1 1 1 1 1 1 1 1 1 1 1 1
          1 1 1 1 1 1 1 1 1 1 1 1
          1 1 1 1 1 1 1 1 1 1 1 1
          1 1 1 1 1 1 1 1 1 1 1 1
          1 1 1 1 1 1 1 1 1 1 1 1
          1 1 1 1 1 1 1 1 1 1 1 1
          1 1 1 1 1 1 1 1 1 1 1 1
          1 1 1 1 1 1 1 1 1 1 1 1
          1 1 1 1 1 1 1 1 1 1 1 1
          1 1 1 1 1 1 1 1 1 1 1 1
          1 1 1 1 1 1 1 1 1 1 1 1
          1 1 1 1 1 1 1 1 1 1 1 1
          1 1 1 1 1 1 1 1 1 1 1 1
          1 1 1 1 1 1 1 1 1 1 1 1
          1 1 1 1 1 1 1 1 1 1 1 1
          1 1 1 1 1 1 1 1 1 1 1 1
          1 1 1 1 1 1 1 1 1 1 1 1
          1 1 1 1 1 1 1 1 1 1 1 1
          1 1 1 1 1 1 1 1 1 1 1 1
          1 1 1 1 1 1 1 1 1 1 1 1
          1 1 1 1 1 1 1 1 1 1 1 1
          1 1 1 1 1 1 1 1 1 1 1 1
          1 1 1 1 1 1 1 1 1 1 1 1
          1 1 1 1 1 1 1 1 1 1 1 1
          1 1 1 1 1 1 1 1 1 1 1 1
          1 1 1 1 1 1 1 1 1 1 1 1
          1 1 1 1 1 1 1 1 1 1 1 1
          1 1 1 1 1 1 1 1 1 1 1 1
          1 1 1 1 1 1 1 1 1 1 1 1
          1 1 1 1 1 1 1 1 0.99921 1 0.99921 1
          0.99921 1 1 1 1 1 0.960939 0.99921 1 1 1 1
          1 1 1 1 1 1 1 1 1 1 1 1
          1 1 1 1 1 1 0.960939 1 1 0.960939 1 0.999999
          1 1 1 1 1 0.999999 0.960939 0.999999 0.999996 1 0.999999 1
          1 0.999996 0.999999 0.999995 1 1 1 1 0.999995 0.99921 0.999995 1
          0.960939 0.999995 0.99921 1 1 1 1 1 1 1 0.999995 1
          1 1 1 1 1 1 0.960939 0.999979 0.999995 0.960939 0.999996 0.999979
          1 0.999995 0.999979 1 0.999979 0.999996 1 1 0.999996 1 1 1
          1 1 1 1 1 1 1 1 1 1 1 1
          1 1 1 1 1 1 1 1 1 1 1 1
          1 1 1 1 1 1 1 1 1 1 1 1
          1 1 1 1 1 1 1 1 1 1 1 1
          1 1 1 1 1 1 1 1 0.999996 1 0.999996 1
          1 1 1 1 1 1 1 1 1 1 1 1
          1 1 1 1 1 1 1 1 1 1 1 1
          1 1 1 1 1 1 1 1 1 1 1 1
          1 1 1 1 1 1 1 1 1 1 1 1
          1 1 1 1 1 1 1 1 1 1 1 1
          1 1 1 1 1 1 1 1 1 1 1 1
          1 1 1 1 1 1 1 1 1 1 1 1
          1 1 1 1 1 1 1 1 1 1 1 1
          1 1 1 1 1 1 1 1 1 1 1 1
          1 1 1 1 1 1 1 1 1 1 1 1
          1 1 1 1 1 1 1 1 1 1 1 1
          1 1 1 1 1 1 1 1 1 1 1 1
          1 1 1 1 1 1 1 1 1 1 1 1
          1 1 1 1 1 1 1 1 1 1 1 1
          1 1 1 1 1 1 1 1 1 1 1 1
        </DataArray>
        <DataArray type="Float32" Name="p_aq" NumberOfComponents="1" format="ascii">
          200000 196031 186728 200000 200000 196031 186728 196031 182446 174558 186728 176838
          186728 182446 176838 182446 175873 176838 171449 176838 175873 200000 194819 196031
          182446 196031 194819 200000 200000 194819 188648 180700 194819 182446 194819 180700
          182446 180700 175873 175258 175873 180700 168568 174558 171416 174558 176838 171416
          168568 171416 166141 171449 171416 176838 171449 166141 171416 165874 166141 171449
          163246 168568 166141 161546 163246 166141 158637 163246 161546 158637 161546 158100
          161621 161546 166141 165874 161621 166141 161621 158100 161546 171449 175873 170562
          165874 171449 170562 175258 170562 175873 156993 161621 159155 165874 159155 161621
          165874 163811 159155 165874 170562 163811 157357 159155 163811 200000 188648 194819
          200000 196286 188648 200000 200000 196286 188648 196286 181837 188648 176747 180700
          175258 180700 176747 175258 176747 172611 188648 181837 176747 176747 181837 177366
          176747 177366 172807 200000 197545 196286 200000 200000 197545 183654 196286 197545
          183654 181837 196286 200000 194992 197545 183654 197545 194992 183654 177366 181837
          183654 178811 177366 183654 194992 178811 173423 177366 178811 175258 172611 170562
          168254 163811 170562 168254 170562 172611 176747 172807 172611 168254 172611 172807
          168254 162957 163811 157357 163811 162957 157357 162957 156950 173423 172807 177366
          173423 168510 172807 168254 172807 168510 173423 169993 168510 165500 168510 169993
          168254 168510 162957 165500 162957 168510 156950 162957 160669 165500 160669 162957
          154654 158637 158100 154654 158100 154480 151189 154654 152246 154654 154480 152246
          151193 152246 154480 156993 154480 158100 156993 158100 161621 151193 154480 153298
          156993 153298 154480 151189 152246 149032 148146 151189 149032 148146 149032 146815
          151193 149032 152246 145405 148146 146815 142776 145405 144769 145405 146815 144769
          146356 144769 146815 146356 146815 149032 146356 143888 144769 151193 148522 149032
          146356 149032 148522 150247 148522 151193 150247 151193 153298 150247 146932 148522
          146356 148522 146932 146356 144156 143888 146356 146932 144156 145002 144156 146932
          156993 159155 154152 156993 154152 153298 150247 153298 154152 154152 159155 154311
          157357 154311 159155 150057 154152 154311 150247 147279 146932 150247 154152 150057
          150247 150057 147279 145002 146932 147279 145002 147279 144762 146103 144762 147279
          146103 147279 150057 146103 142798 144762 146103 150057 146279 146103 146279 143985
          142461 141058 142776 142776 144769 142461 142461 140240 141058 142461 144769 143888
          142461 143888 142036 142461 142036 140240 142036 140351 140240 138849 141058 140240
          138849 140240 138104 136201 138849 138104 138691 138104 140240 138691 140240 140351
          138691 136530 138104 142036 143888 144156 142036 144156 141559 142036 141559 140351
          141559 144156 142985 145002 142985 144156 141559 142985 141056 138691 140351 139230
          141559 139230 140351 136955 136530 138691 136955 138691 139230 141559 141056 139230
          141056 138883 139230 136955 139230 137354 138883 137354 139230 136201 138104 136530
          136201 136530 134228 133089 136201 134228 136530 134585 134228 132491 134228 134585
          133089 134228 131284 129449 133089 131284 132491 131284 134228 129449 131284 129377
          132491 129377 131284 136955 134585 136530 136955 134861 134585 136955 137354 134861
          131948 134585 134861 132491 134585 131948 132491 131948 129377 132417 131948 134861
          129377 131948 129384 145002 142630 142985 145002 144762 142630 141056 142985 142630
          141056 142630 140538 142798 142630 144762 140538 142630 142798 140538 142798 140014
          141056 140538 138883 136829 137354 138883 136829 138883 138686 140538 138686 138883
          140538 140014 138686 136829 138686 137629 146103 143985 142798 142798 143985 141572
          140014 142798 141572 143162 141572 143985 143162 140875 141572 140014 141572 139489
          140014 137629 138686 140014 139489 137629 139489 141572 140875 139489 140875 138965
          139489 137699 137629 139489 138965 137699 136829 134861 137354 136829 134980 134861
          132417 134861 134980 136829 137629 134980 132417 129384 131948 132417 130003 129384
          132417 134980 132416 132417 132416 130003 137629 136194 134980 137629 137699 136194
          134459 132416 134980 134459 134980 136194 135929 136194 137699 134459 136194 135929
          134459 135929 134016 132416 134459 131357 131357 130003 132416 131357 134459 134016
          151176 150057 154311 157357 151176 154311 157357 156950 151176 151176 146279 150057
          146098 146279 151176 146098 143404 146279 146098 151176 148205 151176 156950 152695
          156950 156481 152695 156950 160669 156481 158534 156481 160669 153549 152695 156481
          151176 152695 148205 146098 148205 144013 145529 144013 148205 150523 148205 152695
          150523 152695 153549 150523 149902 147691 150523 147691 148205 145529 148205 147691
          145529 147691 144828 143162 143985 146279 143162 140955 140875 143162 146279 143404
          143162 143404 140955 140686 140955 143404 138965 140875 140955 138965 140955 138444
          138965 137488 137699 138965 138444 137488 138444 140955 140686 138444 137073 137488
          138444 137928 137073 142181 140686 143404 142181 143404 146098 138444 140686 137928
          137928 140686 139481 142181 139481 140686 139189 139481 142181 137928 139481 137416
          137416 139481 139189 135929 137699 137488 135382 135929 137488 135382 134016 135929
          135382 137488 137073 135382 137073 136040 131357 134016 132275 135382 132275 134016
          131357 132275 129404 135382 133830 132275 131884 132275 133830 131884 129404 132275
          137928 136040 137073 137928 137416 136040 135382 136040 133830 134156 133830 136040
          137416 135427 136040 134156 136040 135427 131774 131884 133830 134156 131774 133830
          131884 131774 129404 134156 132734 131774 134156 135427 132734 129583 131774 132734
          142181 146098 144013 142181 144013 141184 141184 144013 142991 139189 142181 141184
          136911 139189 138716 140118 138716 141184 139189 141184 138716 145529 142991 144013
          145529 144828 142991 142548 142991 144828 142548 140705 142991 140118 141184 142991
          140118 137798 138716 140118 138560 137798 140118 142991 140705 140118 140705 138560
          136911 137416 139189 136911 135427 137416 136911 134835 135427 136911 138716 136406
          136406 138716 137798 136406 134835 136911 136406 134551 134835 134835 132734 135427
          132289 132734 134835 129583 132734 130180 132289 130180 132734 132289 134835 134551
          136406 137798 135913 135913 137798 136859 136406 135913 134551 138560 136859 137798
          138560 136907 136859 135913 136859 135434 135913 135434 133329 132289 134551 133329
          135913 133329 134551 132289 133329 130942 135434 133523 133329 131438 130942 133329
          131438 133329 133523 200000 200000 194992 200000 197183 194992 181164 194992 197183
          200000 200000 197183 200000 191445 197183 181164 197183 191445 181164 178811 194992
          173423 178811 174886 181164 174886 178811 181164 191445 181844 181164 181844 177750
          181164 177750 174886 200000 196497 191445 200000 200000 196497 191445 196497 188507
          191445 188507 182172 200000 197510 196497 200000 200000 197510 188884 188507 196497
          188884 182713 188507 188884 196497 197510 188884 188114 182713 191445 182172 181844
          177750 181844 182172 177750 176665 174006 177750 182172 176665 182172 188507 182713
          179517 182172 182713 179517 182713 182320 179517 176665 182172 179517 176354 176665
          173423 174886 169993 170705 169993 174886 177750 174006 174886 170705 174886 174006
          170705 166519 169993 165500 169993 166519 165500 166519 163016 165500 163016 160669
          158534 160669 163016 170705 166819 166519 163075 166519 166819 163075 163016 166519
          163016 163075 158534 173201 174006 176665 173201 170654 174006 170705 174006 170654
          170705 170654 166819 169750 166819 170654 173201 176665 173559 176354 173559 176665
          173201 169750 170654 173201 173559 169750 172126 169750 173559 163075 166819 162005
          163075 162005 158335 163846 162005 166819 163846 166819 169750 163846 169750 167334
          163846 160722 162005 163846 160960 160722 200000 196745 197510 200000 200000 196745
          188884 197510 188114 196745 188114 197510 186538 188114 196745 200000 198029 196745
          196745 198029 192745 200000 200000 198029 200000 198174 198029 193215 198029 198174
          186538 196745 192745 193215 192745 198029 193215 185412 192745 186538 192745 185412
          182320 182713 188114 186538 182320 188114 186538 181931 182320 182320 181931 179252