<?xml version="1.0"?>
<VTKFile type="UnstructuredGrid" version="0.1" byte_order="LittleEndian">
  <UnstructuredGrid>
    <Piece NumberOfCells="1600" NumberOfPoints="1681">
      <CellData Scalars="rank" Vectors="velocity">
        <DataArray type="Float32" Name="velocity" NumberOfComponents="3" format="ascii">
          5.10911e-06 -5.1125e-06 0 3.17454e-05 -1.44357e-05 0 1.44255e-05 -3.17556e-05 0 8.93684e-05 -8.93989e-05 0
          8.17392e-05 -2.23701e-05 0 0.000151002 -2.89038e-05 0 0.00023573 -3.40872e-05 0 0.000229807 -0.000137925 0
          0.000424366 -0.000177688 0 0.000662374 -0.000209119 0 2.23531e-05 -8.17562e-05 0 2.88801e-05 -0.000151026 0
          0.000137874 -0.000229858 0 0.000177617 -0.000424437 0 3.40568e-05 -0.000235761 0 0.000209028 -0.000662466 0
          0.00035408 -0.000354165 0 0.000653562 -0.000455845 0 0.000455726 -0.000653681 0 0.000840888 -0.000841055 0
          0.00101992 -0.000536114 0 0.00131205 -0.000988884 0 0.000535962 -0.00102008 0 0.00098867 -0.00131226 0
          0.00154244 -0.00154271 0 0.000332359 -3.79876e-05 0 0.000437554 -4.06797e-05 0 0.000933821 -0.000232686 0
          0.00122934 -0.000248874 0 0.000548208 -4.22416e-05 0 0.000661433 -4.2754e-05 0 0.00077457 -4.22987e-05 0
          0.00154019 -0.000258178 0 0.00185828 -0.000261099 0 0.00217612 -0.000258141 0 0.00143777 -0.000596222 0
          0.00184942 -0.00109952 0 0.00189267 -0.00063744 0 0.00243445 -0.00117532 0 0.00217401 -0.00171512 0
          0.00286161 -0.0018332 0 0.00237119 -0.000661051 0 0.00286084 -0.000668345 0 0.00304987 -0.00121868 0
          0.00367961 -0.00123198 0 0.00335012 -0.000660619 0 0.00430887 -0.00121762 0 0.00358492 -0.00190069 0
          0.00432508 -0.00192131 0 0.00506467 -0.0018988 0 3.79507e-05 -0.000332397 0 0.000232575 -0.000933935 0
          4.06362e-05 -0.000437599 0 0.000248743 -0.00122947 0 0.000596037 -0.00143795 0 0.00109926 -0.00184968 0
          0.00171478 -0.00217435 0 0.000637222 -0.00189289 0 0.00117502 -0.00243476 0 0.00183281 -0.00286201 0
          4.21917e-05 -0.00054826 0 4.26977e-05 -0.000661493 0 0.000258028 -0.00154035 0 0.00026093 -0.00185846 0
          4.22362e-05 -0.000774637 0 0.000257953 -0.00217632 0 0.0006608 -0.00237144 0 0.00121833 -0.00305023 0
          0.000668063 -0.00286114 0 0.00123159 -0.00368002 0 0.00190024 -0.00358538 0 0.0019208 -0.0043256 0
          0.000660306 -0.00335045 0 0.00121718 -0.00430934 0 0.00189823 -0.00506527 0 0.00241679 -0.0024172 0
          0.00318107 -0.00258349 0 0.00258301 -0.00318155 0 0.00339975 -0.00340032 0 0.00398504 -0.00267848 0
          0.00480773 -0.00270743 0 0.00562982 -0.00267562 0 0.00425891 -0.00352525 0 0.00513808 -0.00356327 0
          0.0060166 -0.00352133 0 0.00267792 -0.0039856 0 0.00270681 -0.00480838 0 0.00352459 -0.00425957 0
          0.00356252 -0.00513884 0 0.00267493 -0.00563054 0 0.0035205 -0.00601745 0 0.00441522 -0.00441599 0
          0.00532661 -0.00446354 0 0.00446268 -0.00532748 0 0.00538381 -0.00538479 0 0.00623731 -0.00441094 0
          0.00630426 -0.00532129 0 0.00440999 -0.00623829 0 0.0053202 -0.00630536 0 0.00622973 -0.00623096 0
          0.000885179 -4.09583e-05 0 0.000991043 -3.88163e-05 0 0.00248686 -0.000249812 0 0.00278427 -0.00023662 0
          0.00109017 -3.59562e-05 0 0.00118078 -3.2462e-05 0 0.00126132 -2.8418e-05 0 0.00306274 -0.000219076 0
          0.0033173 -0.000197689 0 0.00354359 -0.000172971 0 0.00382847 -0.000639173 0 0.00492409 -0.00117798 0
          0.00428631 -0.000605309 0 0.00551292 -0.00111548 0 0.00578776 -0.0018369 0 0.00647984 -0.00173936 0
          0.004715 -0.000560332 0 0.00510688 -0.000505545 0 0.00606427 -0.00103251 0 0.00656828 -0.000931489 0
          0.00545523 -0.000442256 0 0.00701631 -0.000814811 0 0.00712788 -0.00160993 0 0.00772026 -0.00145235 0
          0.00824686 -0.00127037 0 0.00133048 -2.39084e-05 0 0.00138713 -1.90177e-05 0 0.00373787 -0.000145434 0
          0.00389702 -0.000115589 0 0.00143039 -1.38303e-05 0 0.00145961 -8.43078e-06 0 0.00147432 -2.90374e-06 0
          0.00401857 -8.39491e-05 0 0.00410064 -5.10262e-05 0 0.00414198 -1.73328e-05 0 0.00575431 -0.000371771 0
          0.00740096 -0.000684886 0 0.00599932 -0.000295397 0 0.00771609 -0.000544121 0 0.00869897 -0.00106775 0
          0.00906936 -0.000848236 0 0.00618644 -0.000214443 0 0.00631278 -0.000130215 0 0.00795674 -0.000394924 0
          0.00811923 -0.000239702 0 0.00637642 -4.40222e-05 0 0.00820109 -8.0864e-05 0 0.00935221 -0.000615584 0
          0.0095432 -0.000373543 0 0.00963941 -0.000125867 0 0.00643355 -0.00258832 0 0.00720283 -0.00245082 0
          0.00687551 -0.00340637 0 0.0076976 -0.00322535 0 0.00792314 -0.00226838 0 0.0085816 -0.0020463 0
          0.00916694 -0.00178985 0 0.00846737 -0.00298521 0 0.00917105 -0.0026929 0 0.00979657 -0.00235538 0
          0.0071277 -0.00426689 0 0.00720417 -0.00514746 0 0.00797992 -0.00404009 0 0.0080655 -0.00487381 0
          0.00711898 -0.00602738 0 0.0079701 -0.00570692 0 0.0087779 -0.00373925 0 0.00950736 -0.00337307 0
          0.00887202 -0.00451085 0 0.00960929 -0.00406908 0 0.0101558 -0.00295026 0 0.0102647 -0.003559 0
          0.00876706 -0.00528189 0 0.0094956 -0.00476458 0 0.0101432 -0.0041673 0 0.00966948 -0.00150433 0
          0.0100812 -0.00119501 0 0.0103336 -0.0019796 0 0.0107736 -0.00157252 0 0.0103956 -0.000867189 0
          0.0106079 -0.000526142 0 0.0107148 -0.000177159 0 0.0111096 -0.00114108 0 0.0113365 -0.000692253 0
          0.0114508 -0.000232981 0 0.0107126 -0.00247954 0 0.0108274 -0.00299113 0 0.0111686 -0.00196962 0
          0.0112884 -0.00237596 0 0.0106993 -0.00350234 0 0.0111548 -0.00278201 0 0.011517 -0.00142919 0
          0.0117522 -0.000866981 0 0.0116404 -0.00172401 0 0.0118781 -0.00104578 0 0.0118706 -0.000291696 0
          0.0119979 -0.00035178 0 0.0115027 -0.00201862 0 0.0117376 -0.00122445 0 0.0118559 -0.000411828 0
          4.08897e-05 -0.000885253 0 0.000249606 -0.00248708 0 3.87417e-05 -0.000991125 0 0.000236396 -0.00278451 0
          0.00063883 -0.00382884 0 0.0011775 -0.0049246 0 0.00183628 -0.00578842 0 0.000604936 -0.00428672 0
          0.00111496 -0.00551349 0 0.00173868 -0.00648058 0 3.58758e-05 -0.00109026 0 3.2376e-05 -0.00118088 0
          0.000218834 -0.00306301 0 0.00019743 -0.00331759 0 2.83264e-05 -0.00126143 0 0.000172696 -0.00354391 0
          0.000559929 -0.00471545 0 0.00103195 -0.0060649 0 0.000505114 -0.00510737 0 0.000930885 -0.00656896 0
          0.0016092 -0.00712868 0 0.00145157 -0.00772114 0 0.000441797 -0.00545576 0 0.000814168 -0.00701705 0
          0.00126954 -0.00824781 0 0.00258756 -0.00643436 0 0.00340547 -0.00687646 0 0.00244999 -0.00720372 0
          0.00322437 -0.00769865 0 0.00426584 -0.00712879 0 0.00514627 -0.0072054 0 0.00602603 -0.00712034 0
          0.00403895 -0.00798112 0 0.00487252 -0.00806686 0 0.00570546 -0.00797161 0 0.00226749 -0.00792412 0
          0.00204534 -0.00858267 0 0.00298415 -0.00846852 0 0.00269177 -0.0091723 0 0.00178884 -0.00916809 0
          0.00235418 -0.00979793 0 0.00373802 -0.00877921 0 0.00450945 -0.00887351 0 0.00337176 -0.0095088 0
          0.00406758 -0.00961091 0 0.00528032 -0.00876871 0 0.0047629 -0.00949739 0 0.00294887 -0.0101574 0
          0.00355741 -0.0102664 0 0.00416551 -0.0101452 0 2.38115e-05 -0.00133059 0 0.000145143 -0.00373821 0
          1.89156e-05 -0.00138725 0 0.000115283 -0.0038974 0 0.000371285 -0.00575489 0 0.000684206 -0.00740177 0
          0.00106687 -0.0087 0 0.000294886 -0.00599994 0 0.000543405 -0.00771695 0 0.000847313 -0.00907046 0
          1.37233e-05 -0.00143053 0 8.31904e-06 -0.00145975 0 8.3628e-05 -0.00401897 0 5.06908e-05 -0.00410107 0
          2.78743e-06 -0.00147447 0 1.69836e-05 -0.00414244 0 0.000213907 -0.0061871 0 0.000394173 -0.00795767 0
          0.000129655 -0.00631349 0 0.000238917 -0.00812023 0 0.000614615 -0.0093534 0 0.000372531 -0.00954447 0
          4.34396e-05 -0.00637719 0 8.0047e-05 -0.00820215 0 0.000124815 -0.00964078 0 0.00150325 -0.00967073 0
          0.00197833 -0.0103351 0 0.00119388 -0.0100825 0 0.00157118 -0.0107752 0 0.00247806 -0.0107142 0
          0.00298944 -0.0108293 0 0.00350045 -0.0107014 0 0.00196806 -0.0111705 0 0.00237419 -0.0112904 0
          0.00278002 -0.0111571 0 0.000866001 -0.010397 0 0.000524902 -0.0106094 0 0.00113968 -0.0111113 0
          0.000690782 -0.0113383 0 0.000175868 -0.0107165 0 0.000231451 -0.0114527 0 0.00142756 -0.0115189 0
          0.00172215 -0.0116426 0 0.000865277 -0.0117542 0 0.00104384 -0.0118805 0 0.00201653 -0.0115051 0
          0.00122227 -0.0117402 0 0.000289923 -0.0118729 0 0.000349761 -0.0120004 0 0.00040956 -0.0118587 0
          0.00688618 -0.00688767 0 0.00770945 -0.00652145 0 0.00651983 -0.0077111 0 0.00729929 -0.00730108 0
          0.00848033 -0.00603573 0 0.00918503 -0.00544457 0 0.00981147 -0.00476203 0 0.00802914 -0.00675728 0
          0.00869634 -0.00609543 0 0.00928944 -0.00533128 0 0.00603398 -0.00848214 0 0.0054427 -0.009187 0
          0.00675535 -0.00803111 0 0.00609337 -0.00869848 0 0.00476004 -0.00981361 0 0.00532909 -0.00929176 0
          0.00743081 -0.00743292 0 0.00804827 -0.00670489 0 0.00670263 -0.00805058 0 0.00725959 -0.00726205 0
          0.00859718 -0.00586433 0 0.0077547 -0.00635165 0 0.00586193 -0.00859968 0 0.00634903 -0.00775737 0
          0.00678204 -0.00678488 0 0.0103493 -0.00400216 0 0.0107899 -0.00317902 0 0.00979867 -0.00448057 0
          0.0102158 -0.00355902 0 0.0111264 -0.00230666 0 0.0113537 -0.00139916 0 0.0114681 -0.000470552 0
          0.0105344 -0.00258239 0 0.0107496 -0.00156639 0 0.010858 -0.000526782 0 0.00906845 -0.00492856 0
          0.00817979 -0.00533811 0 0.00945454 -0.00391487 0 0.00852805 -0.0042402 0 0.00715382 -0.00570223 0
          0.0074584 -0.00452944 0 0.0097494 -0.00284059 0 0.0099485 -0.00172301 0 0.00879402 -0.00307665 0
          0.00897362 -0.00186622 0 0.0100488 -0.000579464 0 0.00906411 -0.000627661 0 0.00769101 -0.00328655 0
          0.00784809 -0.00199358 0 0.00792725 -0.000670553 0 0.00400005 -0.0103516 0 0.00447825 -0.00980117 0
          0.0031768 -0.0107924 0 0.00355658 -0.0102185 0 0.00492602 -0.00907115 0 0.00533535 -0.00818267 0
          0.00569923 -0.00715688 0 0.0039122 -0.00945744 0 0.00423729 -0.00853115 0 0.00452629 -0.00746169 0
          0.00230434 -0.0111291 0 0.00139673 -0.0113565 0 0.00257983 -0.0105373 0 0.00156372 -0.0107527 0
          0.000468031 -0.0114712 0 0.000524004 -0.0108613 0 0.00283778 -0.00975251 0 0.0030736 -0.00879734 0
          0.00172009 -0.00995183 0 0.00186304 -0.00897717 0 0.00328324 -0.00769455 0 0.00199013 -0.00785187 0
          0.000576423 -0.0100524 0 0.000624351 -0.00906791 0 0.00066697 -0.00793128 0 0.00601165 -0.00601489 0
          0.00626761 -0.00477782 0 0.00477442 -0.00627109 0 0.00497771 -0.00498137 0 0.0064631 -0.00346681 0
          0.00659511 -0.00210297 0 0.00666165 -0.000707438 0 0.00513298 -0.00361455 0 0.00523784 -0.00219267 0
          0.0052907 -0.000737732 0 0.00346325 -0.00646683 0 0.00209926 -0.0065991 0 0.00361072 -0.0051369 0
          0.00218867 -0.00524203 0 0.000703575 -0.0066659 0 0.000733581 -0.00529517 0 0.00372337 -0.00372747 0
          0.00379946 -0.00226126 0 0.00225698 -0.00380384 0 0.00230313 -0.0023077 0 0.00383782 -0.000760965 0
          0.00232642 -0.000776788 0 0.00075652 -0.0038425 0 0.000772041 -0.0023313 0 0.000779908 -0.000784967 0
          0.00147432 2.66626e-06 0 0.0014596 8.19465e-06 0 0.00414198 1.66189e-05 0 0.00410063 5.03165e-05 0
          0.00143039 1.35969e-05 0 0.00138712 1.87885e-05 0 0.00133047 2.3685e-05 0 0.00401856 8.32475e-05 0
          0.003897 0.0001149 0 0.00373784 0.000144762 0 0.00637642 4.2828e-05 0 0.00820108 7.91829e-05 0
          0.00631277 0.000129028 0 0.00811922 0.00023803 0 0.00963941 0.00012369 0 0.00954318 0.000371377 0
          0.00618642 0.000213269 0 0.00599929 0.000294244 0 0.00795671 0.000393271 0 0.00771605 0.000542496 0
          0.00575426 0.000370645 0 0.0074009 0.000683299 0 0.00935219 0.000613441 0 0.00906931 0.000846129 0
          0.00869891 0.00106569 0 0.00126131 2.8202e-05 0 0.00118076 3.22553e-05 0 0.00354354 0.000172321 0
          0.00331724 0.000197067 0 0.00109014 3.5761e-05 0 0.000991005 3.86352e-05 0 0.000885129 4.07944e-05 0
          0.00306266 0.000218488 0 0.00278415 0.000236074 0 0.00248671 0.000249316 0 0.00545516 0.000441166 0
          0.00701622 0.000813274 0 0.00510678 0.000504501 0 0.00656815 0.000930013 0 0.00824676 0.00126837 0
          0.00772013 0.00145042 0 0.00471487 0.000559343 0 0.00428613 0.000604389 0 0.0060641 0.00103111 0
          0.00551269 0.00111417 0 0.00382824 0.000638335 0 0.00492378 0.00117678 0 0.00712769 0.0016081 0
          0.00647958 0.00173764 0 0.00578741 0.00183532 0 0.0107148 0.000174474 0 0.0106079 0.00052347 0
          0.0114508 0.000229775 0 0.0113365 0.000689062 0 0.0103956 0.000864545 0 0.0100811 0.00119241 0
          0.00966942 0.00150178 0 0.0111096 0.00113792 0 0.0107736 0.00156941 0 0.0103336 0.00197656 0
          0.0118706 0.000287953 0 0.0119979 0.000347484 0 0.0117522 0.000863256 0 0.0118781 0.0010415 0
          0.0118559 0.00040696 0 0.0117376 0.00121961 0 0.011517 0.0014255 0 0.0111686 0.00196598 0
          0.0116404 0.00171977 0 0.0112884 0.00237178 0 0.0107125 0.00247598 0 0.0108274 0.00298702 0
          0.0115027 0.00201381 0 0.0111548 0.00277727 0 0.0106993 0.00349767 0 0.00916684 0.00178738 0
          0.00858146 0.00204391 0 0.00979649 0.00235242 0 0.00917092 0.00269004 0 0.00792294 0.00226611 0
          0.00720255 0.00244867 0 0.00643317 0.00258633 0 0.00846719 0.00298246 0 0.00769734 0.00322275 0
          0.00687514 0.00340394 0 0.0101558 0.00294679 0 0.0102647 0.003555 0 0.00950726 0.0033697 0
          0.00960924 0.00406519 0 0.0101433 0.00416273 0 0.0094956 0.00476014 0 0.00877774 0.00373601 0
          0.00797968 0.00403701 0 0.00887192 0.0045071 0 0.00806533 0.00487023 0 0.00712736 0.004264 0
          0.0072039 0.00514407 0 0.00876703 0.0052776 0 0.00797001 0.00570281 0 0.0071188 0.00602346 0
          0.000774504 4.2156e-05 0 0.000661347 4.26376e-05 0 0.00217592 0.000257708 0 0.00185803 0.000260743 0
          0.000548095 4.21586e-05 0 0.000437408 4.06399e-05 0 0.000332169 3.8006e-05 0 0.00153986 0.000257919 0
          0.00122891 0.000248741 0 0.000933265 0.00023272 0 0.00334981 0.000659881 0 0.00430847 0.00121655 0
          0.00286044 0.00066773 0 0.00367908 0.00123108 0 0.0050642 0.00189738 0 0.00432446 0.00192008 0
          0.00237066 0.00066059 0 0.00189198 0.000637175 0 0.00304918 0.00121798 0 0.00243356 0.00117487 0
          0.00143688 0.000596211 0 0.00184826 0.00109938 0 0.00358411 0.0018997 0 0.00286056 0.0018325 0
          0.00217266 0.00171476 0 0.000235483 3.4187e-05 0 0.000150678 2.91253e-05 0 0.000661651 0.000209383 0
          0.000423421 0.000178286 0 8.13093e-05 2.27913e-05 0 3.11623e-05 1.52431e-05 0 4.28765e-06 7.09513e-06 0
          0.00022856 0.000139047 0 8.76942e-05 9.14267e-05 0 1.21089e-05 3.54783e-05 0 0.00101878 0.000536445 0
          0.00131056 0.000989155 0 0.000652073 0.000456652 0 0.000838966 0.000841868 0 0.0015407 0.00154279 0
          0.000986444 0.0013129 0 0.000352133 0.000355663 0 0.000135301 0.000232391 0 0.000453239 0.000655224 0
          0.000174385 0.000426959 0 1.89008e-05 8.58186e-05 0 2.46592e-05 0.000154818 0 0.00053311 0.00102141 0
          0.000205378 0.000664666 0 2.93881e-05 0.000238991 0 0.00562931 0.00267381 0 0.00480706 0.00270584 0
          0.00601609 0.0035191 0 0.0051374 0.00356127 0 0.00398416 0.00267714 0 0.00317993 0.00258246 0
          0.00241532 0.00241654 0 0.00425801 0.00352352 0 0.00339858 0.00339891 0 0.0025815 0.00318052 0
          0.00623684 0.00440826 0 0.00630386 0.00531812 0 0.00532596 0.0044611 0 0.00538325 0.00538187 0
          0.00622944 0.00622727 0 0.00531976 0.00630193 0 0.00441436 0.00441382 0 0.00352346 0.00425773 0
          0.00446192 0.00532484 0 0.0035615 0.00513652 0 0.00267646 0.00398412 0 0.00270547 0.00480641 0
          0.00440936 0.00623514 0 0.00351965 0.00601461 0 0.00267378 0.00562805 0 0.0017129 0.00217413 0
          0.00109686 0.00185 0 0.00183089 0.00286141 0 0.00117258 0.00243466 0 0.000592992 0.00143891 0
          0.000228726 0.000935633 0 3.31046e-05 0.000334927 0 0.000634143 0.00189336 0 0.000244886 0.00123057 0
          3.58374e-05 0.000439375 0 0.00189837 0.00358432 0 0.00191908 0.00432403 0 0.00121596 0.00304963 0
          0.0012294 0.00367888 0 0.00189674 0.00506315 0 0.00121526 0.00430762 0 0.000657827 0.00237135 0
          0.000254326 0.0015408 0 0.000665317 0.00286045 0 0.000257521 0.00185824 0 3.76249e-05 0.000549271 0
          3.85134e-05 0.000661753 0 0.000657892 0.00334915 0 0.000254953 0.00217544 0 3.85559e-05 0.000774172 0
          0.0114681 0.000465092 0 0.0113537 0.00139372 0 0.010858 0.000520708 0 0.0107496 0.00156034 0
          0.0111265 0.00230127 0 0.01079 0.00317369 0 0.0103494 0.00399691 0 0.0105345 0.00257638 0
          0.010216 0.00355308 0 0.00979882 0.00447472 0 0.0100488 0.000572753 0 0.00906415 0.00062029 0
          0.00994858 0.00171633 0 0.00897372 0.00185888 0 0.0079273 0.000662497 0 0.00784823 0.00198555 0
          0.00974953 0.00283395 0 0.00945472 0.0039083 0 0.0087942 0.00306936 0 0.00852829 0.00423298 0
          0.00906867 0.00492208 0 0.00818009 0.00533099 0 0.00769124 0.00327857 0 0.0074587 0.00452154 0
          0.0071542 0.00569443 0 0.00981157 0.00475689 0 0.00918511 0.00543957 0 0.00928961 0.00532555 0
          0.00869651 0.00608983 0 0.00848039 0.00603088 0 0.00770946 0.00651678 0 0.00688612 0.00688321 0
          0.00802931 0.00675184 0 0.00729943 0.00729583 0 0.00651992 0.00770606 0 0.00859744 0.00585798 0
          0.00775506 0.00634464 0 0.00804856 0.00669868 0 0.00725999 0.0072552 0 0.0067825 0.00677721 0
          0.00634956 0.00774985 0 0.0074311 0.00742687 0 0.00675563 0.00802525 0 0.00670306 0.0080439 0
          0.00609382 0.00869199 0 0.00603425 0.0084765 0 0.00544316 0.00918073 0 0.00586252 0.00859233 0
          0.00532973 0.00928462 0 0.00476071 0.00980669 0 0.0066617 0.000698672 0 0.00659527 0.00209423 0
          0.00529076 0.000728229 0 0.00523803 0.00218319 0 0.00646337 0.00345812 0 0.00626799 0.00476922 0
          0.00601213 0.00600639 0 0.0051333 0.00360513 0 0.00497816 0.00497203 0 0.00477499 0.00626186 0
          0.0038379 0.000750698 0 0.00232651 0.000765727 0 0.00379968 0.00225102 0 0.00230339 0.00229667 0
          0.000780005 0.000773081 0 0.000772332 0.00231944 0 0.00372375 0.00371729 0 0.00361125 0.00512681 0
          0.00225741 0.00379287 0 0.00218928 0.00523115 0 0.00346392 0.00645685 0 0.00210003 0.00658834 0
          0.000757007 0.00383071 0 0.000734263 0.00528347 0 0.000704452 0.00665433 0 0.0056998 0.00714851 0
          0.00533601 0.00817447 0 0.00452698 0.0074526 0 0.0042381 0.00852222 0 0.00492677 0.00906312 0
          0.00447908 0.00979335 0 0.00400095 0.010344 0 0.00391312 0.00944871 0 0.00355761 0.01021 0
          0.00317794 0.0107841 0 0.00328407 0.00768471 0 0.00199108 0.00784126 0 0.00307457 0.00878768 0
          0.00186416 0.00896674 0 0.000668044 0.00791987 0 0.000625623 0.00905669 0 0.00283889 0.00974305 0
          0.00258107 0.0105281 0 0.00172138 0.0099416 0 0.00156518 0.0107427 0 0.00230572 0.0111201 0
          0.00139836 0.0113468 0 0.000577894 0.0100414 0 0.000525676 0.0108505 0 0.000469907 0.0114607 0
          0.00602588 0.00711611 0 0.00514599 0.00720142 0 0.00570548 0.0079668 0 0.00487244 0.00806231 0
          0.00426541 0.0071251 0 0.00340483 0.00687308 0 0.00258667 0.00643131 0 0.00403875 0.00797686 0
          0.00322399 0.00769469 0 0.00244941 0.00720009 0 0.00528054 0.00876331 0 0.00476334 0.00949137 0
          0.00450961 0.00886837 0 0.004068 0.00960515 0 0.0041662 0.0101385 0 0.00355811 0.01026 0
          0.00373808 0.00877436 0 0.00298408 0.00846397 0 0.00337211 0.00950333 0 0.00269205 0.00916714 0
          0.00226726 0.00791989 0 0.00204551 0.00857783 0 0.00294955 0.0101513 0 0.00235482 0.00979214 0
          0.00178943 0.00916262 0 0.00183508 0.00578573 0 0.00117594 0.00492229 0 0.00173785 0.00647729 0
          0.00111381 0.00551057 0 0.000636835 0.00382691 0 0.000247107 0.00248554 0 3.78107e-05 0.00088409 0
          0.000603432 0.00428416 0 0.000234474 0.00278232 0 3.63406e-05 0.000989292 0 0.00160877 0.00712479 0
          0.00145159 0.00771664 0 0.00103128 0.00606136 0 0.000930736 0.0065648 0 0.00127005 0.00824268 0
          0.000814573 0.00701227 0 0.000558975 0.00471227 0 0.000217548 0.00306019 0 0.000504756 0.00510356 0
          0.000196828 0.00331414 0 3.4212e-05 0.00108778 0 3.14945e-05 0.00117777 0 0.00044207 0.00545134 0
          0.000172812 0.00353984 0 2.82601e-05 0.00125771 0 0.0035014 0.010694 0 0.00299044 0.0108222 0
          0.00278125 0.011149 0 0.0023755 0.0112827 0 0.00247909 0.0107075 0 0.00197937 0.0103287 0
          0.0015043 0.00966462 0 0.00196945 0.011163 0 0.00157263 0.0107681 0 0.00119539 0.0100758 0
          0.00201804 0.0114964 0 0.00122407 0.0117307 0 0.00172379 0.0116342 0 0.0010458 0.0118713 0
          0.000411641 0.0118485 0 0.000352052 0.0119905 0 0.00142931 0.0115108 0 0.00114155 0.0111035 0
          0.000867407 0.0117454 0 0.00069308 0.0113298 0 0.000867985 0.0103896 0 0.000527367 0.0106013 0
          0.000292427 0.0118633 0 0.000234173 0.0114435 0 0.000178815 0.0107077 0 0.00106789 0.00869423 0
          0.000685191 0.00739635 0 0.000848863 0.00906405 0 0.000544988 0.0077109 0 0.000372216 0.00574983 0
          0.000146002 0.00373353 0 2.45828e-05 0.00132627 0 0.000296492 0.00599426 0 0.000116901 0.00389209 0
          2.05383e-05 0.00138233 0 0.000616705 0.00934633 0 0.000375166 0.00953673 0 0.000396365 0.00795097 0
          0.000241723 0.00811287 0 0.000127992 0.00963235 0 8.34627e-05 0.00819413 0 0.000216198 0.00618079 0
          8.60142e-05 0.00401305 0 0.000132634 0.00630654 0 5.38463e-05 0.00409452 0 1.62036e-05 0.001425 0
          1.16565e-05 0.00145362 0 4.71024e-05 0.00636958 0 2.09035e-05 0.00413526 0 6.97556e-06 0.00146773 0
          -2.78694e-06 -0.00147448 0 -1.69812e-05 -0.00414247 0 -8.31951e-06 -0.00145978 0 -5.06912e-05 -0.00410115 0
          -4.34325e-05 -0.00637724 0 -8.00305e-05 -0.00820222 0 -0.000124783 -0.00964087 0 -0.000129653 -0.00631364 0
          -0.000238907 -0.00812043 0 -0.000372507 -0.00954474 0 -1.37257e-05 -0.00143058 0 -1.8921e-05 -0.00138732 0
          -8.36342e-05 -0.00401912 0 -0.000115298 -0.0038976 0 -2.38211e-05 -0.00133068 0 -0.00014517 -0.00373847 0
          -0.000213914 -0.00618735 0 -0.000394175 -0.00795801 0 -0.000294908 -0.00600028 0 -0.000543427 -0.00771743 0
          -0.000614607 -0.00935384 0 -0.000847328 -0.00907108 0 -0.000371327 -0.00575532 0 -0.000684255 -0.00740237 0
          -0.00106692 -0.00870079 0 -0.000175813 -0.0107166 0 -0.000231363 -0.0114528 0 -0.000524855 -0.0106098 0
          -0.000690705 -0.0113387 0 -0.000289793 -0.011873 0 -0.000349577 -0.0120006 0 -0.000409312 -0.0118589 0
          -0.000865158 -0.0117547 0 -0.00104367 -0.011881 0 -0.00122204 -0.0117408 0 -0.000865973 -0.0103976 0
          -0.00119388 -0.0100833 0 -0.00113962 -0.0111119 0 -0.00157115 -0.0107761 0 -0.00150329 -0.0096717 0
          -0.00197834 -0.0103363 0 -0.00142746 -0.0115197 0 -0.001722 -0.0116435 0 -0.001968 -0.0111715 0
          -0.00237408 -0.0112916 0 -0.00201632 -0.0115061 0 -0.00277985 -0.0111584 0 -0.00247805 -0.0107156 0
          -0.00298938 -0.0108308 0 -0.00350032 -0.0107031 0 -2.83414e-05 -0.00126153 0 -0.000172739 -0.00354422 0
          -3.23979e-05 -0.001181 0 -0.000197494 -0.00331796 0 -0.000441865 -0.00545629 0 -0.000814253 -0.00701779 0
          -0.00126963 -0.00824877 0 -0.000505215 -0.00510798 0 -0.000931014 -0.00656982 0 -0.00145171 -0.00772226 0
          -3.59064e-05 -0.00109039 0 -3.87832e-05 -0.000991279 0 -0.000218924 -0.00306343 0 -0.000236518 -0.00278497 0
          -4.0945e-05 -0.000885422 0 -0.000249768 -0.00248759 0 -0.000560071 -0.00471615 0 -0.00103213 -0.00606588 0
          -0.00060513 -0.00428749 0 -0.00111521 -0.00551459 0 -0.00160941 -0.00712996 0 -0.00173898 -0.006482 0
          -0.000639089 -0.00382969 0 -0.00117784 -0.00492581 0 -0.00183668 -0.00578999 0 -0.00178893 -0.00916927 0
          -0.00235425 -0.00979934 0 -0.00204549 -0.00858405 0 -0.00269191 -0.00917395 0 -0.00294891 -0.010159 0
          -0.00355741 -0.0102683 0 -0.00416545 -0.0101473 0 -0.00337187 -0.00951072 0 -0.00406766 -0.00961312 0
          -0.00476291 -0.00949989 0 -0.00226772 -0.00792569 0 -0.00245031 -0.00720548 0 -0.00298437 -0.00847041 0
          -0.00322469 -0.00770077 0 -0.002588 -0.0064363 0 -0.00340592 -0.00687879 0 -0.00373823 -0.00878142 0
          -0.00450962 -0.00887604 0 -0.00403926 -0.0079836 0 -0.00487279 -0.00806971 0 -0.00528043 -0.00877158 0
          -0.00570568 -0.00797484 0 -0.00426628 -0.00713152 0 -0.00514667 -0.00720855 0 -0.00602639 -0.00712392 0
          -0.000467706 -0.0114714 0 -0.000523589 -0.0108615 0 -0.00139642 -0.0113572 0 -0.00156332 -0.0107534 0
          -0.000575906 -0.0100526 0 -0.00062372 -0.0090682 0 -0.00066621 -0.00793159 0 -0.00171959 -0.00995262 0
          -0.00186242 -0.00897803 0 -0.00198938 -0.0078528 0 -0.00230406 -0.0111302 0 -0.00317655 -0.0107939 0
          -0.00257945 -0.0105385 0 -0.00355624 -0.0102202 0 -0.00399985 -0.0103536 0 -0.00447796 -0.00980332 0
          -0.00283731 -0.00975382 0 -0.00307301 -0.00879877 0 -0.00391176 -0.00945927 0 -0.00423673 -0.00853314 0
          -0.00328252 -0.00769609 0 -0.0045256 -0.00746385 0 -0.00492563 -0.0090735 0 -0.00533484 -0.00818524 0
          -0.0056986 -0.00715965 0 -0.000702675 -0.00666623 0 -0.000732528 -0.00529552 0 -0.00209837 -0.00660009 0
          -0.00218763 -0.00524309 0 -0.000755302 -0.00384287 0 -0.000770643 -0.00233169 0 -0.000778318 -0.000785385 0
          -0.00225578 -0.00380497 0 -0.00230175 -0.00230889 0 -0.00232485 -0.000778043 0 -0.00346238 -0.00646848 0
          -0.0047736 -0.00627341 0 -0.00360971 -0.00513867 0 -0.00497673 -0.00498385 0 -0.00601088 -0.00601787 0
          -0.00626668 -0.00478101 0 -0.00372219 -0.00372935 0 -0.0037981 -0.00226325 0 -0.00513184 -0.00361719 0
          -0.00523652 -0.00219545 0 -0.00383627 -0.000763059 0 -0.00528919 -0.000740667 0 -0.00646201 -0.0034702 0
          -0.00659384 -0.00210656 0 -0.00666019 -0.000711221 0 -0.0047599 -0.00981598 0 -0.00532887 -0.00929439 0
          -0.00544265 -0.00918979 0 -0.00609322 -0.00870157 0 -0.00586161 -0.00860255 0 -0.00634859 -0.00776051 0
          -0.00678147 -0.00678827 0 -0.00670239 -0.00805398 0 -0.00725923 -0.00726576 0 -0.00775421 -0.00635566 0
          -0.00603402 -0.00848535 0 -0.00651998 -0.00771472 0 -0.0067553 -0.00803467 0 -0.00729934 -0.0073051 0
          -0.00688645 -0.0068917 0 -0.00770963 -0.00652593 0 -0.00743065 -0.00743684 0 -0.008048 -0.00670917 0
          -0.0080291 -0.00676171 0 -0.00869617 -0.00610027 0 -0.00859678 -0.00586897 0 -0.00928914 -0.00533654 0
          -0.00848041 -0.00604067 0 -0.00918498 -0.00544998 0 -0.00981128 -0.0047679 0 -0.00715311 -0.00570587 0
          -0.00745753 -0.00453334 0 -0.00817916 -0.00534243 0 -0.00852726 -0.00424482 0 -0.00768999 -0.0032907 0
          -0.00784689 -0.00199798 0 -0.00792586 -0.00067519 0 -0.00879307 -0.00308157 0 -0.00897249 -0.00187144 0
          -0.00906279 -0.00063316 0 -0.0090679 -0.00493355 0 -0.00979822 -0.00448623 0 -0.00945384 -0.00392022 0
          -0.0102152 -0.0035651 0 -0.010349 -0.0040085 0 -0.0107894 -0.00318582 0 -0.00974853 -0.00284628 0
          -0.00994746 -0.00172905 0 -0.0105337 -0.00258886 0 -0.0107486 -0.00157326 0 -0.0100476 -0.000585835 0
          -0.0108568 -0.000534037 0 -0.0111258 -0.00231393 0 -0.0113528 -0.00140687 0 -0.0114671 -0.000478704 0
          -4.23087e-05 -0.000774818 0 -0.000258166 -0.00217686 0 -4.27924e-05 -0.000661684 0 -0.000261207 -0.00185903 0
          -0.000660646 -0.00335137 0 -0.00121762 -0.00431063 0 -0.00189876 -0.00506696 0 -0.000668505 -0.00286211 0
          -0.00123217 -0.0036814 0 -0.00192148 -0.00432741 0 -4.23151e-05 -0.000548457 0 -4.0798e-05 -0.0004378 0
          -0.000258389 -0.00154095 0 -0.000249215 -0.00123008 0 -3.81654e-05 -0.000332596 0 -0.000233198 -0.000934539 0
          -0.000661374 -0.00237245 0 -0.00121908 -0.00305167 0 -0.000637966 -0.00189392 0 -0.00117598 -0.00243624 0
          -0.00190111 -0.00358727 0 -0.00183393 -0.00286396 0 -0.000597009 -0.00143898 0 -0.0011005 -0.00185116 0
          -0.00171621 -0.00217633 0 -0.0026755 -0.00563264 0 -0.0035211 -0.00601998 0 -0.00270755 -0.00481063 0
          -0.0035633 -0.00514155 0 -0.00441058 -0.00624127 0 -0.00532076 -0.00630881 0 -0.00623023 -0.00623488 0
          -0.00446345 -0.00533068 0 -0.00538455 -0.00538851 0 -0.00630493 -0.00532554 0 -0.00267888 -0.00398797 0
          -0.00258421 -0.00318401 0 -0.00352557 -0.00426245 0 -0.00340099 -0.00340333 0 -0.00241831 -0.00241972 0
          -0.00318261 -0.00258659 0 -0.0044162 -0.0044194 0 -0.00532754 -0.00446752 0 -0.00426013 -0.00352883 0
          -0.00513925 -0.00356747 0 -0.00623818 -0.0044155 0 -0.00601768 -0.00352617 0 -0.00398655 -0.00268221 0
          -0.00480917 -0.00271183 0 -0.00563114 -0.00268073 0 -3.43476e-05 -0.000235951 0 -0.000209864 -0.000663046 0
          -2.92867e-05 -0.000151198 0 -0.000178771 -0.000424966 0 -0.000537248 -0.00102107 0 -0.000990282 -0.00131372 0
          -0.00154425 -0.00154467 0 -0.00045746 -0.000654601 0 -0.000843002 -0.000842421 0 -0.00131436 -0.000990767 0
          -2.29534e-05 -8.18984e-05 0 -1.54056e-05 -3.18559e-05 0 -0.000139533 -0.000230299 0 -9.19146e-05 -8.97068e-05 0
          -7.25789e-06 -5.20835e-06 0 -3.59668e-05 -1.45454e-05 0 -0.000356474 -0.000354952 0 -0.000656362 -0.000457054 0
          -0.000233205 -0.000138496 0 -0.0004281 -0.00017864 0 -0.00102288 -0.000537843 0 -0.000666135 -0.000210591 0
          -8.66335e-05 -2.25959e-05 0 -0.000155961 -2.94523e-05 0 -0.000240462 -3.51628e-05 0 -0.00217591 -0.00171765 0