<?xml version="1.0"?>
<VTKFile type="UnstructuredGrid" version="0.1" byte_order="LittleEndian">
  <UnstructuredGrid>
    <Piece NumberOfCells="1670" NumberOfPoints="911">
      <CellData Scalars="S_aq">
        <DataArray type="Float32" Name="S_aq" NumberOfComponents="1" format="ascii">
          0.98344 0.0678693 0.0642547 0.160108 1 0.0915426 0.881106 1 0.999337 0.991918 0.979773 1
          0.780379 1 0.947485 1 1 0.385057 0.96377 1 1 0.937968 1 0.997916
          0.97496 1 0.214105 1 0.99959 0.717772 1 1 0.063742 0.751339 1 0.0659997
          1 0.872847 0.999648 1 0.84587 0.995962 0.994042 0.995761 0.99242 0.995508 0.957851 0.999629
          0.826365 1 0.0700078 1 1 0.0628995 0.999992 0.0896719 0.776247 1 0.0634176 1
          0.99636 1 1 0.0657117 0.724096 0.0690274 1 0.0858969 1 1 1 0.0748951
          0.877079 0.99786 1 0.984763 0.9855 0.997223 1 0.0791113 0.660665 0.911733 1 0.9971
          0.956493 0.984751 1 1 0.672655 1 1 0.0622743 1 0.17319 1 1
          0.0645321 0.873432 0.0780929 0.820381 1 0.0662371 1 1 0.999948 0.906136 0.127585 1
          0.0694822 0.10535 0.998005 0.0624516 0.0735874 0.818516 1 0.819141 1 0.065206 1 1
          1 0.0691766 0.801766 0.065643 0.0711103 0.36079 1 0.878634 1 0.0800804 1 0.0729536
          1 0.452755 0.974339 0.263475 0.249273 1 0.999661 1 1 1 0.0861008 1
          0.0786359 0.882503 0.86256 1 1 1 1 0.0705896 1 1 0.0654655 0.83007
          1 0.0645487 0.776508 0.0667064 1 0.220867 0.149016 0.0715913 0.220248 0.821566 0.168607 1
          0.140865 0.188886 1 0.0772431 1 0.716924 1 0.776726 0.120504 1 0.0673315 0.073902
          1 0.529769 0.0782823 0.904762 0.998269 1 1 0.0917605 1 1 1 1
          0.9885 0.996983 0.991544 0.995837 1 0.0783807 0.962265 0.976473 0.987424 0.984765 0.935947 0.935415
          0.0855759 0.070972 0.0680714 1 0.0704719 1 0.207104 0.0949059 0.917889 0.996957 0.999044 1
          1 1 0.0639841 0.0666638 1 1 0.605927 0.603135 0.667726 1 0.0612441 1
          0.339868 0.725763 1 0.0619737 1 1 0.139048 1 0.996384 0.995313 1 0.0688248
          1 0.755571 0.0748562 0.998157 0.997899 0.999035 1 1 1 1 1 1
          0.0828619 1 1 1 1 1 1 1 0.148123 0.231905 1 0.850745
          0.828878 1 1 1 1 1 1 1 1 0.681308 1 1
          1 1 1 0.523794 1 1 1 1 1 1 1 1
          0.116687 1 0.998195 1 1 1 1 1 1 1 0.805529 1
          0.879092 1 0.205041 0.99859 1 1 1 1 1 0.998509 1 1
          1 1 1 1 1 1 1 1 1 1 1 0.327536
          1 1 1 1 1 1 1 0.775497 1 1 1 1
          1 1 0.750218 1 1 1 1 1 1 1 1 1
          1 1 1 0.688735 0.999929 1 1 1 1 1 1 1
          1 1 1 1 1 1 1 1 1 1 1 1
          1 1 0.558345 1 1 1 1 1 1 1 1 1
          1 1 1 0.847423 0.0762938 1 1 0.108083 1 1 1 1
          1 1 1 1 0.999602 1 1 1 1 1 1 0.999749
          1 0.991087 1 1 1 1 0.98079 1 1 1 1 1
          0.999604 1 0.235553 1 1 1 1 1 1 1 1 1
          0.914406 1 0.997216 1 1 1 1 1 0.997776 1 1 0.718178
          1 1 1 1 1 1 1 0.209813 1 1 0.992211 1
          1 1 1 1 1 1 1 1 1 1 0.521335 1
          1 1 1 1 1 1 0.999861 1 1 1 1 1
          1 1 1 1 1 1 1 1 1 1 1 0.707028
          0.980506 1 1 0.991014 1 1 1 1 1 1 1 1
          1 1 1 1 1 1 1 1 1 0.335559 0.999906 1
          1 1 0.980329 1 1 1 0.762418 0.901581 1 0.66847 1 1
          0.998001 1 1 1 1 1 0.900677 0.581644 1 1 1 1
          1 0.999591 1 1 1 1 1 1 0.350068 1 1 0.999948
          0.879809 1 1 0.12964 1 1 1 1 1 1 1 1
          1 1 1 0.616299 1 1 1 0.943793 1 1 1 1
          1 1 1 1 1 1 1 1 1 1 0.920871 0.996674
          1 0.234267 1 1 1 1 1 1 1 1 1 1
          1 1 1 1 1 1 0.865556 1 1 1 1 1
          0.587839 1 1 1 1 1 1 1 1 1 1 1
          1 1 1 1 1 1 1 1 1 1 1 1
          1 1 1 1 1 1 1 1 1 1 1 1
          1 1 1 1 1 0.77201 1 1 1 1 1 1
          1 1 1 1 1 1 1 1 1 1 1 1
          1 1 0.874825 1 1 1 1 1 1 1 1 1
          1 1 1 1 1 1 1 1 1 1 1 1
          0.999377 1 1 0.809165 1 1 1 1 1 1 0.621092 0.817404
          0.857268 1 1 1 1 1 1 1 1 1 1 1
          1 1 1 1 1 1 1 1 0.737038 1 1 1
          1 1 1 1 1 0.99743 1 1 1 1 1 1
          0.995333 1 1 1 1 1 1 1 1 1 1 1
          1 1 1 1 1 1 1 0.995205 1 1 1 1
          0.985622 1 0.870185 1 1 0.191118 1 1 1 1 1 1
          1 1 1 0.992351 1 1 1 1 1 1 1 1
          1 1 1 0.98704 1 1 1 1 1 1 1 1
          1 1 1 1 1 1 1 1 1 0.117806 1 1
          1 0.670783 0.210021 1 1 1 1 1 1 1 1 1
          1 1 1 1 1 1 1 1 1 0.711334 1 1
          1 1 1 0.854549 1 1 1 1 1 1 1 1
          0.756891 1 1 1 0.931025 1 1 1 1 1 1 0.386684
          1 1 1 1 1 1 1 1 0.988062 1 1 1
          1 0.340388 1 1 1 1 1 1 1 0.486657 1 1
          1 1 1 1 0.76909 1 0.674507 1 1 1 1 1
          1 1 1 1 0.757621 1 1 1 1 1 1 1
          1 0.750414 1 1 1 1 1 1 1 1 1 1
          1 1 0.735089 0.999543 1 0.413579 1 1 0.999509 1 1 1
          1 1 1 1 0.999652 1 1 1 1 1 1 1
          0.931702 1 0.907752 1 1 1 1 0.992263 0.780938 0.800754 0.997272 1
          0.882065 1 0.996664 1 1 1 1 1 0.992147 1 1 1
          1 1 0.129094 1 1 0.204713 1 1 1 1 1 1
          1 1 0.834089 1 1 1 0.99436 1 0.988833 1 0.577049 1
          1 1 1 1 1 1 1 1 1 1 1 1
          1 1 1 1 1 0.166434 0.859875 0.953276 1 1 1 1
          1 0.658747 1 0.892161 0.953203 1 1 1 1 1 1 1
          1 1 1 1 1 0.879622 1 1 1 1 0.889236 0.681971
          1 1 0.867113 1 1 1 1 1 1 1 1 1
          1 1 1 1 1 1 1 1 1 1 1 1
          1 0.850938 0.278918 1 1 1 1 1 1 1 1 1
          1 1 1 1 1 1 1 1 1 1 1 1
          1 1 1 1 1 1 0.301162 1 1 1 1 1
          1 1 1 1 1 0.428828 1 1 1 1 1 1
          1 1 1 0.865042 1 1 1 1 1 1 0.974093 1
          1 0.205339 1 1 1 1 1 1 1 1 1 1
          1 1 1 1 1 1 1 0.954009 1 1 0.964226 1
          1 1 1 1 1 1 1 1 1 1 0.482358 0.55357
          1 1 1 1 0.96619 1 1 1 1 1 1 1
          1 1 1 1 1 1 1 1 1 1 1 1
          1 1 1 1 1 1 0.986166 0.995516 1 1 1 1
          1 1 1 1 1 1 1 1 0.994537 1 1 1
          1 0.667054 1 1 1 1 1 1 1 1 1 1
          1 0.996768 1 1 1 1 1 1 1 0.995469 1 1
          1 1 1 1 1 1 1 1 1 1 1 1
          1 0.270184 1 0.56742 0.84884 0.973749 1 0.259515 0.910426 1 1 1
          1 1 1 1 1 1 1 1 1 0.326993 0.330276 0.931276
          0.716227 1 0.995468 1 1 1 1 1 0.98599 1 1 1
          1 1 1 1 1 0.729591 1 1 1 0.984147 1 1
          1 1 1 1 1 0.996664 1 1 1 1 1 1
          1 1 1 1 1 1 1 1 1 1 1 1
          1 0.772788 1 1 1 1 1 1 1 1 1 1
          1 1 1 1 1 0.880538 1 1 1 1 0.354236 0.940316
          1 0.547513 1 0.155176 1 1 1 1 1 1 1 1
          0.948992 1 1 1 1 1 1 1 1 0.207173 0.886217 1
          1 0.923388 0.29997 1 0.778549 1 1 1 1 1 1 0.381998
          1 1 1 1 1 0.964801 0.529932 0.997378 1 1 1 0.8661
          0.152053 1 1 1 1 1 1 1 1 1 1 1
          1 1 1 1 1 1 1 1 1 1 1 1
          1 1 1 1 1 1 1 1 1 0.999507 1 0.274685
          0.145878 1 1 0.114153 1 0.211028 1 0.999114 1 1 1 1
          1 1 1 1 1 0.929587 1 1 0.998664 1 1 1
          1 0.0670663 1 1 1 0.0771238 1 1 1 1 1 1
          1 1 1 1 1 1 1 0.147977 1 1 1 1
          1 0.0713725 1 0.0655657 1 1 1 1 1 1 1 0.0716527
          1 0.445576 1 1 1 1 1 0.419489 1 1 0.993937 1
          1 1 1 1 0.999877 1 0.275741 1 1 1 1 1
          0.0639756 1 1 1 1 1 1 1 0.0872801 1 0.0737115 1
          0.975551 1 1 0.299924 1 1 0.478898 1 0.946853 1 0.936328 1
          1 0.0890926 1 0.0740012 1 0.918754 1 1 1 0.110333 0.715214 1
          1 0.129126 1 0.0992292 1 0.401657 1 0.997473 1 0.792371 1 1
          1 1 1 1 1 1 1 1 0.459263 0.592995 1 1
          1 1 1 1 0.136454 1 1 1 0.100725 0.0759105 1 1
          1 0.0696333 1 1 1 1 1 1 1 1 1 1
          1 1 1 1 1 1 1 1 0.997019 0.162729 1 0.123897
          1 0.877436 1 1 1 1 1 0.984579 0.67202 1 1 1
          1 1 1 1 0.997957 1 1 1 1 1 1 1
          1 0.566522 0.191745 1 1 0.126791 0.268057 1 1 1 1 1
          0.086549 1 0.0674713 1 1 1 0.0649043 1 0.0626036 1 1 1
          1 1 1 1 1 1 1 1 0.13217 1 1 0.996262
          1 1
        </DataArray>
        <DataArray type="Float32" Name="p_aq" NumberOfComponents="1" format="ascii">
          96196.7 100749 101115 99961 90881.1 100287 91223.3 91179.8 90920.5 96204.8 96256.4 94995.5
          97398.9 93454.5 96120.2 95113 93018.3 97869.7 96455.5 92397 97070.4 93850.4 92860.3 97264.2
          93640 93861.5 98485.7 92453.2 95511.3 95162.6 90619.1 95021.9 100914 94675.5 94569.4 100534
          90859.6 96205 95534.4 93673.8 98002.4 92914.5 96263.2 94458 96557.2 94202.4 95709.7 95176.4
          94466.1 94385.7 99766.2 91393.3 90596.2 101335 97906.8 98172.3 93112.9 93105.1 100654 90648.8
          95783.6 90866.8 95625.6 100657 95791.9 99629.8 93474.7 99061.8 91895.3 91922.1 95535.4 99153.4
          95678.9 94397.6 93677.6 94806.7 94314.8 96536.2 91946.6 98423.2 98102.3 92823.5 93467.8 97015
          95083.5 93852.5 94294 94557.2 96230.1 90518.4 96062 101187 94917.4 98342.8 92581.2 90850
          101044 98300.3 98654.6 92719.4 92713.1 100309 90890.1 91817 97440.7 93505.2 97667 92836.1
          99539.8 98925.9 92012 101376 99455.8 98916.7 90633.4 92148.1 92139.6 100563 90666.7 91441.8
          95784.8 99768.3 95952.4 101004 99872.8 99256.5 90943.1 91834.9 91816.2 100224 90973.6 98663.4
          92616 98342 92596.4 97119.2 97282 93491.9 96016.2 92045.4 95144.9 91788.8 98966.3 94569.7
          99260.8 95264.4 94647.7 90795.5 91350.6 93733.4 91427.5 99664.2 93601.5 90866.7 100414 93768.5
          97409.1 101015 93637.7 100294 97217.9 97426.2 97618.3 99057.4 97083.8 96601.1 97233 92951.9
          97434 97921.9 95816.4 98542.3 93962.7 96770 93963.1 96783.7 97424.2 91559.4 100082 98847.1
          92515.7 98434.9 99392.1 92525.8 91588.9 92173.7 92449.8 98393.1 95979.3 96473 94445.3 93915.2
          97208.5 93646.9 97454.2 93421.5 92998.1 98157 97904.1 93018.3 95224 95705.9 94953.2 94377.7
          97954.4 99096.6 100157 91546.9 99678.2 91919.4 99098.3 99457.7 91929 91563.3 94827.5 94375.1
          90734.1 91261.4 100982 100275 96557.5 96663.8 96847 96738.4 96641.1 90434.1 101427 96965.9
          97153.5 94089.7 94044.4 100911 90517.6 94340.3 98644 92316 95267.8 95070.2 91578.7 99790.1
          96376.1 96551.9 98356.7 95734.9 94830.8 95204.7 96214.5 96263.6 93250 93518.1 95793.1 98265.4
          100254 95923.2 98148 97180 95805.6 97621.6 95617.5 91797.7 99869.2 99839.4 94441.7 96397
          96398 94904 95043.8 96215.2 92585.5 92380.3 95123.4 94904 95591.6 98873.8 95324.4 93193.6
          93447.5 95535.8 93151.1 99583.3 95837.6 93147.3 95344.1 95244 93438.7 94573.7 91035.2 96796.7
          100229 93514.2 98771.1 96301.2 96301 94107.6 92337.2 95898.9 96368.8 96159.4 95479.8 93888.3
          94717.3 96204.5 99912.9 98588.7 95618.7 95270.8 95617.3 97901.7 95197.3 99022.4 97790.2 97464.8
          92812.5 95860.2 91381.5 92420.7 94363.6 92238.6 95813.3 95790.5 95077.1 93054.9 97196.8 99646
          95229.5 91227.2 95843.2 95664 94328.1 93971 93813.5 98340.7 95957.1 96769.6 93088.8 93940.6
          96972.3 94594.2 98805 98617.9 96289.8 98456.7 95176 95670.5 94049.9 90926.6 97385.7 95052.2
          94198.2 95404.3 96149.1 99130.2 97796.9 97461 95146.9 93344.6 95519 93449 95450.4 95298.3
          95543.2 95976.4 94509.9 91751.6 96294.8 98626.1 91921.7 94538.6 95898.3 95531.3 93380 97034
          95078.4 95125.2 99584.1 96668.1 96762.9 96711.6 91294.9 91625.2 92890.5 94573.5 98489.7 98348.3
          92178.8 93777.8 94663.9 96982.5 100401 96776.4 97815.1 100081 95434.9 97762.9 93161.3 98321.5
          94762.3 96738.8 97404.6 93813.4 98619 96907.8 96060.2 97882.4 95853.4 93106.6 97191.1 98297.8
          94820.2 92789.4 97538.1 92097.4 97240.1 94160.3 95498 95238.8 96190.7 95400.7 93796 92248.4
          96817.1 94909.3 99757.7 97409.5 92149.9 93118.8 94076.7 96073 95297.3 91982.6 95341.7 96290.2
          99251.9 92733.2 98436.7 95596.9 97512.4 92645.3 95459.5 93987.4 92282.2 97958.2 95224.6 98370.6
          94991.2 93865.8 96109.3 94233.8 95211.1 92398.9 93678.2 100067 93978.4 96434.5 98804.2 94214.2
          95700.4 96597.1 93651.8 93126.1 97454.6 95425.8 96064.7 94795.4 95094.6 91162.8 99219.6 91183.6
          91758.7 95840.5 94939.6 90994.8 91696.3 96703.1 98245.2 97025.7 94565.6 92757.7 97958.7 93024.9
          95347.2 93880 95153.2 93830.4 96974.9 90886.5 91124 91731 92455 95408.3 92632.7 97733.5
          94602.8 93463 95319.5 93961.7 96481.3 92961.1 94394.3 94917.7 97092.4 93226.9 94050.1 94432.2
          94244.4 93193.7 93028.6 93382.9 96644.6 92044.7 94514.8 96621.7 94402.6 99850.1 97790.8 94510
          94488.5 91813.1 99099.8 92688 95118.1 94956.6 97820.3 99368.5 95433.3 99470.1 94943.1 94594
          98966.8 95588.5 94493.2 94475.5 94964.5 92674.7 98893.6 99307.6 95007 92352.8 96350.8 97775
          94307.6 97297.8 94799.4 96015.5 94796 94025.8 94118.7 95324 99889.8 94564.7 96333.1 97307.4
          93626.6 96912.2 94070.9 100123 95238 94113.6 91260.5 91705.4 94631.1 91165 97654.9 90872.3
          94822.6 93773.6 96443.2 99245.5 94784.1 94451.3 97355.1 92626.8 97730.6 95322 96373.2 96967.9
          93550.7 94930.8 95516.7 98533.8 98274 91033.7 91508.5 94870.6 99011 91173.7 91252.6 99039.8
          92955 99396.1 95639.6 96036 95672.3 95098.3 96655.4 91422.8 96559.5 98118.8 93795 94799.8
          95486.4 91894.3 91788.1 91958.5 98397.8 97877.4 92863.3 97577.7 90784.2 97509.3 96849.5 94061.4
          99074.6 95240.4 92562.5 92593.4 94741.4 98156.5 97504 94790.1 95472.4 95411.5 95813.5 93467.1
          92470.9 95261.9 95295.3 98194.3 97829.8 97235.2 94508.1 96788.2 96462.4 94452.4 92626.6 96037.8
          96770.5 95359.8 95334 96594.9 95322.4 95245.5 95307.1 95274.9 98195.7 98022.8 95377.9 96488.1
          94883.6 95324.8 94625.4 95290.1 94776.7 98760.5 93452.3 90921.3 94008.2 91172.3 93012.4 94496.1
          92084.8 96029.4 94678.8 91213.7 97900.4 96014.2 93906.7 94888.7 95727.2 95139.1 95052.6 94796.8
          95532.1 96178.5 96231.9 95654.7 94778.5 98498.8 91601.8 95548.4 96650.7 95675.7 95485.6 98261.7
          95281.5 95375 95125 92518.8 95149.1 94897.5 95918.5 94978.6 96381 96046.3 95823.1 97376.4
          99310.5 98887.2 95190.8 98228.9 95226.2 95133.2 96109.5 96197.6 96889.9 95063.2 100347 98795.7
          96114.2 95720.2 95117.4 94718.1 96621.3 97968.2 97868.5 97503.7 97194 97912.1 98316.2 98868.2
          94026 95288.6 94857.8 92102.3 95392.2 93849.7 92260.8 96173.2 100179 94311 97712.1 97402.7
          94242.8 97432.4 92500.7 93005.6 96450.2 94032 95965.8 97973.1 94117.1 94010.4 94828 95206.9
          95418.4 95909.5 94355.6 95180.5 95454.3 93774.8 94583.4 95440.4 93406.8 97199.3 93042.6 93106.1
          95571.5 95809.6 96583 93910.6 94333.9 96713.8 95450.8 94775.8 91682.1 92065.5 94437.4 96977.9
          93379.6 95213.9 96815 95483.9 93710.4 100505 94996.6 92323.1 95528.7 93537.4 94565.3 94213.1
          96692 97325.1 97893.6 99713.8 97514.2 92090.1 96691.1 96965.7 90890.4 95870.5 96730.8 96201.8
          92675.5 94411.4 97826.3 92508.5 94655.6 94489.6 94090.2 96859.6 95851.3 95234.6 95266.4 96241.6
          95590 97559.5 95191.1 94976.1 93888.7 91888.3 93638.1 92026.5 96193.5 100264 98348.8 95589.3
          97164.9 99955.3 99925.4 96394 96444.6 98846.5 98355.4 99184.6 97096 94223.8 96143.4 93858.6
          92694.1 93102.7 94667.4 96146 93657 96631.6 94024.7 95910.2 91200.6 99377.5 91335.2 93162.4
          96011.5 93670.3 95036.3 99282.8 96335.2 92949.9 92820.7 93553.1 92218.1 96971.8 94438.2 96289.3
          98219.3 96916.4 90951.7 93366.7 98905.9 93742.1 95912.2 94043.4 97556.7 93421.7 97871.3 100251
          94361.4 91725.5 95578.8 98916.2 97028.3 97231.1 93069.1 95980.8 99767 95675.9 97170.2 92155.8
          92696.1 100233 94393.1 94886 98089.4 92161.8 94366.3 95349.1 95852 100236 94470.1 91833.4
          96261.1 95954.8 97586.5 92546.5 99470.7 95231.4 99724.5 94558.1 97359 94766.2 98805.7 98630.2
          93208.1 94231 92561.6 97051.2 99774.3 92322.4 92155.7 92112.1 96858.5 96726 90884.9 97014.8
          94242.1 97561.3 98679.2 96262 95603.3 95292.2 91212.3 96635.1 97963.7 94392.6 93891.4 92656
          93450.7 95117.9 99604.6 98300.1 93430.3 100092 91645.4 91616.2 99421.9 93625.4 93626.4 92664.4
          91408 94684.7 92500.9 93491.5 98403.3 96967.6 91812 95352.2 98493.8 93513.2 92560.5 98730.3
          91574.4 94951.7 99312.5 96446.7 93783.6 95329 91196.8 99264.4 99295.6 97692.4 98891.5 97448.8
          92942.5 92953.4 98784.4 95506.6 94220.2 94037.2 90762.1 98184.3 99230.2 94910 92050.9 94457.3
          91914.1 93728.3 100552 93243.6 96729.9 100585 95524.1 91065 93984.1 94284.9 97516.7 93181.3
          97252 90905.8 95025.5 95487.3 93264.8 98822.6 99140.1 92691.8 99385.9 92528.9 99888.3 98372.3
          91526.8 92864.6 91088.6 93050.9 98144.1 93079.3 94207.2 96719.9 96879.9 93172.5 91666.1 96694.6
          96399.4 96908.4 95336 98575.2 97976.8 100167 95302.7 94704.6 94060.6 97713.9 97297.6 91861.4
          92779 99654.1 96482 93993.9 93984.6 96482.6 92929.5 93040.9 97584.4 97443.2 94630.7 94569.1
          97651.7 97381.4 95110.6 92656.6 90722.2 94671.8 92766.2 93736.5 95096.4 93304.4 95025.5 99169.8
          91097.3 91151.2 96346.5 94383.3 94394.3 95793.3 95615 94557.3 98333.2 98542 95625.3 95836.3
          95307.9 92090.9 95572 97700.6 97442 94705.9 97734 91417.7 94439.2 97738.5 95295.1 95383.7
          97422.8 96191.4 99939.7 94109.7 90857.1 97387.8 92178.9 94412.3 94494.6 96737.7 98597.7 94760.1
          94538.9 94743 95250 97006.5 95942 94672.4 91160 92351.1 95284 95631.5 95013.3 93009.8
          95226.3 91955.6 93110.9 93428.2 98093.7 95005.8 99607.6 98502 96515.2 98685 95037 94564.9
          95199.9 97192 93049.6 91315.7 95337.4 99726.6 94862 95015.4 96432.9 96857.6 97040.9 92558.2
          94790.4 94143.6 97809.4 96958 93858.3 96136.6 92142.3 92339.9 94610.2 92490.3 95451.5 95205.2
          96840.5 100085 93470.3 95315 96697.1 95322.9 94753.2 91827.7 93072.8 93387.3 95476.7 97536.7
          95104.5 97414.1 95234.5 95264.1 95065.9 95955.2 94491.2 99180.2 94426 92320.4 99055.1 95888.6
          94538.3 94968.8 97528.8 93866.1 95536.2 95484.7 91450.2 94243.6 94136.1 94116.3 99652.6 99386.6
          98021.2 96146.5 92460 92584.5 98763.8 97127.4 95566.3 93890.9 90614.7 93993.6 93114.4 90939
          95151 93124.4 97726.1 92601.7 96113.4 94037.2 93505.7 97092.4 92317.4 94007.6 94646.9 93048.9
          94808.3 97191.6 93104 92613.5 96064.3 97570.5 92807.7 98816 93659.4 96693.4 95127.7 95640.8
          94716.6 95200 97106.2 98678.4 93980.2 95979.9 91216.4 93489.4 98756.5 97788.7 96827 94788.7
          95244.8 98975.3 95101.9 94597.4 91715.5 98179.2 92474.4 94813.9 93412.5 98274.4 95379.7 96898.4
          97981.6 92302 95274.9 92552.6 95908.1 97010 94254.5 96118 95381.4 98535.2 97200.2 90964.2
          96444.8 93986.5 92130.3 96552.2 95087.6 96622.8 93681.9 97785.6 93451.3 95372.6 94741.4 96049
          95756.9 99782.1 91718.5 99862.6 99165.4 94721 95706 100000 99223.4 94138.6 92666.9 93846.6
          96205.8 98153 92963.6 97884.5 95211.7 96931 95343.4 96993.1 93831.2 100190 99880.2 99217.4
          98543.2 95490.5 98315.4 93184.7 95961.4 97407.1 95571.8 96506.6 93974.6 97953.6 96406.9 95983.6
          93825 97684.3 96757.2 96331.4 96627.7 97763 97884 97523.1 94225.1 98902.6 96382.9 94257.1
          96337.4 91157.3 93070.3 96342.9 96406.1 99123.1 91851.4 98227.6 95745.1 95924.8 93045.5 91609.1
          95457.5 91551.4 95945.3 96299.7 92015.1 95306.5 95843.1 96339.3 95489.3 98233.8 92077.3 91695.1
          95874.7 98651.5 94393.5 93151.2 95954 93525.5 96009.6 94890 95882.8 96876.3 96784.5 95578.4
          91167.3 96337.5 94558 93512.3 96894.2 93560.2 96790 90868.5 95304.6 96790.5 99694.1 99233.5
          96269.2 99914.1 93257.2 100091 96079.2 96447.3 93782.5 91733.8 95594.2 96430.3 93562.3 97770.4
          92639.4 95497.6 94523.5 93914 97353.4 95893.4 95031.9 92412.3 92666.1 99968.7 99532.3 95599
          99001.2 91236.9 99925.9 91918.6 97966.7 91532 95247.9 94855.5 95081.8 95682.7 94233.5 99535.5
          94318.1 92810.9 97049.5 95871.7 94995.8 99041.2 99262.2 98974.6 92544.7 93054.6 97562.2 92820.1
          100315 93415.7 94062.1 96757.6 91860.6 95330.2 98350.8 98323.3 95939.5 92779.4 93411.9 96107.4
          95397.9 95467.8 95071.2 97397.1 98450.7 95317 95247.7 92745.7 93097.5 93673.4 96394.6 94015.3
          94312.5 96421.1 98293 94860.1 94133.7 95155.7 95165.7 94311.5 92851.6 98109.3 91152.5 99956.7
          100280 90863.3 90882.8 100234 91180.5 99909.6 92816.2 98132.3 93890.3 97074.5 96024.1 94893.2
          95814 95091.4 94335.9 96631.5 97116.4 98537.3 92402.5 97325 98074 92849 93834.9 97052
          90683.3 100375 95851.5 95021.4 90929.2 100099 94566.2 96303.5 93632 97264.6 94900.8 96051.1
          96381.1 94553.4 93127.3 94257 96672.1 97821.1 91477 99506.5 94377.8 96495.9 93001.9 97910.8
          90666.9 100403 90611.4 100462 93103.4 97769 95134.3 95812.5 95225.8 90922.2 95627.9 100090
          93354.3 99018 93460.6 97410.8 95260.1 95535.1 92032.4 98920.2 95958.6 94977.5 98530 93503.7
          93663.7 97435 97267 92000.6 98144.2 91949.7 98983.6 93007.2 93430.3 97936.2 97492.7 90567.7
          100514 94789.1 96064.3 96001.3 94892.3 92629.9 98303.4 90897 100171 90860.2 100182 92711.1
          98170.6 97485.9 91936.4 99142.5 91829.9 92760.1 98919.1 92828.1 98032.8 98056.7 98916 92072
          90651.6 100509 90639.5 100480 92139.2 98788.9 95033 91515.2 95789.6 99421.4 99251.7 91769.9
          90945.9 100180 90947 100148 91816.1 99129 92578.3 98340.5 92606.9 98260 94380.3 94874.7
          96608.7 96089.7 95744.9 96319 95134.5 94559.3 91911.9 92175.1 99062.5 98769.6 93453.8 93602.4
          97146.2 91476.8 93724.4 90906.4 99483.1 97269.9 93597.5 91372.4 99589.1 100105 97420.5 97244.7
          90816.9 100219 94153.5 93392.6 93368.2 97601.7 97611.8 92436.2 93933.9 95111.7 97114.2 95812.1
          94329.9 95243.2 95655.7 95697.2 95278.7 92934.2 92464.8 91589.3 98452.8 99346 91564 99367.2
          92511.6 98353.1 94897.2 96497.3 95990.1 92508.8 92217.5 98435.4 98722.1 96589.4 94328.7 97073.2
          93838.1 92996.1 97945 92978.8 97914.4 93710.3 93972.2 96973 97243 93902.5 93607.4 91890.6
          91544.6 99082.3 99420 91549.2 91919.1 99369.8 98971.6 94281.6 94156.5 96564.8 96680 91296.1
          99650.5 90771.5 100267 93906.9 96969.6 90569.8 100490 90464.3 100639 94042.9 96815.3 96571
          94315.5 94936.1 96008.1 94411.1 96531.4 94384.3 96391.7 91620.5 99315.2 93455.4 92436.3 98524.7
          95658.8 95284.2
        </DataArray>
        <DataArray type="Float32" Name="rho_aq" NumberOfComponents="1" format="ascii">
          1000 1000 1000 1000 1000 1000 1000 1000 1000 1000 1000 1000
          1000 1000 1000 1000 1000 1000 1000 1000 1000 1000 1000 1000
          1000 1000 1000 1000 1000 1000 1000 1000 1000 1000 1000 1000
          1000 1000 1000 1000 1000 1000 1000 1000 1000 1000 1000 1000
          1000 1000 1000 1000 1000 1000 1000 1000 1000 1000 1000 1000
          1000 1000 1000 1000 1000 1000 1000 1000 1000 1000 1000 1000
          1000 1000 1000 1000 1000 1000 1000 1000 1000 1000 1000 1000
          1000 1000 1000 1000 1000 1000 1000 1000 1000 1000 1000 1000
          1000 1000 1000 1000 1000 1000 1000 1000 1000 1000 1000 1000
          1000 1000 1000 1000 1000 1000 1000 1000 1000 1000 1000 1000
          1000 1000 1000 1000 1000 1000 1000 1000 1000 1000 1000 1000
          1000 1000 1000 1000 1000 1000 1000 1000 1000 1000 1000 1000
          1000 1000 1000 1000 1000 1000 1000 1000 1000 1000 1000 1000
          1000 1000 1000 1000 1000 1000 1000 1000 1000 1000 1000 1000
          1000 1000 1000 1000 1000 1000 1000 1000 1000 1000 1000 1000
          1000 1000 1000 1000 1000 1000 1000 1000 1000 1000 1000 1000
          1000 1000 1000 1000 1000 1000 1000 1000 1000 1000 1000 1000
          1000 1000 1000 1000 1000 1000 1000 1000 1000 1000 1000 1000
          1000 1000 1000 1000 1000 1000 1000 1000 1000 1000 1000 1000
          1000 1000 1000 1000 1000 1000 1000 1000 1000 1000 1000 1000
          1000 1000 1000 1000 1000 1000 1000 1000 1000 1000 1000 1000
          1000 1000 1000 1000 1000 1000 1000 1000 1000 1000 1000 1000
          1000 1000 1000 1000 1000 1000 1000 1000 1000 1000 1000 1000
          1000 1000 1000 1000 1000 1000 1000 1000 1000 1000 1000 1000
          1000 1000 1000 1000 1000 1000 1000 1000 1000 1000 1000 1000
          1000 1000 1000 1000 1000 1000 1000 1000 1000 1000 1000 1000
          1000 1000 1000 1000 1000 1000 1000 1000 1000 1000 1000 1000
          1000 1000 1000 1000 1000 1000 1000 1000 1000 1000 1000 1000
          1000 1000 1000 1000 1000 1000 1000 1000 1000 1000 1000 1000
          1000 1000 1000 1000 1000 1000 1000 1000 1000 1000 1000 1000
          1000 1000 1000 1000 1000 1000 1000 1000 1000 1000 1000 1000
          1000 1000 1000 1000 1000 1000 1000 1000 1000 1000 1000 1000
          1000 1000 1000 1000 1000 1000 1000 1000 1000 1000 1000 1000
          1000 1000 1000 1000 1000 1000 1000 1000 1000 1000 1000 1000
          1000 1000 1000 1000 1000 1000 1000 1000 1000 1000 1000 1000
          1000 1000 1000 1000 1000 1000 1000 1000 1000 1000 1000 1000
          1000 1000 1000 1000 1000 1000 1000 1000 1000 1000 1000 1000
          1000 1000 1000 1000 1000 1000 1000 1000 1000 1000 1000 1000
          1000 1000 1000 1000 1000 1000 1000 1000 1000 1000 1000 1000
          1000 1000 1000 1000 1000 1000 1000 1000 1000 1000 1000 1000
          1000 1000 1000 1000 1000 1000 1000 1000 1000 1000 1000 1000
          1000 1000 1000 1000 1000 1000 1000 1000 1000 1000 1000 1000
          1000 1000 1000 1000 1000 1000 1000 1000 1000 1000 1000 1000
          1000 1000 1000 1000 1000 1000 1000 1000 1000 1000 1000 1000
          1000 1000 1000 1000 1000 1000 1000 1000 1000 1000 1000 1000
          1000 1000 1000 1000 1000 1000 1000 1000 1000 1000 1000 1000
          1000 1000 1000 1000 1000 1000 1000 1000 1000 1000 1000 1000
          1000 1000 1000 1000 1000 1000 1000 1000 1000 1000 1000 1000
          1000 1000 1000 1000 1000 1000 1000 1000 1000 1000 1000 1000
          1000 1000 1000 1000 1000 1000 1000 1000 1000 1000 1000 1000
          1000 1000 1000 1000 1000 1000 1000 1000 1000 1000 1000 1000
          1000 1000 1000 1000 1000 1000 1000 1000 1000 1000 1000 1000
          1000 1000 1000 1000 1000 1000 1000 1000 1000 1000 1000 1000
          1000 1000 1000 1000 1000 1000 1000 1000 1000 1000 1000 1000
          1000 1000 1000 1000 1000 1000 1000 1000 1000 1000 1000 1000
          1000 1000 1000 1000 1000 1000 1000 1000 1000 1000 1000 1000
          1000 1000 1000 1000 1000 1000 1000 1000 1000 1000 1000 1000
          1000 1000 1000 1000 1000 1000 1000 1000 1000 1000 1000 1000
          1000 1000 1000 1000 1000 1000 1000 1000 1000 1000 1000 1000
          1000 1000 1000 1000 1000 1000 1000 1000 1000 1000 1000 1000
          1000 1000 1000 1000 1000 1000 1000 1000 1000 1000 1000 1000
          1000 1000 1000 1000 1000 1000 1000 1000 1000 1000 1000 1000
          1000 1000 1000 1000 1000 1000 1000 1000 1000 1000 1000 1000
          1000 1000 1000 1000 1000 1000 1000 1000 1000 1000 1000 1000
          1000 1000 1000 1000 1000 1000 1000 1000 1000 1000 1000 1000
          1000 1000 1000 1000 1000 1000 1000 1000 1000 1000 1000 1000
          1000 1000 1000 1000 1000 1000 1000 1000 1000 1000 1000 1000
          1000 1000 1000 1000 1000 1000 1000 1000 1000 1000 1000 1000
          1000 1000 1000 1000 1000 1000 1000 1000 1000 1000 1000 1000
          1000 1000 1000 1000 1000 1000 1000 1000 1000 1000 1000 1000
          1000 1000 1000 1000 1000 1000 1000 1000 1000 1000 1000 1000
          1000 1000 1000 1000 1000 1000 1000 1000 1000 1000 1000 1000
          1000 1000 1000 1000 1000 1000 1000 1000 1000 1000 1000 1000
          1000 1000 1000 1000 1000 1000 1000 1000 1000 1000 1000 1000
          1000 1000 1000 1000 1000 1000 1000 1000 1000 1000 1000 1000
          1000 1000 1000 1000 1000 1000 1000 1000 1000 1000 1000 1000
          1000 1000 1000 1000 1000 1000 1000 1000 1000 1000 1000 1000
          1000 1000 1000 1000 1000 1000 1000 1000 1000 1000 1000 1000
          1000 1000 1000 1000 1000 1000 1000 1000 1000 1000 1000 1000
          1000 1000 1000 1000 1000 1000 1000 1000 1000 1000 1000 1000
          1000 1000 1000 1000 1000 1000 1000 1000 1000 1000 1000 1000
          1000 1000 1000 1000 1000 1000 1000 1000 1000 1000 1000 1000
          1000 1000 1000 1000 1000 1000 1000 1000 1000 1000 1000 1000
          1000 1000 1000 1000 1000 1000 1000 1000 1000 1000 1000 1000
          1000 1000 1000 1000 1000 1000 1000 1000 1000 1000 1000 1000
          1000 1000 1000 1000 1000 1000 1000 1000 1000 1000 1000 1000
          1000 1000 1000 1000 1000 1000 1000 1000 1000 1000 1000 1000
          1000 1000 1000 1000 1000 1000 1000 1000 1000 1000 1000 1000
          1000 1000 1000 1000 1000 1000 1000 1000 1000 1000 1000 1000
          1000 1000 1000 1000 1000 1000 1000 1000 1000 1000 1000 1000
          1000 1000 1000 1000 1000 1000 1000 1000 1000 1000 1000 1000
          1000 1000 1000 1000 1000 1000 1000 1000 1000 1000 1000 1000
          1000 1000 1000 1000 1000 1000 1000 1000 1000 1000 1000 1000
          1000 1000 1000 1000 1000 1000 1000 1000 1000 1000 1000 1000
          1000 1000 1000 1000 1000 1000 1000 1000 1000 1000 1000 1000
          1000 1000 1000 1000 1000 1000 1000 1000 1000 1000 1000 1000
          1000 1000 1000 1000 1000 1000 1000 1000 1000 1000 1000 1000
          1000 1000 1000 1000 1000 1000 1000 1000 1000 1000 1000 1000
          1000 1000 1000 1000 1000 1000 1000 1000 1000 1000 1000 1000
          1000 1000 1000 1000 1000 1000 1000 1000 1000 1000 1000 1000
          1000 1000 1000 1000 1000 1000 1000 1000 1000 1000 1000 1000
          1000 1000 1000 1000 1000 1000 1000 1000 1000 1000 1000 1000
          1000 1000 1000 1000 1000 1000 1000 1000 1000 1000 1000 1000
          1000 1000 1000 1000 1000 1000 1000 1000 1000 1000 1000 1000
          1000 1000 1000 1000 1000 1000 1000 1000 1000 1000 1000 1000
          1000 1000 1000 1000 1000 1000 1000 1000 1000 1000 1000 1000
          1000 1000 1000 1000 1000 1000 1000 1000 1000 1000 1000 1000
          1000 1000 1000 1000 1000 1000 1000 1000 1000 1000 1000 1000
          1000 1000 1000 1000 1000 1000 1000 1000 1000 1000 1000 1000