<?xml version="1.0"?>
<VTKFile type="UnstructuredGrid" version="0.1" byte_order="LittleEndian">
  <UnstructuredGrid>
    <Piece NumberOfCells="1928" NumberOfPoints="5784">
      <PointData Scalars="p">
        <DataArray type="Float32" Name="p" NumberOfComponents="1" format="ascii">
          110000 109395 108867 110000 110000 109395 108867 109395 108750 107899 108867 108162
          108867 108750 108162 110000 109273 109395 108750 109395 109273 108750 107997 108162
          108750 109273 108544 108750 108544 107997 107899 108162 107456 107095 107899 107456
          107095 107456 106773 106452 107095 106773 106250 106452 106773 106199 106250 106773
          107418 108162 107997 107418 107456 108162 107418 107997 107221 107418 106773 107456
          106633 106773 107418 106633 106199 106773 106633 107418 107221 106633 105712 106199
          110000 110000 109273 110000 108910 109273 110000 109367 108910 108910 108544 109273
          108910 108075 108544 110000 110000 109367 110000 109463 109367 110000 110000 109463
          108910 109367 108575 108752 108575 109367 108910 108575 108075 108075 108575 108075
          108752 109367 109463 108752 108075 108575 108752 108233 108075 107870 107997 108544
          107870 107221 107997 107870 107476 107221 107870 108544 108075 107870 108075 107476
          106824 107221 107476 106633 107221 106160 106633 106160 105712 106824 106160 107221
          108075 107460 107476 108075 108075 107460 106824 107476 107460 107480 107460 108075
          107480 106835 107460 106824 107460 106835 106824 106835 106075 106824 106075 106160
          106439 106075 106835 105963 106452 106250 105963 106250 105888 106199 105888 106250
          105604 105963 105888 105604 105888 105564 105604 105564 105404 105333 105604 105404
          105302 105404 105564 105333 105404 105176 105122 105333 105176 105122 105176 105033
          105302 105176 105404 105302 105130 105176 105001 105033 105176 105001 105176 105130
          105711 105888 106199 105711 105564 105888 105711 105409 105564 105711 105352 105409
          105711 106199 105712 105711 105712 105352 105302 105564 105409 105183 105302 105409
          105183 105130 105302 105001 105130 105022 105183 105022 105130 105183 105409 105352
          105183 105352 105030 105183 105004 105022 105183 105030 105004 104939 105122 105033
          104755 104939 104903 104755 104673 104755 104544 104673 104635 104939 105033 104903
          104755 104903 104755 104755 104903 104856 105001 104903 105033 105001 104856 104903
          104755 104635 104673 104755 104856 104755 104755 104755 104635 104755 104856 104880
          104755 104660 104635 104367 104544 104500 104138 104367 104229 104544 104635 104500
          104549 104500 104635 104367 104500 104399 104549 104635 104660 104549 104399 104500
          104449 104399 104549 104367 104399 104229 104138 104229 103997 104399 104275 104229
          104449 104275 104399 104107 104229 104275 105001 105022 104880 105001 104880 104856
          104919 104880 105022 104919 104830 104880 104755 104880 104754 104754 104880 104830
          104755 104754 104660 104754 104610 104660 104754 104830 104754 104754 104754 104610
          104919 105022 105004 104919 105004 104898 104919 104898 104822 104919 104898 105004
          104919 104829 104898 104919 104822 104830 104754 104830 104822 104754 104822 104754
          104754 104754 104621 104829 104822 104898 104754 104822 104829 104754 104829 104754
          104549 104660 104610 104449 104549 104610 104449 104610 104502 104621 104502 104610
          104754 104621 104610 104449 104328 104275 104107 104275 104089 104089 104275 104328
          104449 104502 104328 104497 104328 104502 104168 104089 104328 104754 104638 104621
          104497 104502 104621 104497 104621 104638 104754 104754 104638 104754 104597 104638
          104497 104638 104597 104497 104395 104328 104168 104328 104395 104497 104597 104395
          104597 104524 104395 104168 104395 104233 104410 104233 104395 104847 105712 106160
          105352 105712 105110 104847 105110 105712 104847 106160 106075 105030 105352 105110
          104825 105030 105110 104919 105004 105030 104919 105030 104864 104847 104825 105110
          104825 104864 105030 104802 104864 104825 104847 106075 105421 104847 105421 104825
          105421 106075 105924 105421 105924 105563 105421 105563 105233 104825 105421 105233
          104802 104825 105025 104825 105233 105025 105228 105025 105233 104919 104849 104829
          104919 104864 104849 104820 104849 104864 104829 104849 104797 104754 104829 104797
          104754 104797 104754 104820 104797 104849 104754 104797 104783 104820 104783 104797
          104820 104864 104804 104802 104804 104864 104820 104804 104783 104820 104783 104783
          104779 104783 104804 104754 104754 104597 104754 104647 104597 104597 104647 104524
          104754 104755 104647 104754 104783 104755 104755 104673 104647 104547 104647 104673
          104410 104395 104524 104410 104524 104547 104547 104524 104647 104410 104547 104438
          104222 104410 104438 104755 104783 104783 104755 104783 104756 104755 104756 104673
          104756 104684 104673 104756 104783 104779 104756 104779 104757 104756 104756 104684
          104568 104547 104673 104568 104438 104547 104568 104673 104684 104568 104362 104438
          104568 104684 104667 104756 104667 104684 104568 104530 104362 104568 104667 104530
          104784 104804 104802 104784 104779 104804 104784 104770 104779 104784 104802 104896
          104802 105025 104896 105009 104896 105025 104784 104896 104852 105009 104967 104896
          104852 104896 104967 104881 104852 104967 104757 104779 104770 104756 104758 104667
          104757 104770 104758 104770 104770 104784 104758 104770 104770 104759 104758 104770
          104758 104695 104667 104608 104530 104667 104608 104667 104695 104759 104695 104758
          104608 104695 104611 104731 104611 104695 104770 104784 104852 104770 104852 104814
          104759 104770 104814 104881 104814 104852 104881 104832 104814 104778 104814 104832
          104759 104731 104695 104759 104814 104778 104778 104731 104759 104697 104731 104752
          104778 104832 104797 104778 104752 104731 104778 104797 104752 110000 109184 109463
          110000 110000 109184 110000 109353 109184 108752 109463 109184 108752 109184 108233
          108389 109184 109353 108389 108233 109184 110000 110000 109353 110000 108883 109353
          110000 109274 108883 110000 110000 109274 108389 109353 108883 108389 108883 108271
          108389 108271 107725 108883 108702 108188 108883 109274 108702 108883 108188 108271
          107725 108271 108188 108188 108702 108077 107480 108075 108233 107480 108233 107533
          107480 106940 106835 108389 107533 108233 107480 107533 106940 106881 106940 107533
          106439 106835 106940 106439 105924 106075 106439 106940 106474 106881 106474 106940
          106439 106474 106151 106085 106151 106474 108389 107725 107533 107725 107191 107533
          106881 107533 107191 106881 107191 106688 107725 108188 107350 107725 107350 107191
          107578 107350 108188 106913 106688 107191 106913 107191 107350 106881 106311 106474
          106085 106474 106311 106881 106688 106311 106913 106393 106688 106393 106311 106688
          106085 106311 105863 105676 105863 106311 110000 109260 109274 108621 109274 109260
          110000 110000 109260 110000 108968 109260 108968 108357 109260 110000 110000 108968
          108621 108702 109274 108621 108077 108702 108621 109260 108357 108621 108357 108077
          107578 108188 108077 107718 108077 108357 107578 108077 107718 107578 107718 107252
          107904 108357 108968 107904 108968 108274 107904 107718 108357 107904 107231 107718
          107718 107231 107252 110000 109005 108968 110000 110000 109005 108968 109005 108274
          110000 108855 109005 107870 108274 109005 107870 109005 108855 110000 110000 108855
          106061 106053 110000 110000 107510 108855 107870 108855 107510 107870 107510 106801
          106053 107510 110000 106035 106801 107510 106053 106035 107510 107904 108274 107387
          107904 107387 107231 107870 107387 108274 107870 107012 107387 106797 107387 107012
          106819 107231 106743 106797 107231 107387 106797 106743 107231 106797 106360 106743
          107870 106801 107012 106797 107012 106417 107012 106801 106417 106035 106012 106801
          106012 106417 106801 106012 105984 106417 106304 106797 106417 106797 106304 106360
          105954 106360 106304 105984 106304 106417 105984 105954 106304 105984 106338 105954
          105954 105922 106360 107578 106980 107350 107578 107252 106980 106913 107350 106772
          106980 106772 107350 106913 106772 106393 106451 106772 106980 106819 106980 107252
          106819 107252 107231 106819 106554 106980 106451 106980 106554 106451 106554 106219
          106451 106393 106772 106393 106156 106024 105676 106311 106393 105676 106393 106024
          106024 105868 105676 106451 106156 106393 106451 106219 106156 105989 106156 106219
          106024 106156 105868 105868 105672 105676 105989 105868 106156 106819 106743 106448
          106819 106454 106554 106819 106448 106454 106448 106743 106360 106448 106155 106454
          106448 106142 106155 106248 106554 106454 106248 106219 106554 106248 106004 106219
          106248 106454 106155 106248 106155 106022 106248 106022 106004 106448 106360 106142
          105922 106142 106360 105888 106155 106142 105922 105888 106142 105954 106269 105922
          105922 106269 106093 105922 106093 105888 105888 106093 106067 105853 106022 106155
          105888 105853 106155 105853 105817 106022 105888 106067 105853 105853 105938 105817
          105853 106067 105938 105989 106219 106004 105817 106004 106022 105989 106004 105852
          105780 105852 106004 105989 105814 105868 105989 105852 105814 105668 105868 105814
          105668 105814 105723 105814 105852 105767 105742 105767 105852 105814 105767 105723
          105704 105723 105767 105817 105780 106004 105817 105861 105780 105780 105742 105852
          105780 105830 105742 105817 105938 105861 105931 105861 105938 105780 105861 105830
          105931 105830 105861 105742 105830 105746 105742 105704 105767 105742 105746 105704
          105704 105746 105708 105767 105746 105830 105767 105708 105746 105767 105710 105708
          106439 106151 105924 105777 105563 105924 105777 105436 105563 105777 105924 106151
          106151 106085 105777 105436 105233 105563 105228 105233 105436 105228 105133 105025
          105228 105436 105266 105228 105266 105133 105777 105578 105436 105355 105436 105578
          105355 105266 105436 105178 105266 105355 105777 106085 105725 106085 105863 105725
          105777 105725 105578 105691 105863 105697 105676 105697 105863 105691 105725 105863
          105691 105587 105725 105691 105608 105587 105516 105578 105725 105516 105355 105578
          105516 105389 105355 105289 105223 105355 105289 105355 105389 105516 105725 105587
          105516 105587 105472 105512 105472 105587 105512 105437 105472 105516 105472 105389
          105377 105389 105472 105377 105292 105389 105377 105472 105437 105009 105025 105133
          105178 105133 105266 105009 105133 105074 105178 105074 105133 105009 105074 104967
          104881 104967 104942 105010 104967 105074 105010 104942 104967 105178 105143 105074
          105178 105355 105223 105178 105223 105143 105010 105074 105066 105010 104999 104942
          105010 105066 104999 105143 105066 105074 105051 104999 105066 104881 104942 104885
          104881 104885 104832 104885 104840 104832 104935 104885 104942 104797 104832 104840
          104797 104840 104816 104797 104754 104752 104797 104816 104754 104885 104876 104840
          104816 104840 104876 104816 104835 104787 104935 104942 104999 104935 104876 104885
          105051 104987 104999 104935 104999 104987 104935 104987 104923 104935 104923 104876
          104816 104876 104835 104835 104876 104879 104923 104879 104876 104835 104879 104854
          104923 104907 104879 104854 104879 104907 105289 105215 105223 105143 105223 105215
          105289 105389 105292 105289 105292 105215 105143 105133 105066 105133 105143 105215
          105066 105133 105051 105133 105063 105051 105133 105215 105212 105133 105134 105063
          105212 105215 105292 105377 105336 105292 105292 105336 105277 105212 105292 105277
          105133 105212 105134 105212 105277 105248 105212 105190 105134 105121 105134 105190
          105051 105063 104987 105063 105007 104987 105007 104954 104987 105007 105063 105056
          105007 105056 104997 104923 104987 104954 104923 104954 104907 104854 104907 104873
          104955 104907 104954 104873 104907 104914 105007 104997 104954 104955 104954 104997
          104955 104914 104907 104955 104944 104914 105056 105063 105134 105003 105056 105072
          105121 105056 105134 105121 105072 105056 105003 104997 105056 105003 104955 104997
          105003 104944 104955 105003 105072 105051 105003 104989 104944 105003 105051 104989
          105676 105651 105697 105676 105672 105651 105691 105697 105608 105608 105697 105651
          105582 105608 105651 105582 105534 105608 105672 105627 105651 105668 105672 105868
          105668 105640 105672 105672 105640 105627 105582 105651 105627 105582 105627 105603
          105603 105627 105640 105582 105603 105556 105512 105587 105608 105512 105468 105437
          105512 105608 105534 105512 105534 105468 105390 105437 105468 105377 105437 105390
          105377 105390 105336 105423 105390 105468 105582 105504 105534 105504 105468 105534
          105582 105556 105504 105504 105556 105508 105504 105508 105458 105423 105468 105504
          105423 105361 105390 105423 105366 105361 105423 105504 105458 105423 105458 105412
          105423 105412 105366 105603 105640 105633 105668 105633 105640 105665 105668 105723
          105665 105723 105704 105665 105633 105668 105665 105620 105633 105574 105603 105633
          105574 105556 105603 105620 105574 105633 105574 105528 105556 105574 105565 105528
          105665 105704 105708 105665 105708 105669 105665 105620 105620 105665 105669 105620
          105669 105708 105710 105673 105669 105710 105669 105623 105620 105673 105623 105669
          105620 105565 105574 105620 105620 105565 105580 105565 105620 105580 105620 105623
          105580 105539 105565 105517 105565 105539 105580 105569 105539 105528 105508 105556
          105483 105458 105508 105528 105483 105508 105528 105485 105483 105483 105485 105441
          105437 105412 105458 105483 105437 105458 105392 105366 105412 105437 105392 105412
          105483 105441 105437 105437 105441 105385 105437 105385 105392 105392 105385 105350
          105528 105565 105517 105528 105517 105485 105455 105485 105517 105455 105441 105485
          105455 105517 105494 105517 105539 105494 105455 105494 105449 105455 105449 105399
          105455 105404 105441 105385 105441 105404 105455 105399 105404 105338 105385 105404
          105338 105335 105385 105338 105404 105399 105311 105277 105336 105311 105336 105390
          105311 105248 105277 105311 105390 105361 105311 105259 105248 105311 105315 105259
          105212 105248 105190 105259 105190 105248 105217 105162 105190 105217 105190 105259
          105311 105361 105315 105315 105361 105366 105315 105366 105320 105315 105320 105272
          105217 105259 105272 105315 105272 105259 105217 105232 105195 105301 105272 105320
          105217 105272 105232 105256 105232 105272 105121 105190 105162 105121 105162 105104
          105121 105104 105072 105104 105051 105072 105143 105104 105162 105143 105100 105104
          105059 105051 105104 105059 104989 105051 105059 105029 104989 105059 105104 105100
          105059 105100 105086 105059 105086 105029 105026 105029 105086 105217 105195 105162
          105143 105162 105195 105143 105195 105169 105143 105169 105132 105211 105169 105195
          105211 105195 105232 105166 105132 105169 105211 105166 105169 105143 105132 105100
          105086 105100 105132 105026 105086 105063 105121 105086 105132 105166 105121 105132
          105121 105063 105086 105121 105076 105063 105392 105346 105366 105346 105320 105366
          105346 105301 105320 105346 105317 105301 105392 105350 105346 105346 105350 105317
          105301 105317 105270 105301 105256 105272 105256 105211 105232 105301 105240 105256
          105256 105240 105212 105301 105270 105240 105214 105240 105270 105183 105212 105240
          105214 105183 105240 105385 105335 105350 105302 105350 105335 105302 105317 105350
          105302 105270 105317 105302 105245 105270 105338 105300 105335 105302 105335 105300
          105302 105300 105245 105255 105245 105300 105214 105270 105245 105214 105150 105183
          105214 105245 105187 105176 105187 105245 105214 105187 105150 105140 105150 105187
          105256 105212 105211 105211 105212 105157 105211 105157 105166 105166 105157 105117
          105183 105157 105212 105183 105129 105157 105086 105157 105129 105166 105117 105121
          105121 105064 105076 105121 105117 105064 105086 105117 105157 105086 105064 105117
          105086 105046 105064 105183 105150 105129 105102 105129 105150 105102 105073 105129
          105102 105150 105097 105140 105097 105150 105102 105057 105073 105102 105097 105057
          105086 105129 105073 105086 105073 105038 105086 105038 105046 105007 105046 105038
          105023 105038 105073 105023 105073 105057 105023 104992 105038 105007 105038 104992
          103836 104138 103997 103836 103997 103850 104107 103997 104229 104107 103850 103997
          103836 103850 103533 103441 103836 103533 103441 103533 103151 102911 103441 103151
          102911 103151 102592 104107 104089 103850 103850 104089 103905 104168 103905 104089
          103589 103850 103905 103589 103533 103850 104168 104027 103905 104168 104233 104027
          104027 103723 103905 103589 103905 103723 103898 103723 104027 103589 103151 103533
          103589 103311 103151 102718 102592 103151 102718 103151 103311 103589 103723 103311
          103311 103723 103633 102718 103311 102906 102195 102911 102592 102195 102592 101960
          101227 102195 101960 101227 101960 100925 100000 101227 100925 102718 101960 102592
          102718 102160 101960 101565 101960 102160 102718 102906 102160 101565 100925 101960
          101565 101278 100925 101565 102160 101278 100925 101278 100000 104233 104410 104222
          104222 104027 104233 103898 104027 104222 104222 104438 104362 103898 103633 103723
          103898 104222 104216 104222 104362 104216 104405 104362 104530 104405 104216 104362
          104405 104490 104216 103898 104216 103804 104122 103804 104216 103434 103311 103633
          103898 103804 103633 103434 103633 103804 103434 102906 103311 103434 103318 102906
          103434 103804 103877 104122 103877 103804 103434 103877 103318 104608 104490 104530
          104490 104405 104530 104409 104216 104490 104608 104611 104490 104409 104490 104611
          104409 104611 104562 104122 104216 104409 104122 104409 104355 104409 104562 104355
          104697 104611 104731 104697 104562 104611 104655 104562 104697 104697 104752 104754
          104697 104754 104706 104655 104697 104706 104655 104355 104562 104606 104355 104655
          104122 104355 103877 104355 104237 103877 103849 103318 103877 103849 103877 104237
          104606 104237 104355 104548 104237 104606 104548 103849 104237 102543 102160 102906
          101278 102160 102543 102543 102906 103318 102543 103318 103447 102543 101930 101278
          100000 101278 101930 103849 103447 103318 102543 103447 101930 104548 103447 103849
          104483 103447 104548 104483 103242 103447 101930 103447 103242 100000 101930 103242
          100000 100925 100000 100000 100000 101278 100000 100000 101930 104742 104706 104754
          104816 104787 104754 104742 104754 104787 104742 104787 104796 104655 104706 104681
          104742 104681 104706 104606 104655 104681 104742 104739 104681 104702 104609 104681
          104835 104796 104787 104835 104854 104796 104742 104796 104739 104775 104739 104796
          104854 104824 104796 104775 104796 104824 104702 104681 104739 104702 104739 104775
          104702 104775 104756 104606 104681 104609 104548 104606 104609 104548 104609 104542
          104702 104608 104609 104702 104693 104608 104608 104542 104609 104450 104542 104608
          104450 104608 104553 104854 104873 104824 104775 104824 104823 104873 104823 104824
          104873 104914 104892 104892 104914 104944 104873 104892 104823 104892 104849 104823
          104775 104823 104756 104702 104756 104693 104786 104693 104756 104786 104756 104823
          104786 104823 104849 104892 104944 104911 104892 104911 104849 104911 104885 104849
          104911 104944 104989 104911 104989 104930 104911 104930 104885 104786 104849 104839
          104839 104849 104885 104786 104839 104757 104930 104897 104885 104839 104885 104897
          104838 104839 104897 104608 104693 104553 104786 104757 104693 104660 104553 104693
          104660 104693 104757 104660 104538 104553 104538 104381 104553 104660 104757 104738
          104838 104757 104839 104838 104738 104757 104660 104738 104538 104674 104538 104738
          104674 104521 104538 104483 104548 104542 104483 104542 104450 104483 104450 104108
          104418 104483 104108 104418 103242 104483 104418 100000 103242 104450 104553 104381
          104450 104381 104108 104280 104381 104538 104381 104280 104108 104108 104280 103840
          103068 104108 103840 104280 104538 104521 104674 104587 104521 104280 104521 104587
          104280 104587 104258 104280 104258 103840 104258 103679 103840 104418 104108 103068
          104418 101473 100000 103068 101473 104418 103068 103840 103679 103068 103679 102104
          103068 102104 101473 104930 104989 104984 104989 105029 104984 104930 104984 104949
          105026 104984 105029 105026 104988 104984 104949 104984 104988 104949 104988 104968
          104930 104949 104897 104949 104933 104897 104838 104897 104908 104949 104968 104933
          104908 104897 104933 104908 104933 104954 105026 105012 104988 105026 105063 105012
          104968 104988 105012 105076 105012 105063 105076 105031 105012 105076 105038 105031
          105031 104987 105012 104987 105031 105007 104968 104954 104933 105012 104987 104968
          104987 104954 104968 104908 104954 104935 104987 104972 104954 104972 104935 104954
          104978 104972 104987 104972 104978 104896 104838 104803 104738 104838 104892 104803
          104838 104908 104892 104908 104935 104892 104803 104892 104873 104674 104738 104803
          104674 104803 104798 104803 104873 104798 104928 104798 104873 104957 104892 104935
          104972 104957 104935 104942 104873 104892 104957 104942 104892 104972 104896 104957
          104957 104896 104834 104957 104834 104942 104942 104928 104873 104942 104801 104928
          104928 104915 104798 104928 104645 104915 104942 104834 104801 104620 104801 104834
          104928 104801 104645 104620 104645 104801 105076 105064 105038 105012 105038 105064
          105031 105038 105007 105012 105007 105038 105012 104989 105007 105012 105064 105024
          105064 105046 105024 105012 105024 104991 105012 104991 104981 104987 105007 104978
          104978 105007 104989 104978 104970 104896 105012 104981 104989 104978 104989 104970
          104970 104989 104981 104970 104962 104835 105007 105024 105046 105007 104991 105024
          104963 104981 104991 105007 104992 104956 105007 104956 104991 104948 104956 104992
          104963 104991 104956 104963 104956 104938 104970 104981 104965 104963 104965 104981
          104970 104965 104962 104962 104965 104949 104963 104949 104965 104963 104938 104949
          104962 104949 104954 104954 104949 104919 104767 104896 104835 104767 104834 104896
          104767 104620 104834 104970 104835 104896 104767 104835 104621 104620 104362 104645
          104767 104621 104620 104347 104620 104621 104347 104362 104620 104347 104011 104362
          104962 104844 104835 104693 104835 104844 104693 104621 104835 104693 104456 104621
          104962 104954 104844 104954 104698 104844 104693 104844 104698 104693 104698 104456
          104347 104621 104456 104347 104090 104011 104347 104456 104090 104322 104456 104698
          104322 104090 104456 104674 104798 104587 104258 104587 104655 104587 104798 104774
          104915 104774 104798 104587 104774 104655 104903 104655 104774 104258 104655 104493
          104258 104493 103679 104892 104493 104655 104903 104892 104655 104884 103679 104493
          104884 104493 104892 104915 104903 104774 104915 104578 104902 104902 104578 104293
          104915 104645 104578 104134 104578 104645 104134 104293 104578 104902 104293 104892
          104892 104293 104313 104884 104892 104313 103490 104884 104313 104293 103471 104313
          104293 103649 103471 104884 103490 103679 102104 103679 103490 100000 101473 102104
          103471 103490 104313 101818 103490 103471 101818 102104 103490 100000 102104 101818
          104134 104645 104362 104134 104362 104011 104134 104011 103447 104134 103649 104293
          102870 103471 103649 104134 103447 103649 102870 103649 103447 103650 104011 104090
          103650 103447 104011 103650 104090 103670 102870 103447 102713 102870 103447 103650
          102870 102713 103447 102870 101818 103471 102870 101635 101818 100000 101818 101635
          102870 102713 101635 102870 101635 102713 100000 100000 104418 100000 100000 101473
          100000 100000 101818 106061 110000 107664 106061 107664 106053 106053 107664 106851
          106053 106851 106035 106035 106851 106763 110000 108891 107664 107745 107664 108891
          107745 106851 107664 107745 106763 106851 110000 110000 108891 107745 108891 108832
          110000 108832 108891 107745 108832 108116 110000 109323 108832 108673 108116 108832
          108673 108832 109323 106035 106763 106012 106012 106649 105984 106012 106763 106649
          107396 106763 107745 107396 106649 106763 105984 106649 106338 105954 106338 106269
          106708 106269 106338 106708 106338 106649 106708 106649 107260 107396 107745 108116
          107396 108116 107919 107396 107260 106649 107396 107919 107260 108673 107919 108116
          107739 107260 107919 106708 107260 106945 107739 107360 107260 106945 107260 107360
          110000 110000 109323 110000 109122 109323 108673 109323 109122 108673 109122 108418
          110000 109416 109122 108806 109122 109416 110000 110000 109416 108806 109416 109258
          110000 109258 109416 108673 108418 107919 107739 107919 108418 107739 108418 108285
          108806 108418 109122 108806 108285 108418 107739 107782 107360 107739 108285 107782
          107186 107360 107782 108806 108605 108285 107782 108285 108605 108806 109258 108605
          108043 107433 107782 108043 107782 108605 106320 106067 106093 106320 106093 106269
          106708 106573 106269 106320 106269 106573 106590 106320 106573 106590 106310 106320
          106090 105938 106067 106090 106067 106310 106320 106310 106067 106090 106310 106193
          106708 106945 106573 106590 106573 106945 107186 106855 106945 106590 106945 106855
          106590 106855 106553 106590 106553 106310 106370 106310 106553 106370 106193 106310
          106775 106553 106855 106775 106518 106553 106370 106553 106518 106370 106518 106338
          106531 106338 106518 106090 105931 105938 106090 106055 105931 105931 105933 105830
          105931 106055 105933 106090 106193 106055 106141 106055 106193 105975 105933 106055
          106141 105975 106055 105853 105830 105933 105853 105767 105830 105853 105755 105767
          105853 105933 105975 105853 105975 105840 105853 105840 105755 106370 106338 106193
          106141 106193 106338 106141 106061 105975 106141 106338 106227 106141 106227 106061
          105975 106061 105940 105840 105975 105940 105840 105940 105824 105994 105940 106061
          105994 106061 106227 105994 105824 105940 105994 105864 105824 107186 106945 107360
          107186 106775 106855 107059 106775 107186 107186 107782 107433 107186 107433 107059
          106531 106518 106775 106531 106775 106821 106775 107059 106821 106531 106821 106596
          107103 107059 107433 108043 107506 107433 107103 107433 107506 107103 106821 107059
          107103 106857 106821 106596 106821 106857 107103 107082 106857 107103 107506 107082
          106677 106857 107082 106531 106227 106338 106531 106404 106227 106531 106596 106404
          106261 106227 106404 106261 106404 106596 105994 106227 106069 106261 106069 106227
          105994 106069 105864 106261 105999 106069 105999 105864 106069 106261 106596 106362
          106677 106596 106857 106677 106362 106596 106677 106411 106362 106261 106362 106138
          106261 106138 105999 105999 106138 105898 106117 106362 106411 106117 106138 106362
          106117 105898 106138 110000 110000 109258 110000 109023 109258 110000 109416 109023
          110000 110000 109416 109023 108605 109258 109023 108445 108605 108043 108605 108445
          108043 108445 107927 109023 108809 108445 109023 109416 108809 108174 108445 108809
          108174 107927 108445 110000 109052 109416 110000 109418 109052 110000 109418 110000
          109052 108809 109416 108809 109052 108322 108174 108809 108322 108804 109052 109418
          108804 108322 109052 108043 107927 107506 107413 107506 107927 107413 107082 107506
          106677 107082 106965 107413 106965 107082 108174 107767 107927 107413 107927 107767
          108174 107783 107767 107247 107767 107783 107413 107767 107247 107413 107247 106965
          106677 106965 106662 106677 106662 106411 106710 106662 106965 106449 106411 106662