<?xml version="1.0"?>
<VTKFile type="UnstructuredGrid" version="0.1" byte_order="LittleEndian">
  <UnstructuredGrid>
    <Piece NumberOfCells="120" NumberOfPoints="144">
      <PointData Scalars="S_aq">
        <DataArray type="Float32" Name="S_aq" NumberOfComponents="1" format="ascii">
          0.342268 0.335843 0.190083 0.187548 0.278065 0.177563 0.198906 0.131631 0.126979 0.120624 0.120051 0.120052
          0.120004 0.120004 0.12 0.12 0.12 0.12 0.12 0.12 0.12 0.12 0.12 0.12
          0.12 0.12 0.12 0.12 0.12 0.12 0.12 0.12 0.184912 0.179027 0.177942 0.134189
          0.120786 0.120064 0.120005 0.12 0.12 0.12 0.12 0.119999 0.119999 0.119999 0.119999 0.12
          0.183393 0.173167 0.176111 0.146019 0.121163 0.120078 0.120006 0.12 0.12 0.12 0.119999 0.119999
          0.119999 0.119999 0.119999 0.12 0.181454 0.200042 0.137682 0.120092 0.120003 0.120001 0.12 0.12
          0.12 0.12 0.12 0.12 0.12 0.12 0.12 0.12 0.176588 0.195347 0.140104 0.120023
          0.12 0.12 0.12 0.12 0.12 0.120001 0.12 0.12 0.12 0.12 0.12 0.12
          0.168735 0.177247 0.136945 0.120211 0.120003 0.12 0.12 0.12 0.12 0.120001 0.120001 0.120001
          0.120001 0.120001 0.12 0.12 0.160363 0.152218 0.18469 0.152802 0.121548 0.120109 0.120009 0.12
          0.119999 0.119998 0.119999 0.12 0.12 0.12 0.12 0.12 0.1483 0.154553 0.160023 0.135217
          0.121533 0.120142 0.120014 0.120002 0.12 0.120001 0.12 0.12 0.12 0.12 0.12 0.12
        </DataArray>
        <DataArray type="Float32" Name="p_aq" NumberOfComponents="1" format="ascii">
          99801.7 99785 99641.9 99624.6 99735.3 99586.8 99631.3 99227.5 99076.5 98851.8 98827.7 98826.7
          98821.2 98820.2 98816.3 98815.2 98811.5 98810.3 98806.9 98805.6 98802.9 98801.3 98800.4 98798.3
          87652.8 87649.5 87640.9 87638.7 87631.6 87630.5 87622.4 87622.4 99630.6 99603.3 99588 99281.2
          98856.5 98826.1 98819.1 98814 98809.1 98804.1 98799 98792.9 98783.9 98776.1 98769 98762.2
          99630.2 99588.5 99582.8 99425.9 98868.8 98825.6 98818.1 98812.9 98807.9 98802.7 98797 98790.3
          98782.7 98773.8 98767.7 98762.2 99629.7 99664.1 92737.3 87727.8 87689.3 87682.6 87677.1 87671.8
          87666.4 87660.8 87654.7 87647.5 87637.6 98769 98766.2 98762.2 99618.2 99657.1 88829.7 83095.7
          83079.5 83072.6 83066.6 83061 83055.7 87657.9 87651.6 87644 87634.1 98767.3 98765.2 98762.2
          99590.4 99610.7 88361.1 83166.6 83078.6 83070.5 83064 83057.8 83051.8 87655.5 87649.3 87642.6
          87634.2 98767.1 98765.1 98762.2 99552.1 99496.3 99319.1 99083.5 98424.8 98362.3 98352 98345.3
          98339 98793.3 98787.3 98781.3 98775.4 98769.1 98765.2 98762.2 99478.7 99507.9 99522.6 99297.2
          98878.5 98823 98812.1 98805.2 98798.8 98792.4 98786.3 98780.3 98774.4 98768.9 98764.7 98762.2
        </DataArray>
        <DataArray type="Float32" Name="rho_aq" NumberOfComponents="1" format="ascii">
          974.28 977.587 974.257 976.628 989.122 987.951 996.669 996.707 998.086 998.088 998.217 998.217
          998.228 998.228 998.229 998.229 998.229 998.229 998.229 998.229 998.229 998.229 998.229 998.229
          998.224 998.224 998.224 998.224 998.224 998.224 998.224 998.224 974.264 976.874 986.949 996.378
          998.058 998.214 998.228 998.229 998.229 998.229 998.229 998.229 998.229 998.229 998.229 998.229
          974.292 978.103 985.938 995.928 998.026 998.213 998.229 998.231 998.231 998.231 998.231 998.23
          998.23 998.23 998.23 998.229 974.323 979.556 997.11 998.123 998.228 998.242 998.243 998.242
          998.24 998.237 998.234 998.232 998.23 998.231 998.232 998.229 974.334 980.098 997.322 998.221
          998.258 998.261 998.261 998.261 998.261 998.251 998.245 998.242 998.242 998.25 998.254 998.229
          974.305 979.251 997.155 998.133 998.242 998.259 998.261 998.261 998.261 998.259 998.255 998.254
          998.255 998.267 998.266 998.229 974.274 977.623 986.734 995.798 998.015 998.243 998.266 998.268
          998.268 998.268 998.268 998.267 998.267 998.268 998.267 998.229 974.253 976.395 984.994 995.381
          997.958 998.237 998.266 998.269 998.269 998.269 998.269 998.269 998.269 998.269 998.268 998.229
        </DataArray>
        <DataArray type="Float32" Name="x^H2O_aq" NumberOfComponents="1" format="ascii">
          0.999994 0.999993 0.999994 0.999994 0.99999 0.999991 0.999987 0.999987 0.999985 0.999985 0.999985 0.999985
          0.999985 0.999985 0.999985 0.999985 0.999985 0.999985 0.999985 0.999985 0.999985 0.999985 0.999985 0.999985
          0.999985 0.999985 0.999985 0.999985 0.999985 0.999985 0.999985 0.999985 0.999994 0.999994 0.999991 0.999987
          0.999985 0.999985 0.999985 0.999985 0.999985 0.999985 0.999985 0.999985 0.999985 0.999985 0.999985 0.999985
          0.999994 0.999993 0.999991 0.999987 0.999985 0.999985 0.999985 0.999985 0.999985 0.999985 0.999985 0.999985
          0.999985 0.999985 0.999985 0.999985 0.999994 0.999993 0.999984 0.999982 0.999982 0.999982 0.999982 0.999982
          0.999983 0.999983 0.999983 0.999984 0.999984 0.999985 0.999985 0.999985 0.999994 0.999993 0.999977 0.999978
          0.999978 0.999978 0.999978 0.999978 0.999978 0.99998 0.999982 0.999982 0.999982 0.999982 0.999981 0.999985
          0.999994 0.999993 0.999977 0.999978 0.999978 0.999978 0.999978 0.999978 0.999978 0.999979 0.99998 0.99998
          0.99998 0.999978 0.999979 0.999985 0.999994 0.999993 0.99994 0.999974 0.999978 0.999978 0.999978 0.999978
          0.999978 0.999978 0.999978 0.999978 0.999978 0.999978 0.999978 0.999985 0.999994 0.999994 0.999983 0.999978
          0.999978 0.999978 0.999978 0.999978 0.999978 0.999978 0.999978 0.999978 0.999978 0.999978 0.999978 0.999985
        </DataArray>
        <DataArray type="Float32" Name="x^mesitylene_aq" NumberOfComponents="1" format="ascii">
          1.95206e-12 1.16318e-10 1.63807e-11 1.05523e-09 7.36026e-10 3.68972e-09 1.34644e-09 5.76169e-09 1.79537e-09 6.64886e-09 1.97994e-09 7.10209e-09
          2.06769e-09 7.28741e-09 2.14542e-09 7.40415e-09 2.2231e-09 7.45136e-09 2.29933e-09 7.30497e-09 2.37322e-09 6.73763e-09 2.4816e-09 5.64574e-09
          4.30105e-09 7.33386e-09 6.02748e-09 9.06121e-09 6.27476e-09 8.87987e-09 3.02334e-09 3.02334e-09 6.4774e-11 6.31056e-09 1.64852e-08 2.47599e-08
          2.85481e-08 3.101e-08 3.22794e-08 3.30543e-08 3.31511e-08 3.14941e-08 2.60092e-08 1.75934e-08 1.8067e-08 1.85684e-08 1.91198e-08 3.02334e-09
          1.4085e-10 2.04495e-08 5.59047e-08 1.07247e-07 1.44717e-07 1.71798e-07 1.93544e-07 2.11404e-07 2.2202e-07 2.1901e-07 1.96572e-07 1.68936e-07
          1.61412e-07 1.44776e-07 1.37752e-07 3.02334e-09 2.16122e-10 3.6694e-08 2.22686e-06 3.30372e-06 3.49646e-06 3.41519e-06 3.26128e-06 3.07071e-06
          2.74411e-06 2.2945e-06 1.76404e-06 1.3642e-06 1.055e-06 2.05363e-07 4.21124e-07 3.02334e-09 3.65067e-10 5.26315e-08 9.18674e-06 6.99917e-06
          6.90934e-06 6.90314e-06 6.90245e-06 6.90227e-06 6.90212e-06 4.81201e-06 3.77432e-06 3.20506e-06 3.0997e-06 3.66422e-06 4.54205e-06 3.02334e-09
          5.68874e-10 1.28999e-07 9.62715e-06 7.21591e-06 6.94738e-06 6.90729e-06 6.90296e-06 6.90254e-06 6.9025e-06 6.11768e-06 5.476e-06 5.23651e-06
          5.51946e-06 6.78963e-06 6.72109e-06 3.02334e-09 7.26066e-10 1.2013e-07 5.16259e-05 1.3233e-05 7.53273e-06 6.9626e-06 6.90769e-06 6.90258e-06
          6.9017e-06 6.89519e-06 6.88511e-06 6.87531e-06 6.86831e-06 6.86775e-06 6.80894e-06 3.02334e-09 7.84881e-10 1.46257e-07 8.25147e-06 9.57514e-06
          7.66648e-06 6.97762e-06 6.90797e-06 6.90127e-06 6.9007e-06 6.89993e-06 6.89876e-06 6.89704e-06 6.89467e-06 6.89115e-06 6.83063e-06 3.02334e-09
        </DataArray>
        <DataArray type="Float32" Name="x^Air_aq" NumberOfComponents="1" format="ascii">
          5.6648e-06 6.57398e-06 5.65819e-06 6.31484e-06 9.58802e-06 9.24822e-06 1.30877e-05 1.31191e-05 1.45449e-05 1.45481e-05 1.47279e-05 1.4727e-05
          1.47431e-05 1.47429e-05 1.47437e-05 1.47435e-05 1.47431e-05 1.47429e-05 1.47424e-05 1.47422e-05 1.47418e-05 1.47416e-05 1.47414e-05 1.47411e-05
          1.47402e-05 1.47397e-05 1.47384e-05 1.47381e-05 1.4737e-05 1.47368e-05 1.47356e-05 1.47356e-05 5.66034e-06 6.38228e-06 8.9722e-06 1.28524e-05
          1.45061e-05 1.47231e-05 1.47423e-05 1.47433e-05 1.47426e-05 1.47419e-05 1.47412e-05 1.47403e-05 1.4739e-05 1.47379e-05 1.47367e-05 1.47356e-05
          5.66868e-06 6.7073e-06 8.70208e-06 1.25232e-05 1.44611e-05 1.472e-05 1.47416e-05 1.47425e-05 1.47418e-05 1.4741e-05 1.47402e-05 1.47393e-05
          1.47382e-05 1.47369e-05 1.47359e-05 1.47356e-05 5.6778e-06 7.08694e-06 1.34474e-05 1.45626e-05 1.47057e-05 1.47256e-05 1.47276e-05 1.47279e-05
          1.47287e-05 1.47301e-05 1.47318e-05 1.47327e-05 1.47328e-05 1.47361e-05 1.47344e-05 1.47356e-05 5.68107e-06 7.22275e-06 1.35889e-05 1.46545e-05
          1.4707e-05 1.47098e-05 1.47093e-05 1.47085e-05 1.47077e-05 1.47168e-05 1.47212e-05 1.4723e-05 1.4722e-05 1.47179e-05 1.47126e-05 1.47356e-05
          5.67288e-06 7.00884e-06 1.3418e-05 1.45287e-05 1.4684e-05 1.47071e-05 1.47088e-05 1.47081e-05 1.47071e-05 1.471e-05 1.47123e-05 1.47125e-05
          1.47097e-05 1.47017e-05 1.47014e-05 1.47356e-05 5.66356e-06 6.58319e-06 8.6612e-06 1.23306e-05 1.43534e-05 1.46736e-05 1.47057e-05 1.47078e-05
          1.47074e-05 1.47056e-05 1.47043e-05 1.47033e-05 1.47025e-05 1.47018e-05 1.47012e-05 1.47356e-05 5.65739e-06 6.25115e-06 8.42069e-06 1.20925e-05
          1.42823e-05 1.46645e-05 1.47054e-05 1.47084e-05 1.47078e-05 1.47069e-05 1.47059e-05 1.47049e-05 1.4704e-05 1.47031e-05 1.47021e-05 1.47356e-05
        </DataArray>
        <DataArray type="Float32" Name="S_napl" NumberOfComponents="1" format="ascii">
          0 0 0 0 0 0 0 0 0 0 0 0
          0 0 0 0 0 0 0 0 0 0 0 0
          0 0 0 0 0 0 0 0 0 0 0 0
          0 0 0 0 0 0 0 0 0 0 0 0
          0 0 0 0 0 0 0 0 0 0 0 0
          0 0 0 0 0 0 0 0 0 0 0 0
          0 0 0 0 0 0 0 0 0 0 0.0700847 0.069996
          0.0699761 0.0699745 0.0699715 0.0699671 0.0699515 0 0 0 0 0 0 0
          0 0 0.0701758 0.0700844 0.0700082 0.0700008 0.0700001 0.07 0.0699914 0 0 0
          0 0 0 0 0 0 0.0527251 0.0798207 0.071067 0.0700733 0.0699818 0.0699729
          0.0699504 0 0 0 0 0 0 0 0 0 0 0
          9.92795e-05 5.33798e-05 4.47187e-06 2.89037e-07 6.49466e-10 0 0 0 0 0 0 0
        </DataArray>
        <DataArray type="Float32" Name="p_napl" NumberOfComponents="1" format="ascii">
          99801.7 99785 99641.9 99624.6 99735.3 99586.8 99631.3 99227.5 99076.5 98851.8 98827.7 98826.7
          98821.2 98820.2 98816.3 98815.2 98811.5 98810.3 98806.9 98805.6 98802.9 98801.3 98800.4 98798.3
          87652.8 87649.5 87640.9 87638.7 87631.6 87630.5 87622.4 87622.4 99630.6 99603.3 99588 99281.2
          98856.5 98826.1 98819.1 98814 98809.1 98804.1 98799 98792.9 98783.9 98776.1 98769 98762.2
          99630.2 99588.5 99582.8 99425.9 98868.8 98825.6 98818.1 98812.9 98807.9 98802.7 98797 98790.3
          98782.7 98773.8 98767.7 98762.2 99629.7 99664.1 92737.3 87727.8 87689.3 87682.6 87677.1 87671.8
          87666.4 87660.8 87654.7 87647.5 87637.6 98769 98766.2 98762.2 99618.2 99657.1 95866.7 95464.5
          95452.7 95445.7 95439.3 95432.9 95424.9 87657.9 87651.6 87644 87634.1 98767.3 98765.2 98762.2
          99590.4 99610.7 95813.2 95469.9 95455.1 95448 95441.6 95435.4 95427.9 87655.5 87649.3 87642.6
          87634.2 98767.1 98765.1 98762.2 99552.1 99496.3 99675.9 99680.4 99608 99596.2 99589.2 99582.6
          99575.9 98793.3 98787.3 98781.3 98775.4 98769.1 98765.2 98762.2 99478.7 99507.9 99522.6 99297.2
          98878.5 98823 98812.1 98805.2 98798.8 98792.4 98786.3 98780.3 98774.4 98768.9 98764.7 98762.2
        </DataArray>
        <DataArray type="Float32" Name="rho_napl" NumberOfComponents="1" format="ascii">
          822.689 827.649 822.656 826.193 847.387 845.126 865.225 865.342 870.081 870.091 870.622 870.621
          870.669 870.669 870.673 870.673 870.673 870.673 870.673 870.673 870.673 870.673 870.673 870.673
          870.673 870.673 870.673 870.673 870.673 870.673 870.673 870.673 822.666 826.565 843.258 864.328
          869.965 870.61 870.668 870.673 870.673 870.673 870.673 870.673 870.674 870.673 870.673 870.673
          822.707 828.452 841.429 863.015 869.832 870.603 870.669 870.674 870.674 870.674 870.674 870.674
          870.674 870.674 870.673 870.673 822.752 830.716 866.553 870.18 870.608 870.667 870.673 870.673
          870.673 870.673 870.673 870.673 870.673 870.674 870.674 870.673 822.768 831.586 867.158 870.505
          870.661 870.672 870.673 870.673 870.674 870.672 870.673 870.673 870.673 870.672 870.671 870.673
          822.727 830.234 866.568 870.136 870.595 870.665 870.672 870.673 870.673 870.673 870.673 870.673
          870.672 870.671 870.67 870.673 822.68 827.704 842.336 862.45 869.614 870.568 870.664 870.673
          870.674 870.672 870.671 870.67 870.67 870.671 870.67 870.673 822.65 825.841 839.66 861.354
          869.399 870.542 870.663 870.675 870.676 870.676 870.676 870.676 870.676 870.675 870.673 870.673
        </DataArray>
        <DataArray type="Float32" Name="x^H2O_napl" NumberOfComponents="1" format="ascii">
          1e-10 1e-10 1e-10 1e-10 1e-10 1e-10 1e-10 1e-10 1e-10 1e-10 1e-10 1e-10
          1e-10 1e-10 1e-10 1e-10 1e-10 1e-10 1e-10 1e-10 1e-10 1e-10 1e-10 1e-10
          1e-10 1e-10 1e-10 1e-10 1e-10 1e-10 1e-10 1e-10 1e-10 1e-10 1e-10 1e-10
          1e-10 1e-10 1e-10 1e-10 1e-10 1e-10 1e-10 1e-10 1e-10 1e-10 1e-10 1e-10
          1e-10 1e-10 1e-10 1e-10 1e-10 1e-10 1e-10 1e-10 1e-10 1e-10 1e-10 1e-10
          1e-10 1e-10 1e-10 1e-10 1e-10 1e-10 1e-10 1e-10 1e-10 1e-10 1e-10 1e-10
          1e-10 1e-10 1e-10 1e-10 1e-10 1e-10 1e-10 1e-10 1e-10 1e-10 1e-10 1e-10
          1e-10 1e-10 1e-10 1e-10 1e-10 1e-10 1e-10 1e-10 1e-10 1e-10 1e-10 1e-10
          1e-10 1e-10 1e-10 1e-10 1e-10 1e-10 1e-10 1e-10 1e-10 1e-10 1e-10 1e-10
          1e-10 1e-10 1e-10 1e-10 1e-10 1e-10 1e-10 1e-10 1e-10 1e-10 1e-10 1e-10
          1e-10 1e-10 1e-10 1e-10 1e-10 1e-10 1e-10 1e-10 1e-10 1e-10 1e-10 1e-10
          1e-10 1e-10 1e-10 1e-10 1e-10 1e-10 1e-10 1e-10 1e-10 1e-10 1e-10 1e-10
        </DataArray>
        <DataArray type="Float32" Name="x^mesitylene_napl" NumberOfComponents="1" format="ascii">
          1.28128e-08 9.84115e-07 1.07341e-07 8.27644e-06 1.95306e-05 8.48671e-05 0.000125866 0.000543558 0.000247665 0.000917943 0.000285643 0.00102445
          0.000299456 0.00105539 0.000310812 0.00107266 0.000322074 0.00107952 0.000333118 0.00105832 0.000343822 0.000976121 0.000359521 0.000817928
          0.000623108 0.00106249 0.000873223 0.00131274 0.000909047 0.00128646 0.000438002 0.000438002 4.24681e-07 5.04584e-05 0.000337789 0.0021591
          0.00390088 0.0044691 0.00467453 0.00478867 0.00480284 0.00456279 0.00376815 0.00254892 0.00261758 0.00269021 0.00277007 0.000438002
          9.25368e-07 0.000180482 0.00102516 0.00845847 0.0195581 0.0247456 0.0280296 0.0306291 0.0321678 0.0317312 0.0284799 0.0244758
          0.0233858 0.0209755 0.0199575 0.000438002 1.42307e-06 0.000365477 0.231035 0.459495 0.503811 0.494536 0.472472 0.444884
          0.397567 0.332425 0.255569 0.197642 0.152848 0.0297552 0.0610143 0.000438002 2.4057e-06 0.000549521 1 1
          1 1 1 1 1 0.697112 0.546803 0.464341 0.449081 0.530826 0.657899 0.000438002
          3.74101e-06 0.00125188 1 1 1 1 1 1 1 0.886283 0.79333 0.758631
          0.799597 0.983463 0.973449 0.000438002 4.76372e-06 0.00101931 1 1 1 1 1 1
          1 0.998857 0.997293 0.995843 0.994837 0.994804 0.986211 0.000438002 5.14176e-06 0.00112645 0.136179 0.666451
          1 1 1 1 1 0.999897 0.999705 0.99944 0.999083 0.998544 0.989628 0.000438002
        </DataArray>
        <DataArray type="Float32" Name="x^Air_napl" NumberOfComponents="1" format="ascii">
          1e-10 1e-10 1e-10 1e-10 1e-10 1e-10 1e-10 1e-10 1e-10 1e-10 1e-10 1e-10
          1e-10 1e-10 1e-10 1e-10 1e-10 1e-10 1e-10 1e-10 1e-10 1e-10 1e-10 1e-10
          1e-10 1e-10 1e-10 1e-10 1e-10 1e-10 1e-10 1e-10 1e-10 1e-10 1e-10 1e-10
          1e-10 1e-10 1e-10 1e-10 1e-10 1e-10 1e-10 1e-10 1e-10 1e-10 1e-10 1e-10
          1e-10 1e-10 1e-10 1e-10 1e-10 1e-10 1e-10 1e-10 1e-10 1e-10 1e-10 1e-10
          1e-10 1e-10 1e-10 1e-10 1e-10 1e-10 1e-10 1e-10 1e-10 1e-10 1e-10 1e-10
          1e-10 1e-10 1e-10 1e-10 1e-10 1e-10 1e-10 1e-10 1e-10 1e-10 1e-10 1e-10
          1e-10 1e-10 1e-10 1e-10 1e-10 1e-10 1e-10 1e-10 1e-10 1e-10 1e-10 1e-10
          1e-10 1e-10 1e-10 1e-10 1e-10 1e-10 1e-10 1e-10 1e-10 1e-10 1e-10 1e-10
          1e-10 1e-10 1e-10 1e-10 1e-10 1e-10 1e-10 1e-10 1e-10 1e-10 1e-10 1e-10
          1e-10 1e-10 1e-10 1e-10 1e-10 1e-10 1e-10 1e-10 1e-10 1e-10 1e-10 1e-10
          1e-10 1e-10 1e-10 1e-10 1e-10 1e-10 1e-10 1e-10 1e-10 1e-10 1e-10 1e-10
        </DataArray>
        <DataArray type="Float32" Name="S_gas" NumberOfComponents="1" format="ascii">
          0.657732 0.664157 0.809917 0.812452 0.721935 0.822437 0.801094 0.868369 0.873021 0.879376 0.879949 0.879948
          0.879996 0.879996 0.88 0.88 0.88 0.88 0.88 0.88 0.88 0.88 0.88 0.88
          0.88 0.88 0.88 0.88 0.88 0.88 0.88 0.88 0.815088 0.820973 0.822058 0.865811
          0.879214 0.879936 0.879995 0.88 0.88 0.88 0.88 0.880001 0.880001 0.880001 0.880001 0.88
          0.816607 0.826833 0.823889 0.853981 0.878837 0.879922 0.879994 0.88 0.88 0.88 0.880001 0.880001
          0.880001 0.880001 0.880001 0.88 0.818546 0.799958 0.862318 0.879908 0.879997 0.879999 0.88 0.88
          0.88 0.88 0.88 0.88 0.88 0.88 0.88 0.88 0.823412 0.804653 0.789811 0.809981
          0.810024 0.810026 0.810029 0.810033 0.810049 0.879999 0.88 0.88 0.88 0.88 0.88 0.88
          0.831265 0.822753 0.792879 0.809705 0.809988 0.809999 0.81 0.81 0.810009 0.879999 0.879999 0.879999
          0.879999 0.879999 0.88 0.88 0.839637 0.847782 0.762585 0.767377 0.807385 0.809818 0.810009 0.810027
          0.81005 0.880002 0.880001 0.88 0.88 0.88 0.88 0.88 0.8517 0.845447 0.839977 0.864783
          0.878368 0.879805 0.879981 0.879998 0.88 0.879999 0.88 0.88 0.88 0.88 0.88 0.88
        </DataArray>
        <DataArray type="Float32" Name="p_gas" NumberOfComponents="1" format="ascii">
          100105 100092 100103 100091 100080 100080 100074 100073 100068 100068 100064 100063
          100059 100058 100054 100053 100049 100048 100045 100043 100041 100039 100038 100036
          100030 100027 100018 100016 100009 100008 100000 100000 100104 100092 100080 100072
          100067 100062 100057 100052 100047 100042 100037 100031 100022 100014 100007 100000
          100107 100095 100080 100071 100066 100061 100056 100051 100046 100040 100035 100028
          100020 100012 100005 100000 100112 100104 100084 100073 100066 100060 100055 100049
          100044 100038 100032 100025 100015 100007 100004 100000 100114 100107 100088 100075
          100066 100059 100053 100047 100042 100035 100029 100021 100012 100005 100003 100000
          100112 100105 100086 100073 100065 100058 100052 100045 100039 100033 100027 100020
          100012 100005 100003 100000 100109 100097 100082 100071 100063 100057 100050 100044
          100038 100031 100025 100019 100013 100007 100003 100000 100106 100094 100081 100070
          100062 100056 100049 100043 100036 100030 100024 100018 100012 100007 100002 100000
        </DataArray>
        <DataArray type="Float32" Name="rho_gas" NumberOfComponents="1" format="ascii">
          0.849125 0.894979 0.848784 0.881824 1.04214 1.02743 1.14839 1.14905 1.17582 1.17587 1.1788 1.17879
          1.17901 1.179 1.17897 1.17896 1.17891 1.17891 1.17886 1.17885 1.17881 1.1788 1.17878 1.17876
          1.17869 1.17866 1.17855 1.17853 1.17844 1.17843 1.17833 1.17833 0.848897 0.885249 1.01495 1.14333
          1.17518 1.17874 1.17901 1.17898 1.17893 1.17886 1.1788 1.17872 1.17861 1.17852 1.17843 1.17833
          0.849332 0.901894 1.00235 1.13594 1.17457 1.17887 1.1792 1.17919 1.17915 1.17908 1.17899 1.17887
          1.17877 1.17865 1.17856 1.17833 0.849812 0.921381 1.1588 1.1805 1.18306 1.18323 1.183 1.18271
          1.18224 1.18162 1.18089 1.18031 1.17981 1.17867 1.1789 1.17833 0.849988 0.928436 1.17073 1.18692
          1.18758 1.18756 1.18749 1.18742 1.18736 1.18469 1.18334 1.18254 1.1823 1.18291 1.18396 1.17833
          0.849569 0.917481 1.16791 1.18508 1.18724 1.18751 1.18747 1.1874 1.18732 1.18628 1.18541 1.18503
          1.18528 1.18676 1.18665 1.17833 0.849083 0.895628 1.06593 1.14838 1.18242 1.18702 1.18741 1.18738
          1.18731 1.18721 1.18712 1.18704 1.18696 1.18689 1.18676 1.17833 0.848763 0.878785 0.999065 1.13768
          1.18134 1.18687 1.1874 1.18738 1.18731 1.18723 1.18716 1.18708 1.18701 1.18694 1.1868 1.17833
        </DataArray>
        <DataArray type="Float32" Name="x^H2O_gas" NumberOfComponents="1" format="ascii">
          0.402082 0.316581 0.402715 0.340305 0.109637 0.124977 0.0346112 0.0343233 0.0242813 0.0242645 0.0233608 0.0233641
          0.0232828 0.0232834 0.0232774 0.0232776 0.023278 0.0232782 0.023279 0.0232793 0.02328 0.0232803 0.0232808 0.0232811
          0.0232827 0.0232834 0.0232855 0.0232859 0.0232876 0.0232878 0.0232898 0.0232898 0.402511 0.334074 0.139052 0.0368131
          0.0244777 0.0233826 0.0232849 0.0232778 0.0232783 0.0232795 0.0232806 0.0232818 0.0232836 0.0232854 0.0232873 0.0232898
          0.401719 0.30472 0.154309 0.0403418 0.0247053 0.0233941 0.023284 0.0232765 0.0232773 0.0232787 0.0232803 0.023282
          0.0232837 0.0232858 0.0232877 0.0232898 0.400857 0.271741 0.0313457 0.0241109 0.0233854 0.0232856 0.0232771 0.0232774
          0.0232786 0.0232801 0.0232818 0.0232834 0.0232854 0.0232858 0.0232873 0.0232898 0.400552 0.260443 0.0300817 0.0235575
          0.0232945 0.0232777 0.023277 0.0232778 0.0232788 0.0232822 0.0232829 0.0232842 0.0232864 0.0232895 0.0232929 0.0232898
          0.401338 0.278357 0.031308 0.0241852 0.0234074 0.0232903 0.0232789 0.0232791 0.0232804 0.0232823 0.0232835 0.0232852
          0.0232878 0.0232923 0.0232946 0.0232898 0.402223 0.315751 0.14642 0.0419941 0.0250758 0.0234542 0.0232932 0.0232796
          0.0232784 0.0232841 0.0232876 0.0232896 0.0232908 0.0232913 0.0232937 0.0232898 0.402809 0.346192 0.169659 0.0451996
          0.0254934 0.0234986 0.0232943 0.0232759 0.0232757 0.023277 0.0232789 0.0232806 0.0232823 0.0232841 0.0232882 0.0232898
        </DataArray>
        <DataArray type="Float32" Name="x^mesitylene_gas" NumberOfComponents="1" format="ascii">
          6.44987e-10 3.84381e-08 5.41254e-09 3.48709e-07 2.43252e-07 1.21944e-06 4.4502e-07 1.90435e-06 5.93432e-07 2.19769e-06 6.54468e-07 2.34762e-06
          6.83507e-07 2.40899e-06 7.09236e-07 2.4477e-06 7.34952e-07 2.46343e-06 7.60187e-07 2.41514e-06 7.84648e-07 2.22767e-06 8.20502e-07 1.86671e-06
          1.42218e-06 2.42509e-06 1.99328e-06 2.9966e-06 2.07525e-06 2.93687e-06 1e-06 1e-06 2.14024e-08 2.08536e-06 5.44828e-06 8.18369e-06
          9.43628e-06 1.02505e-05 1.06707e-05 1.09274e-05 1.09599e-05 1.04126e-05 8.59963e-06 5.81742e-06 5.97455e-06 6.14082e-06 6.32363e-06 1e-06
          4.65377e-08 6.75744e-06 1.84762e-05 3.54476e-05 4.78352e-05 5.67895e-05 6.39809e-05 6.98886e-05 7.34017e-05 7.24103e-05 6.49954e-05 5.58614e-05
          5.33778e-05 4.78804e-05 4.55605e-05 1e-06 7.14046e-08 1.21243e-05 0.000735938 0.00109194 0.00115573 0.00112893 0.00107811 0.00101517
          0.000907244 0.00075864 0.000583285 0.000451111 0.0003489 6.79213e-05 0.000139285 1e-06 1.20612e-07 1.73899e-05 0.00303593 0.00231332
          0.00228383 0.00228193 0.00228184 0.00228191 0.002282 0.00159106 0.00124803 0.00105988 0.00102514 0.00121192 0.00150228 1e-06
          1.8795e-07 4.26229e-05 0.00318154 0.00238498 0.00229643 0.00228333 0.00228204 0.00228204 0.00228218 0.00202282 0.00181076 0.00173168
          0.00182541 0.00224563 0.002223 1e-06 2.39893e-07 3.96957e-05 0.0170617 0.00437385 0.00248995 0.00230164 0.00228364 0.00228209
          0.00228195 0.00227994 0.00227675 0.00227364 0.00227146 0.00227142 0.00225206 1e-06 2.59332e-07 4.83303e-05 0.00272706 0.00316487
          0.00253419 0.00230663 0.00228375 0.00228168 0.00228164 0.00228153 0.00228128 0.00228085 0.0022802 0.00227917 0.00225924 1e-06
        </DataArray>
        <DataArray type="Float32" Name="x^Air_gas" NumberOfComponents="1" format="ascii">
          0.597918 0.683419 0.597285 0.659694 0.890363 0.875022 0.965388 0.965675 0.975718 0.975733 0.976639 0.976634
          0.976717 0.976714 0.976722 0.97672 0.976721 0.976719 0.97672 0.976718 0.976719 0.976717 0.976718 0.976717
          0.976716 0.976714 0.976713 0.976711 0.97671 0.976709 0.976709 0.976709 0.597489 0.665924 0.860943 0.963179
          0.975513 0.976607 0.976704 0.976711 0.976711 0.97671 0.976711 0.976712 0.97671 0.976708 0.976706 0.976709
          0.598281 0.695273 0.845672 0.959623 0.975247 0.976549 0.976652 0.976654 0.976649 0.976649 0.976655 0.976662
          0.976663 0.976666 0.976667 0.976709 0.599143 0.728247 0.967918 0.974797 0.975459 0.975586 0.975645 0.975707
          0.975814 0.975961 0.976135 0.976266 0.976366 0.976646 0.976573 0.976709 0.599448 0.73954 0.966882 0.974129
          0.974422 0.97444 0.974441 0.97444 0.974439 0.975127 0.975469 0.975656 0.975689 0.975499 0.975205 0.976709
          0.598662 0.7216 0.96551 0.97343 0.974296 0.974426 0.974439 0.974439 0.974437 0.974695 0.974906 0.974983
          0.974887 0.974462 0.974482 0.976709 0.597777 0.684209 0.836519 0.953632 0.972434 0.974244 0.974423 0.974438
          0.97444 0.974436 0.974436 0.974437 0.974438 0.974437 0.974454 0.976709 0.597191 0.65376 0.827614 0.951635
          0.971972 0.974195 0.974422 0.974442 0.974443 0.974441 0.97444 0.974439 0.974438 0.974437 0.974453 0.976709
        </DataArray>
        <DataArray type="Float32" Name="porosity" NumberOfComponents="1" format="ascii">
          0.42 0.42 0.42 0.42 0.42 0.42 0.42 0.42 0.42 0.42 0.42 0.42
          0.42 0.42 0.42 0.42 0.42 0.42 0.42 0.42 0.42 0.42 0.42 0.42
          0.42 0.42 0.42 0.42 0.42 0.42 0.42 0.42 0.42 0.42 0.42 0.42
          0.42 0.42 0.42 0.42 0.42 0.42 0.42 0.42 0.42 0.42 0.42 0.42
          0.42 0.42 0.42 0.42 0.42 0.42 0.42 0.42 0.42 0.42 0.42 0.42
          0.42 0.42 0.42 0.42 0.42 0.42 0.42 0.42 0.42 0.42 0.42 0.42
          0.42 0.42 0.42 0.42 0.42 0.42 0.42 0.42 0.42 0.42 0.42 0.42
          0.42 0.42 0.42 0.42 0.42 0.42 0.42 0.42 0.42 0.42 0.42 0.42
          0.42 0.42 0.42 0.42 0.42 0.42 0.42 0.42 0.42 0.42 0.42 0.42
          0.42 0.42 0.42 0.42 0.42 0.42 0.42 0.42 0.42 0.42 0.42 0.42
          0.42 0.42 0.42 0.42 0.42 0.42 0.42 0.42 0.42 0.42 0.42 0.42
          0.42 0.42 0.42 0.42 0.42 0.42 0.42 0.42 0.42 0.42 0.42 0.42
        </DataArray>
        <DataArray type="Float32" Name="phase presence" NumberOfComponents="1" format="ascii">
          6 6 6 6 6 6 6 6 6 6 6 6
          6 6 6 6 6 6 6 6 6 6 6 6
          6 6 6 6 6 6 6 6 6 6 6 6
          6 6 6 6 6 6 6 6 6 6 6 6
          6 6 6 6 6 6 6 6 6 6 6 6
          6 6 6 6 6 6 6 6 6 6 6 6
          6 6 6 6 6 6 6 6 6 6 1 1
          1 1 1 1 1 6 6 6 6 6 6 6
          6 6 1 1 1 1 1 1 1 6 6 6
          6 6 6 6 6 6 1 1 1 1 1 1
          1 6 6 6 6 6 6 6 6 6 6 6
          1 1 1 1 1 6 6 6 6 6 6 6
        </DataArray>
        <DataArray type="Float32" Name="permeability" NumberOfComponents="1" format="ascii">
          9.14e-10 9.14e-10 9.14e-10 9.14e-10 9.14e-10 9.14e-10 9.14e-10 9.14e-10 9.14e-10 9.14e-10 9.14e-10 9.14e-10
          9.14e-10 9.14e-10 9.14e-10 9.14e-10 9.14e-10 9.14e-10 9.14e-10 9.14e-10 9.14e-10 9.14e-10 9.14e-10 9.14e-10
          6.28e-12 6.28e-12 6.28e-12 6.28e-12 6.28e-12 6.28e-12 6.28e-12 6.28e-12 9.14e-10 9.14e-10 9.14e-10 9.14e-10
          9.14e-10 9.14e-10 9.14e-10 9.14e-10 9.14e-10 9.14e-10 9.14e-10 9.14e-10 9.14e-10 9.14e-10 9.14e-10 9.14e-10
          9.14e-10 9.14e-10 9.14e-10 9.14e-10 9.14e-10 9.14e-10 9.14e-10 9.14e-10 9.14e-10 9.14e-10 9.14e-10 9.14e-10
          9.14e-10 9.14e-10 9.14e-10 9.14e-10 9.14e-10 9.14e-10 6.28e-12 6.28e-12 6.28e-12 6.28e-12 6.28e-12 6.28e-12
          6.28e-12 6.28e-12 6.28e-12 6.28e-12 6.28e-12 9.14e-10 9.14e-10 9.14e-10 9.14e-10 9.14e-10 6.28e-12 6.28e-12
          6.28e-12 6.28e-12 6.28e-12 6.28e-12 6.28e-12 6.28e-12 6.28e-12 6.28e-12 6.28e-12 9.14e-10 9.14e-10 9.14e-10
          9.14e-10 9.14e-10 6.28e-12 6.28e-12 6.28e-12 6.28e-12 6.28e-12 6.28e-12 6.28e-12 6.28e-12 6.28e-12 6.28e-12
          6.28e-12 9.14e-10 9.14e-10 9.14e-10 9.14e-10 9.14e-10 9.14e-10 9.14e-10 9.14e-10 9.14e-10 9.14e-10 9.14e-10
          9.14e-10 9.14e-10 9.14e-10 9.14e-10 9.14e-10 9.14e-10 9.14e-10 9.14e-10 9.14e-10 9.14e-10 9.14e-10 9.14e-10
          9.14e-10 9.14e-10 9.14e-10 9.14e-10 9.14e-10 9.14e-10 9.14e-10 9.14e-10 9.14e-10 9.14e-10 9.14e-10 9.14e-10
        </DataArray>
        <DataArray type="Float32" Name="T" NumberOfComponents="1" format="ascii">
          349.102 343.487 349.14 345.14 320.717 323.36 299.566 299.425 293.716 293.704 293.061 293.063
          293.005 293.005 293 293 293 293 293 293 293 293 293 293
          293 293 293 293 293 293 293 293 349.128 344.718 325.537 300.643
          293.855 293.076 293.006 293 293 293 293 292.999 292.999 292.999 292.999 293
          349.081 342.574 327.662 302.215 294.017 293.084 293.005 292.999 292.999 292.999 292.999 292.999
          292.999 292.999 292.999 293 349.031 339.993 297.97 293.596 293.079 293.007 293 292.999
          292.999 292.999 293 293 292.999 292.998 292.999 293 349.013 339 297.242 293.203
          293.014 293.001 293 292.999 292.999 293 293 293 292.999 293.001 293.003 293
          349.06 340.544 297.952 293.649 293.094 293.01 293.001 293 293 293 293 293
          293 293.003 293.004 293 349.112 343.425 326.609 302.891 294.28 293.126 293.011 293
          292.998 293.001 293.003 293.003 293.003 293.002 293.003 293 349.146 345.54 329.712 304.202
          294.54 293.158 293.011 292.997 292.996 292.996 292.996 292.996 292.997 292.997 292.999 293
        </DataArray>
      </PointData>
      <CellData Scalars="process rank">