<?xml version="1.0"?>
<VTKFile type="UnstructuredGrid" version="0.1" byte_order="LittleEndian">
  <UnstructuredGrid>
    <Piece NumberOfCells="13826" NumberOfPoints="55304">
      <PointData Scalars="p">
        <DataArray type="Float32" Name="p" NumberOfComponents="1" format="ascii">
          0.0440497 0.0459053 0.0441644 0.04602 0.0266974 0.0257593 0.0268948 0.0259568 0.0139742 0.0141107 0.0139362 0.0140727
          0.0301996 0.0276659 0.0272936 0.0247599 0.00705944 0.00693752 0.00707867 0.00695675 0.000404116 0.000268802 0.000332207 0.000196894
          0.00997089 0.0107213 0.0109251 0.0116756 0.0527164 0.0520636 0.0511538 0.050501 0.0294413 0.032144 0.0296892 0.0323919
          0.0703817 0.0715418 0.0737138 0.0748739 0.0267156 0.0267903 0.02692 0.0269947 0.0140364 0.0139635 0.0138848 0.0138119
          0.0707242 0.069235 0.0705712 0.069082 0.0278563 0.0278565 0.0276072 0.0276074 0.0336423 0.0322723 0.0323684 0.0309983
          0.0274916 0.0275472 0.0280336 0.0280893 0.0621713 0.0623306 0.062007 0.0621663 0.0175712 0.0173907 0.0174999 0.0173194
          0.0212816 0.0214629 0.0212848 0.021466 0.00894185 0.00853064 0.00831206 0.00790084 0.0812381 0.0791534 0.0844191 0.0823344
          0.0268768 0.0267497 0.026878 0.0267508 0.0200502 0.0177047 0.0198242 0.0174787 0.029238 0.0292143 0.0292124 0.0291887
          0.0617642 0.0617362 0.0618767 0.0618487 0.0845216 0.07947 0.0863672 0.0813156 0.00361305 0.00373967 0.00360726 0.00373387
          0.0220301 0.0223489 0.0231344 0.0234531 0.0447447 0.0462656 0.0448855 0.0464064 0.0291741 0.0289185 0.029137 0.0288814
          0.0251299 0.0252539 0.0251361 0.0252602 0.0165206 0.0165021 0.0156912 0.0156727 0.021068 0.0212899 0.0211037 0.0213256
          0.0886983 0.0875184 0.0912433 0.0900634 0.0271404 0.0271307 0.0270372 0.0270275 0.0279854 0.0285622 0.0279463 0.028523
          0.0107152 0.0105598 0.0107226 0.0105672 0.0835051 0.0812487 0.0820273 0.0797709 0.0273059 0.0271161 0.0272839 0.027094
          0.0508041 0.0526329 0.0517345 0.0535633 0.0632992 0.0627673 0.0642462 0.0637144 0.00848377 0.00852097 0.00863244 0.00866964
          0.023407 0.0233746 0.0235839 0.0235515 0.064374 0.0647106 0.0643779 0.0647144 0.0304778 0.0304429 0.0302873 0.0302524
          0.0491269 0.0527458 0.0525802 0.0561991 0.0422187 0.0420725 0.0440914 0.0439453 0.0263508 0.0241467 0.0269847 0.0247805
          0.0119701 0.0120004 0.0121644 0.0121947 0.0120528 0.0118599 0.0119772 0.0117843 0.0145344 0.0145207 0.0146799 0.0146662
          0.0648988 0.0658572 0.0658928 0.0668513 0.0945757 0.0989146 0.0914886 0.0958275 0.0300194 0.0298168 0.0300276 0.0298249
          0.00542213 0.00540824 0.00555217 0.00553829 0.0578184 0.0574984 0.0568007 0.0564806 0.020698 0.0204913 0.0206393 0.0204326
          0.0224319 0.0216416 0.0223535 0.0215632 0.00913692 0.00872476 0.00975014 0.00933797 0.0174582 0.0224627 0.0181254 0.0231299
          0.0130458 0.0130801 0.0124098 0.0124441 0.0263844 0.026464 0.0265258 0.0266054 0.0268672 0.0268092 0.0263212 0.0262631
          0.0299398 0.0300687 0.0302119 0.0303409 0.0168117 0.0157782 0.0165408 0.0155073 0.0331473 0.0273679 0.0335379 0.0277585
          0.013972 0.0143945 0.0138166 0.0142391 0.0623912 0.0626152 0.0622239 0.0624479 0.0681559 0.0672773 0.0672611 0.0663825
          0.0270753 0.0270472 0.0270103 0.0269822 0.0207261 0.0207587 0.0209176 0.0209502 0.0272417 0.0274849 0.0272066 0.0274498
          0.0290583 0.0287861 0.0289585 0.0286863 0.00899377 0.0089319 0.00885484 0.00879297 0.0269034 0.0268835 0.0266884 0.0266686
          0.0299103 0.0317993 0.0351096 0.0369986 0.0246266 0.0203016 0.024027 0.019702 0.0318132 0.035285 0.0304242 0.033896
          0.0268255 0.026813 0.0267443 0.0267318 0.0173164 0.0173324 0.0174895 0.0175054 0.0241202 0.023913 0.025055 0.0248478
          0.0103714 0.010523 0.0104263 0.0105779 0.020802 0.0209402 0.0208456 0.0209837 0.0435655 0.043972 0.0391949 0.0396015
          0.0296782 0.0297284 0.02971 0.0297602 0.0155908 0.0145067 0.0153505 0.0142664 0.020888 0.0242748 0.0212653 0.0246521
          0.077236 0.0797418 0.078672 0.0811778 0.0261838 0.0263951 0.0261787 0.0263901 -0.00703335 -0.00782874 -0.00486696 -0.00566235
          0.007413 0.00674714 0.00746106 0.0067952 0.0164248 0.0155735 0.0172918 0.0164405 0.0165897 0.0156274 0.0149827 0.0140203
          0.0121339 0.0116111 0.0120572 0.0115344 0.0188418 0.0180094 0.0233783 0.0225459 0.0247676 0.0245724 0.0246752 0.02448
          0.0772921 0.0792665 0.0765106 0.078485 0.0251103 0.024692 0.0245955 0.0241771 0.0685928 0.0674162 0.0692656 0.068089
          0.0785452 0.0826281 0.0744282 0.0785111 0.0268193 0.0271444 0.0269026 0.0272276 0.0133106 0.0130944 0.0137705 0.0135542
          0.0296368 0.0294667 0.0292918 0.0291217 0.0265546 0.0265189 0.0265155 0.0264798 0.069634 0.0700429 0.0723137 0.0727226
          0.0141251 0.014022 0.0145029 0.0143997 0.0300096 0.0299245 0.0298013 0.0297162 0.0245639 0.0247899 0.024611 0.0248369
          0.02644 0.0263284 0.0263681 0.0262565 0.0264222 0.0263951 0.0263699 0.0263428 0.0151287 0.0149472 0.0151883 0.0150068
          0.0859912 0.089646 0.088538 0.0921927 0.0002401 0.000249518 0.00016601 0.000175428 0.101242 0.103542 0.102132 0.104433
          0.0284786 0.028253 0.0281835 0.0279578 0.000782422 0.00298992 0.00235674 0.00456424 0.0981444 0.100674 0.0995822 0.102112
          0.02417 0.0243915 0.0242301 0.0244517 0.0771815 0.0750998 0.0812357 0.079154 0.0134483 0.0125241 0.0104629 0.00953869
          0.0136991 0.0116995 0.0168194 0.0148198 0.0436273 0.0461699 0.0427139 0.0452565 0.00812538 0.00736954 0.00788582 0.00712997
          0.0157739 0.0145419 0.0156594 0.0144274 0.0146739 0.0142968 0.0144128 0.0140357 0.0184492 0.0182481 0.0183738 0.0181727
          0.007356 0.00735646 0.00721643 0.00721689 0.0240567 0.0236542 0.0246747 0.0242722 0.0251546 0.025069 0.0252959 0.0252103
          0.0592229 0.0617582 0.0594506 0.0619859 0.0237265 0.023947 0.0237866 0.0240071 0.00721272 0.00708012 0.00720426 0.00707166
          0.0274105 0.0272749 0.0268964 0.0267607 0.0257601 0.0250579 0.0257508 0.0250486 0.0266023 0.0265016 0.0265988 0.0264981
          0.0680849 0.071475 0.0642049 0.067595 0.00172592 0.00167094 0.00164613 0.00159115 0.0235665 0.0233513 0.0235036 0.0232885
          0.0153894 0.0153902 0.015529 0.0155299 0.083361 0.0808837 0.0856995 0.0832222 0.121327 0.119882 0.119735 0.118291
          0.0187263 0.0189515 0.0186927 0.0189179 0.00296435 0.000438974 0.00429574 0.00177036 0.028854 0.0285517 0.0287316 0.0284293
          0.000563004 0.000406676 0.000483951 0.000327624 0.0894424 0.0864543 0.0872941 0.084306 0.0475859 0.0469124 0.0466767 0.0460031
          0.0231341 0.0229215 0.0230701 0.0228576 0.00401847 0.00465259 0.00325284 0.00388697 0.0273158 0.0222652 0.0276319 0.0225812
          0.00564999 0.00435561 0.00526299 0.00396861 0.0112189 0.0108468 0.0112489 0.0108767 0.0263577 0.0264298 0.0263404 0.0264125
          0.0547923 0.0547624 0.0486404 0.0486105 0.022706 0.022496 0.0226424 0.0224324 -0.00382594 -0.0030739 -0.00178482 -0.00103278
          0.0263291 0.026265 0.0257562 0.025692 0.0640346 0.0643172 0.064003 0.0642856 0.0830907 0.0774381 0.0804624 0.0748099
          0.0561139 0.0571194 0.0566217 0.0576272 0.0222819 0.0220751 0.0222175 0.0220108 0.0156937 0.0158558 0.015812 0.0159741
          0.0255165 0.0255183 0.0257427 0.0257445 0.101898 0.104567 0.0969121 0.0995811 0.0293036 0.0291827 0.0287913 0.0286704
          0.0589468 0.0595807 0.0566751 0.057309 0.0218605 0.0216591 0.0218007 0.0215994 0.0191409 0.0189509 0.0191494 0.0189594
          0.0158545 0.015377 0.0160584 0.0155808 0.0216297 0.0220704 0.0225532 0.022994 0.0196703 0.0196543 0.019478 0.019462
          0.0145472 0.0158057 0.0149856 0.0162442 0.0774912 0.0771477 0.078488 0.0781446 0.0413123 0.0423359 0.0375849 0.0386085
          0.0373149 0.0380737 0.0362948 0.0370536 0.0319946 0.0314854 0.0311684 0.0306592 0.00346229 0.00333375 0.00344756 0.00331902
          0.0250506 0.0257901 0.0253258 0.0260652 0.0255354 0.0252461 0.0257014 0.0254121 0.0286712 0.0292903 0.0283862 0.0290054
          0.0580202 0.057897 0.0562081 0.0560849 0.104363 0.103646 0.107147 0.10643 -0.00175335 -0.000228261 -0.00267347 -0.00114838
          0.0113665 0.0109262 0.0117291 0.0112888 0.0249368 0.0251674 0.0242179 0.0244484 0.000229245 0.000212111 0.000200613 0.000183478
          0.0637266 0.0637735 0.0636984 0.0637452 7.09723e-05 0.000169454 -5.27048e-05 4.57769e-05 0.0298166 0.0295522 0.0298667 0.0296023
          0.0230001 0.0229841 0.0228251 0.0228092 0.0597258 0.0595187 0.0592017 0.0589946 0.092589 0.0903816 0.092102 0.0898946
          0.0215597 0.0213932 0.0216507 0.0214842 0.113899 0.111721 0.11489 0.112712 0.00815504 0.00823628 0.00819471 0.00827595
          0.0334085 0.0361435 0.0341716 0.0369066 0.0143196 0.0137922 0.014268 0.0137406 0.0614661 0.0616445 0.0612754 0.0614537
          0.112175 0.111497 0.109352 0.108674 0.0249684 0.0251072 0.0250148 0.0251536 -0.00633241 -0.00722383 -0.00807841 -0.00896982
          0.0207282 0.0205441 0.0207085 0.0205244 0.0304817 0.0305205 0.0305034 0.0305422 0.0114198 0.0113301 0.0119732 0.0118835
          0.0266242 0.0267235 0.0266381 0.0267374 0.0792529 0.0772386 0.0789313 0.076917 0.00635647 0.0064224 0.00651667 0.0065826
          0.0213255 0.0214966 0.0213423 0.0215135 -0.00310966 -0.00207605 -0.00220369 -0.00117007 0.00868703 0.00867635 0.00854072 0.00853004
          0.0599385 0.0624805 0.0581023 0.0606443 0.028308 0.0279969 0.0286903 0.0283792 0.0575615 0.0584104 0.0581189 0.0589678
          0.00815952 0.00913106 0.0113567 0.0123283 0.0203361 0.0201454 0.020312 0.0201213 0.0168169 0.01653 0.0183598 0.0180728
          0.0199308 0.0197507 0.0199153 0.0197352 0.076703 0.0773743 0.078486 0.0791573 0.0220867 0.0202993 0.0220829 0.0202955
          0.0299964 0.0298803 0.0301974 0.0300812 0.0191333 0.0190838 0.0189466 0.0188971 0.0114173 0.010856 0.011356 0.0107947
          0.0270426 0.0271155 0.0272625 0.0273355 0.0181323 0.0177497 0.0174514 0.0170687 0.0698884 0.0696626 0.0666035 0.0663777
          0.0279079 0.0282472 0.0280705 0.0284098 0.0529952 0.0516476 0.0536951 0.0523475 0.0108846 0.0108045 0.0110852 0.011005
          0.0259937 0.02597 0.0262244 0.0262008 0.0292229 0.0304049 0.0253212 0.0265033 0.115067 0.112467 0.114628 0.112028
          -0.00800352 -0.00878787 -0.0061218 -0.00690616 0.0830098 0.0799403 0.0804483 0.0773788 0.030509 0.0305358 0.0305268 0.0305537
          0.0245908 0.0279116 0.0245173 0.027838 0.0284783 0.028291 0.0283073 0.0281201 0.0112359 0.0110583 0.0111707 0.010993
          0.0575514 0.0567473 0.051981 0.0511769 0.00701221 0.00715548 0.00701634 0.00715961 0.000369264 -0.00139033 -0.000876689 -0.00263629
          0.0326049 0.0301963 0.0300698 0.0276613 0.0116919 0.0116361 0.0121612 0.0121055 0.0530513 0.0536837 0.0509394 0.0515717
          0.00659012 0.00653418 0.00642835 0.0063724 0.0488739 0.0519817 0.0458833 0.0489911 0.0238778 0.0234391 0.0245273 0.0240885
          0.00386058 0.00517181 0.00405721 0.00536844 0.0544493 0.0537704 0.0557254 0.0550465 0.0282335 0.0280093 0.0285134 0.0282891
          -0.00769321 -0.0078117 -0.00611101 -0.00622949 0.0210784 0.0208897 0.021081 0.0208922 0.0173947 0.016682 0.0171006 0.0163878
          0.0177296 0.0176889 0.017538 0.0174973 0.0259843 0.0258854 0.0253962 0.0252974 0.0241569 0.0240162 0.0249046 0.0247638
          0.0172448 0.0174235 0.0173125 0.0174912 0.0188947 0.0189611 0.0190892 0.0191555 0.0754173 0.0755949 0.0737984 0.073976
          0.0181002 0.0128542 0.0211698 0.0159237 0.0124115 0.0126902 0.012152 0.0124307 0.0774376 0.0765476 0.0779844 0.0770944
          0.0225218 0.0232932 0.0227068 0.0234782 0.0262306 0.0262779 0.0265398 0.0265871 0.0128135 0.0131042 0.0128176 0.0131083
          -0.00518375 -0.00467566 -0.00603236 -0.00552426 0.0298365 0.0297478 0.0296251 0.0295365 0.0340212 0.0370528 0.0344454 0.037477
          0.0277899 0.0276777 0.0273436 0.0272314 0.0136705 0.0138305 0.013687 0.013847 0.0118579 0.0120339 0.0118883 0.0120643
          0.00893522 0.00855093 0.00820706 0.00782277 0.0192935 0.0194388 0.0192519 0.0193972 0.0269471 0.0266823 0.0268553 0.0265905
          0.0142943 0.0143196 0.0144856 0.0145109 0.022458 0.0225518 0.0217363 0.0218301 0.0264687 0.0264448 0.0267136 0.0266896
          0.0290916 0.0294861 0.0290871 0.0294816 0.00701333 0.0056063 0.00450853 0.00310151 0.0276271 0.0279883 0.027844 0.0282052
          0.0160778 0.0156736 0.0146712 0.0142671 0.114713 0.112337 0.113844 0.111469 0.0687822 0.0717062 0.0672462 0.0701701
          0.0277388 0.0273297 0.0275909 0.0271818 0.0219817 0.0216477 0.0210619 0.0207279 0.0300821 0.0300042 0.0298827 0.0298048
          0.0124087 0.0124185 0.0122421 0.0122519 0.000465235 -0.00109322 0.00141058 -0.000147877 0.0182474 0.0182236 0.0184014 0.0183777
          0.0454712 0.0419518 0.0430124 0.039493 0.0739093 0.0756169 0.0748457 0.0765532 0.0252725 0.0256451 0.0259419 0.0263145
          0.0614556 0.0611213 0.0551618 0.0548276 0.0263617 0.0266353 0.0265589 0.0268325 0.0128594 0.0124765 0.0128114 0.0124286
          0.0289581 0.0287914 0.0287236 0.028557 -0.0072534 -0.00881966 -0.00745169 -0.00901795 0.059605 0.0593935 0.0589941 0.0587826
          0.0289924 0.0290888 0.0289859 0.0290823 0.0401494 0.0385636 0.0395288 0.037943 0.0138724 0.0139894 0.0140325 0.0141495
          0.123101 0.126615 0.125297 0.128812 0.0641102 0.0602534 0.0612533 0.0573965 0.0544385 0.0539616 0.0565087 0.0560318
          0.0350019 0.033586 0.0353131 0.0338971 0.02544 0.0209135 0.0274666 0.0229401 0.0265567 0.0265838 0.0264512 0.0264783
          0.00302461 0.00316118 0.00302562 0.00316219 0.0437418 0.0458028 0.0478078 0.0498688 0.0245618 0.0247417 0.02463 0.0248099
          0.0117916 0.011831 0.0119738 0.0120132 0.0278358 0.0277278 0.0275659 0.0274579 0.026464 0.0264258 0.026414 0.0263759
          0.00138086 0.00145621 0.0015281 0.00160346 0.00465443 0.00547262 0.00795348 0.00877167 0.0160887 0.0161621 0.015866 0.0159394
          0.00863908 0.00827689 0.0092406 0.0088784 0.0189068 0.018868 0.0187198 0.018681 0.0599334 0.059635 0.0594404 0.059142
          0.0269617 0.0269353 0.0272212 0.0271949 0.0620232 0.064419 0.0620111 0.0644069 0.00547964 0.00540985 0.00533913 0.00526934
          0.00786243 0.00773269 0.00783545 0.00770571 0.0287922 0.0290582 0.0288669 0.0291329 0.030206 0.0301558 0.0299276 0.0298774
          0.00522372 0.00524896 0.00506677 0.00509201 0.0270926 0.0266086 0.027064 0.0265801 0.0568636 0.0537209 0.0531922 0.0500496
          0.07867 0.0761568 0.0772017 0.0746885 0.0272278 0.0271138 0.0271721 0.0270581 -0.00268486 -0.00288663 -0.00508466 -0.00528643
          0.024237 0.0242482 0.0240792 0.0240905 0.014058 0.0142366 0.0139933 0.0141719 0.0148308 0.0148329 0.015002 0.015004
          0.0151775 0.0152006 0.0153511 0.0153742 0.0249626 0.0249499 0.0247997 0.0247871 0.0245057 0.0251773 0.0242849 0.0249565
          0.0186949 0.0187369 0.0185256 0.0185675 0.0669833 0.0674524 0.0694956 0.0699647 0.107705 0.110104 0.107043 0.109441
          0.0242007 0.0239176 0.0248616 0.0245785 0.00690063 0.00861306 0.00567241 0.00738484 0.0271183 0.0270061 0.0269836 0.0268714
          0.00157411 0.00242561 0.000717143 0.00156864 0.0250633 0.0248761 0.0234272 0.02324 0.0195758 0.0197542 0.0195583 0.0197367
          0.0215934 0.0217379 0.0203895 0.0205339 0.0968598 0.0994021 0.0928952 0.0954375 0.116357 0.117643 0.118847 0.120133
          0.0567463 0.0574289 0.0547101 0.0553926 0.0778572 0.0784999 0.0775837 0.0782263 0.00908673 0.00894831 0.00908842 0.00895
          0.0287445 0.025429 0.0310534 0.0277379 0.0224285 0.0220459 0.0217031 0.0213204 0.0150362 0.0154445 0.0152564 0.0156648
          0.00171586 0.00176891 0.0018562 0.00190925 0.0337792 0.0326932 0.0332307 0.0321447 0.0574874 0.0577802 0.0584052 0.0586981
          0.0273357 0.0269731 0.0272664 0.0269038 0.0219933 0.0226434 0.0225867 0.0232368 0.0201328 0.0199461 0.0201099 0.0199231
          0.000686667 -0.000100882 0.0014597 0.000672153 0.0919667 0.0900379 0.0911987 0.08927 0.0285724 0.0288433 0.0286842 0.0289552
          0.0102255 0.0103725 0.0102369 0.0103839 0.0263915 0.0264215 0.0263194 0.0263494 0.00993155 0.013819 0.0115394 0.0154268
          0.0246963 0.0247822 0.0290762 0.0291621 0.0143396 0.0142386 0.0142574 0.0141563 0.0244144 0.0246026 0.0238979 0.0240861
          0.0233595 0.0233724 0.0231783 0.0231912 -0.00552141 -0.00592399 -0.00418284 -0.00458542 0.0210904 0.0212742 0.0210901 0.0212739
          0.030316 0.0302261 0.0301206 0.0300307 0.0274697 0.0274487 0.0277424 0.0277214 0.0681058 0.0646791 0.0715325 0.0681057
          0.0228265 0.0228361 0.0229979 0.0230076 0.0139605 0.0140776 0.0140849 0.014202 0.000169834 0.000123312 0.000162982 0.00011646
          0.109686 0.107023 0.109319 0.106657 0.00869118 0.00809039 0.00564465 0.00504387 0.0237463 0.0237397 0.0235874 0.0235809
          0.0237292 0.0233361 0.0230426 0.0226495 0.0162575 0.0167052 0.0157115 0.0161592 0.0183915 0.0183926 0.0185649 0.018566
          0.0282441 0.0285211 0.0284135 0.0286905 -0.00175303 -0.000793188 -0.00311896 -0.00215912 0.105756 0.10909 0.105342 0.108677
          0.012338 0.0125073 0.0122253 0.0123945 0.0309667 0.0305889 0.0303056 0.0299278 0.0247757 0.0247746 0.024924 0.0249229
          0.0255776 0.0266672 0.0253935 0.0264831 0.0197868 0.0207274 0.0198359 0.0207764 0.0273075 0.0271284 0.0273267 0.0271476
          0.00670432 0.00686294 0.00675571 0.00691433 0.0103528 0.0107354 0.0104633 0.0108459 0.0150205 0.0145013 0.0145187 0.0139995
          0.00346459 0.00359509 0.00345709 0.00358759 0.0632855 0.0633287 0.0640027 0.0640458 0.00376671 0.00261043 0.00295988 0.0018036
          0.00506328 0.0050993 0.00521228 0.0052483 0.0205383 0.0203463 0.0205141 0.0203222 0.019853 0.0208883 0.0245988 0.0256341
          0.0125219 0.0130075 0.0122743 0.0127598 0.0508392 0.0494922 0.0510808 0.0497338 0.00565282 0.00573325 0.00581794 0.00589837
          0.0303364 0.0343834 0.0286151 0.0326621 0.00517443 0.00621325 0.00576964 0.00680846 0.0167469 0.0187022 0.0194772 0.0214326
          0.016877 0.0169736 0.017046 0.0171426 0.0249147 0.0249608 0.0251079 0.025154 0.019817 0.02003 0.0207393 0.0209523
          0.00445971 0.00432642 0.0044329 0.00429961 0.0124041 0.012544 0.0123595 0.0124994 0.0392873 0.041345 0.0400503 0.0421079
          0.0772019 0.0792516 0.0765715 0.0786212 0.061876 0.0619328 0.0617384 0.0617951 0.00847075 0.00784242 0.00763873 0.0070104
          0.010848 0.00913889 0.01067 0.00896088 0.0285754 0.0284925 0.0281713 0.0280885 0.0299867 0.0294057 0.0284388 0.0278579
          0.0124237 0.012415 0.0125928 0.0125842 0.00316986 0.00330431 0.00317206 0.0033065 0.0186334 0.0176774 0.0162943 0.0153383
          0.00973384 0.00924333 0.0102024 0.00971185 0.015342 0.0169537 0.0120591 0.0136709 0.0134853 0.0136449 0.0135063 0.0136659
          0.0791817 0.0799902 0.0842757 0.0850842 0.00821209 0.0075213 0.00830403 0.00761325 0.0305416 0.0303729 0.0304711 0.0303025
          0.0271518 0.0268795 0.0271198 0.0268474 0.0016433 0.00195556 0.000196452 0.000508717 -0.00341777 -0.00260447 -0.00197418 -0.00116088
          0.0303069 0.030064 0.0301567 0.0299137 0.0174637 0.0177974 0.0181546 0.0184884 0.0388261 0.0411385 0.0370366 0.0393489
          0.00417819 0.00403794 0.00413697 0.00399672 0.0304897 0.0305362 0.03048 0.0305265 0.0267612 0.026633 0.0266126 0.0264845
          0.0276419 0.0276099 0.027881 0.027849 0.0753884 0.0740891 0.0750628 0.0737635 0.0257933 0.0269075 0.0262928 0.027407
          0.0115412 0.0115463 0.0113931 0.0113982 0.0123122 0.0121599 0.0126063 0.0124541 0.0279849 0.0281714 0.0283241 0.0285106
          0.017981 0.0174909 0.0175155 0.0170254 0.0283771 0.027911 0.027959 0.0274929 0.013892 0.0135924 0.0136331 0.0133336
          0.010709 0.0112658 0.010777 0.0113337 0.0272994 0.0274928 0.0275929 0.0277863 0.0127457 0.0131391 0.0123825 0.0127759
          0.0244709 0.0244213 0.0242855 0.024236 0.0273804 0.0279496 0.0287049 0.029274 0.010434 0.010632 0.0103178 0.0105158
          0.0369315 0.0363985 0.0385264 0.0379934 0.0145888 0.0147663 0.0130897 0.0132672 0.0144666 0.0124115 0.0112286 0.00917343
          0.07867 0.0748451 0.0740217 0.0701968 0.0281865 0.0282134 0.0283084 0.0283353 -0.00477867 -0.00470311 -0.00628016 -0.0062046
          0.00869739 0.00850941 0.00935075 0.00916277 0.0925578 0.0935478 0.0904556 0.0914457 0.0143971 0.0147065 0.0141209 0.0144303
          0.014849 0.0153702 0.0167554 0.0172766 0.0259098 0.0258435 0.0256632 0.0255968 0.0257749 0.0256395 0.0250063 0.0248709
          0.0236329 0.0239926 0.0230524 0.0234121 0.0260833 0.0262804 0.0266414 0.0268384 -0.0111311 -0.0112524 -0.00914066 -0.00926197
          0.0881386 0.0907418 0.0900123 0.0926154 0.0103627 0.010817 0.0103721 0.0108264 0.0185817 0.0193123 0.0185882 0.0193188
          0.0208819 0.0207213 0.0208775 0.0207169 0.0207885 0.0210009 0.0214762 0.0216885 0.0187741 0.0187355 0.0189533 0.0189148
          0.0114299 0.0117925 0.0112513 0.011614 0.0591107 0.0593273 0.0597859 0.0600024 0.066681 0.0701636 0.0664771 0.0699597
          0.00465863 0.00481983 0.00476495 0.00492615 0.0865251 0.0823472 0.0836031 0.0794252 0.0274831 0.0277329 0.0274045 0.0276543
          0.0567906 0.0565325 0.0556944 0.0554364 0.0256628 0.0256981 0.0250013 0.0250367 0.0266381 0.0267645 0.0268729 0.0269992
          0.00962482 0.00894355 0.00983561 0.00915434 0.0122301 0.0120684 0.012214 0.0120524 0.023306 0.0225553 0.0233399 0.0225892
          0.0291391 0.0335513 0.0309493 0.0353615 0.0286735 0.0288901 0.0291791 0.0293957 0.020753 0.0206918 0.0205502 0.0204889
          0.0250677 0.0249089 0.0250172 0.0248584 0.0279187 0.0271387 0.0243768 0.0235967 0.00815375 0.0066672 0.0102737 0.00878715
          0.0136037 0.010718 0.0115779 0.0086922 0.00558486 0.00468485 0.00606962 0.00516962 0.0784223 0.0790666 0.0761653 0.0768095
          0.00897927 0.00884089 0.00828937 0.00815099 0.0140666 0.0141372 0.0143159 0.0143865 0.0132614 0.0136046 0.013818 0.0141613
          0.0723817 0.070801 0.0720869 0.0705063 0.0193658 0.0182146 0.0179454 0.0167942 0.0674783 0.0658104 0.0674699 0.065802
          0.0286189 0.0284222 0.0288839 0.0286872 0.0336067 0.0308873 0.0325851 0.0298657 0.0349022 0.0333843 0.0345464 0.0330286
          0.0354393 0.0365 0.0306779 0.0317386 0.0845343 0.0852985 0.0835264 0.0842905 0.0152814 0.0149024 0.0150384 0.0146595
          0.0168735 0.0176531 0.0170759 0.0178554 0.00597178 0.00589461 0.00580717 0.00573 0.0242089 0.0242405 0.0243917 0.0244233
          0.072403 0.0720728 0.0739973 0.0736671 0.0287134 0.0287257 0.0288061 0.0288184 -0.00755497 -0.00870962 -0.00759257 -0.00874722
          0.0248186 0.0249691 0.0248391 0.0249896 0.000195472 0.000236485 0.000225129 0.000266141 0.0146259 0.0144838 0.0147283 0.0145862
          0.0217099 0.0217007 0.0219297 0.0219204 0.0267535 0.0269563 0.0270442 0.0272469 0.0295949 0.029597 0.0341571 0.0341593
          0.0287888 0.0287196 0.0285508 0.0284816 0.0616249 0.06235 0.0616244 0.0623494 0.0662212 0.0624104 0.0659867 0.0621759
          0.0262937 0.024949 0.0258857 0.024541 0.0482988 0.0507696 0.0477728 0.0502436 -0.0074456 -0.0065073 -0.00847633 -0.00753803
          0.0152946 0.0157807 0.0156217 0.0161079 0.0273737 0.0271385 0.027379 0.0271438 0.0057382 0.00565874 0.00557129 0.00549183
          0.0265157 0.0264721 0.0264719 0.0264283 0.0038711 0.00373306 0.00383272 0.00369468 0.0265107 0.0266879 0.0268546 0.0270318
          0.119875 0.119027 0.118026 0.117179 0.000792967 0.000653808 0.000744583 0.000605424 -0.00966288 -0.0110201 -0.00873017 -0.0100874
          0.00540972 0.00537191 0.00526369 0.00522587 0.051756 0.0505409 0.0522093 0.0509941 0.00207607 0.00203272 0.00193129 0.00188795
          0.00767616 0.00773454 0.00749653 0.00755491 0.0135974 0.0131751 0.0138245 0.0134022 0.0474406 0.048994 0.0523624 0.0539159
          0.0341442 0.0318333 0.0310999 0.028789 0.113682 0.110573 0.11657 0.113461 0.00881495 0.00830128 0.00809059 0.00757692
          0.00109462 0.00023449 0.000587295 -0.000272838 0.0639026 0.0661225 0.0692757 0.0714956 0.0276845 0.0279592 0.0275363 0.027811
          0.0103279 0.0105221 0.0102303 0.0104245 0.0254756 0.0253497 0.0253578 0.0252319 0.00372363 0.00358586 0.00367816 0.00354039
          0.0067083 0.00590697 0.0069101 0.00610877 0.0275497 0.0272055 0.0276068 0.0272626 0.00819275 0.00800089 0.00749844 0.00730658
          0.024425 0.024471 0.024604 0.02465 0.0296528 0.0294067 0.0296411 0.0293949 0.0302007 0.0300396 0.030165 0.0300039
          0.0216515 0.0214565 0.0215946 0.0213995 -0.00304909 -0.00202909 -0.00211918 -0.00109918 0.00776359 0.00772595 0.0076073 0.00756967
          0.0108284 0.0108931 0.0127328 0.0127975 0.0149638 0.0152898 0.015102 0.015428 0.102372 0.102108 0.105334 0.10507
          0.106286 0.106553 0.108847 0.109114 0.00636871 0.00629363 0.00620884 0.00613376 0.0273106 0.027255 0.0272933 0.0272377
          0.0146399 0.0143792 0.0143329 0.0140722 -0.0041899 -0.00272918 -0.00354902 -0.00208829 0.021193 0.0217809 0.0217263 0.0223141
          0.00808246 0.00804405 0.00792379 0.00788538 0.0131137 0.0132913 0.0131493 0.0133269 0.0053937 0.00542313 0.00524031 0.00526974
          0.12456 0.124476 0.127134 0.127049 0.0471885 0.0466591 0.0451873 0.044658 0.027688 0.0278801 0.027966 0.0281581
          0.0602506 0.0608058 0.0599873 0.0605424 0.0170209 0.0153153 0.0155492 0.0138436 0.0233699 0.0233659 0.0231928 0.0231888
          0.0178228 0.0185506 0.0172755 0.0180033 0.0116801 0.011646 0.0118379 0.0118038 0.013429 0.0133985 0.0131701 0.0131396
          0.0250232 0.0249212 0.0256215 0.0255194 0.0465066 0.0469182 0.0479734 0.0483849 -0.00100184 -0.00336046 -0.000459835 -0.00281846
          0.0214505 0.0212603 0.0213878 0.0211976 0.0273814 0.0276798 0.0277712 0.0280697 0.0266738 0.0264452 0.0223956 0.022167
          0.0583393 0.0575193 0.0580563 0.0572363 0.0297618 0.0297895 0.0300094 0.0300372 0.011115 0.0104856 0.0108842 0.0102549
          0.027273 0.0272267 0.0272609 0.0272145 0.00751826 0.00735631 0.00751976 0.00735781 0.0127413 0.0129069 0.0127611 0.0129268
          0.0169688 0.0170528 0.0176639 0.0177479 -0.000190489 -0.00114632 -0.00123882 -0.00219465 0.0257674 0.0252253 0.0263619 0.0258197
          0.0130689 0.0132158 0.0127718 0.0129187 0.0504025 0.0501627 0.0490613 0.0488216 0.113407 0.110615 0.110092 0.1073
          0.0302764 0.0303604 0.0303206 0.0304046 0.00627595 0.00636513 0.00644408 0.00653325 0.104845 0.105456 0.102425 0.103036
          0.0897636 0.0879727 0.0909729 0.0891819 0.0207775 0.0208229 0.0209637 0.021009 0.0765853 0.0771985 0.0756555 0.0762688
          0.0305412 0.0304113 0.0305836 0.0304537 0.00250449 0.00247431 0.00237643 0.00234625 0.0618794 0.0630989 0.0607936 0.0620131
          0.0107887 0.0111947 0.0107665 0.0111725 0.0148824 0.0147985 0.0150431 0.0149592 0.0628562 0.0632458 0.0626889 0.0630785
          0.012959 0.0153081 0.0155304 0.0178795 0.0360332 0.0350289 0.0373461 0.0363418 0.00131828 0.00132721 0.00142396 0.00143289
          0.0863862 0.0808502 0.0844943 0.0789583 0.0279022 0.0277646 0.0281528 0.0280152 0.0264508 0.0265112 0.0265025 0.0265629
          0.0271889 0.0233492 0.0281582 0.0243185 0.0684473 0.0691251 0.073588 0.0742658 0.0618461 0.0620535 0.0611161 0.0613235
          0.0220105 0.0216667 0.0210783 0.0207345 0.0239634 0.0238722 0.0237594 0.0236683 0.0220702 0.0218662 0.0220079 0.0218038
          0.0137675 0.0139859 0.013914 0.0141323 0.074182 0.0722187 0.0771711 0.0752078 0.0170433 0.0168657 0.0169625 0.0167849
          0.00910599 0.00905167 0.00894397 0.00888964 -0.0038977 -0.0013779 -0.00423811 -0.00171831 0.0175673 0.0180702 0.0178209 0.0183239
          0.0491251 0.0498672 0.0475968 0.0483389 0.0111506 0.0111575 0.0113173 0.0113242 0.0394925 0.040308 0.0382059 0.0390214
          0.0246618 0.0253485 0.0249802 0.0256669 0.0236229 0.0236824 0.0238243 0.0238838 0.0264638 0.0260748 0.0283144 0.0279254
          0.00491845 0.00422122 0.00567274 0.00497552 0.0054342 0.00595751 0.00825003 0.00877334 0.018272 0.0179355 0.0175997 0.0172633
          -0.00272612 -0.0049418 -0.00293564 -0.00515131 0.0222182 0.0222535 0.0224102 0.0224455 0.0248627 0.0198348 0.0236002 0.0185723
          0.0899419 0.0876923 0.0878524 0.0856029 0.0269406 0.0269675 0.0271275 0.0271544 -0.0074162 -0.0068629 -0.00895363 -0.00840033
          0.0301682 0.0299619 0.0302066 0.0300003 -6.41825e-05 0.000787348 -0.000961623 -0.000110093 0.0109233 0.0113632 0.0104914 0.0109313
          0.027801 0.0274926 0.0277342 0.0274258 0.0331854 0.0320308 0.0335516 0.032397 0.0579126 0.0587739 0.0611524 0.0620138
          0.109674 0.106205 0.109831 0.106361 -0.00318958 -0.00426925 -0.00410444 -0.00518412 0.027228 0.0270485 0.0272069 0.0270274
          0.00508689 0.00505914 0.00493838 0.00491064 0.0299109 0.0301117 0.0297538 0.0299547 0.0129655 0.0150402 0.0119615 0.0140361
          0.0784933 0.0793354 0.0730216 0.0738638 0.0569591 0.0578915 0.0578978 0.0588302 0.00651965 0.00661186 0.00656296 0.00665518
          0.0284305 0.0286182 0.0287598 0.0289476 0.0431052 0.0445862 0.0433043 0.0447853 0.0354956 0.0370452 0.0349781 0.0365277
          0.0116853 0.0115608 0.0112083 0.0110838 -0.00761295 -0.00614519 -0.00748182 -0.00601405 0.00712602 0.0077644 0.00760236 0.00824074
          0.0131207 0.0131463 0.0128404 0.012866 0.0149797 0.0151619 0.0152775 0.0154597 0.0141405 0.0143698 0.0136628 0.0138921
          0.12658 0.128155 0.126152 0.127727 0.00019257 0.000212605 0.000216056 0.000236091 0.0113955 0.0113696 0.0112427 0.0112168
          0.0273157 0.0270706 0.0272819 0.0270368 0.0402859 0.0444173 0.0398081 0.0439395 0.0279495 0.0275276 0.0280245 0.0276027
          0.011475 0.0123278 0.0131219 0.0139747 0.0143221 0.0138928 0.0140514 0.0136222 0.0276099 0.0275012 0.0273519 0.0272431
          -0.00575778 -0.00639955 -0.00709616 -0.00773793 0.00258062 0.00273302 0.00257922 0.00273162 0.0100587 0.0102121 0.0100643 0.0102177