<?xml version="1.0"?>
<VTKFile type="UnstructuredGrid" version="0.1" byte_order="LittleEndian">
  <UnstructuredGrid>
    <Piece NumberOfCells="100" NumberOfPoints="121">
      <CellData Scalars="wetting potential" Vectors="wetting-velocity">
        <DataArray type="Float32" Name="wetting potential" NumberOfComponents="1" format="ascii">
          100180 100433 100633 100797 100880 100754 100606 100456 100304 100139 100207 100446
          100642 100817 100933 100759 100607 100457 100307 100168 100283 100470 100655 100852
          101057 101170 101361 101818 101028 100235 100355 100492 100667 100885 101234 101584
          101924 103024 101583 100212 100285 101550 102375 101940 101448 101592 101718 101383
          100799 100174 100189 102476 103889 102962 101575 101599 101645 101149 100564 100150
          100131 100474 101013 103772 104037 104016 103198 100810 100424 100127 100115 100353
          100612 104806 106112 106110 104814 100580 100341 100112 100110 100324 100528 100884
          102171 102163 100860 100501 100311 100107 100109 100320 100527 100810 101241 101229
          100784 100504 100307 100105
        </DataArray>
        <DataArray type="Float32" Name="wetting pressure" NumberOfComponents="1" format="ascii">
          193375 193628 193828 193992 194075 193949 193801 193651 193499 193334 183592 183831
          184027 184202 184318 184144 183992 183842 183692 183553 173858 174045 174230 174427
          174632 174745 174936 175393 174603 173810 164120 164257 164432 164650 164999 165350
          165689 166789 165348 163977 154240 155505 156330 155895 155403 155547 155672 155338
          154754 154129 144334 146621 148034 147107 145720 145744 145790 145294 144709 144295
          134466 134809 135348 138107 138372 138351 137533 135145 134759 134462 124640 124878
          125137 129331 130637 130635 129339 125105 124866 124637 114825 115039 115243 115599
          116886 116878 115575 115216 115026 114822 105014 105225 105432 105715 106146 106134
          105689 105409 105212 105010
        </DataArray>
        <DataArray type="Float32" Name="nonwetting pressure" NumberOfComponents="1" format="ascii">
          193875 194128 194328 194492 194575 194449 194301 194151 193999 193834 184092 184331
          184527 184702 184818 184644 184492 184342 184192 184054 174363 174545 174730 174927
          175132 179745 179936 180396 179604 174331 164656 164757 164932 165150 165499 165864
          166351 167593 166105 164521 154794 160507 161334 160896 155916 156047 156179 155943
          155308 154631 144894 147457 148879 147730 146253 146244 146294 145878 145238 144795
          134973 135396 135996 143115 143387 143366 142542 135732 135283 134962 125140 125398
          125723 130260 131563 131560 130268 125693 125384 125137 115325 115540 115780 116305
          117667 117660 116290 115754 115528 115322 105514 105725 105937 106243 106741 106729
          106217 105914 105712 105510
        </DataArray>
        <DataArray type="Float32" Name="nonwetting potential" NumberOfComponents="1" format="ascii">
          57810.7 58063.2 58262.9 58427.1 58510.6 58384.3 58236.6 58086.4 57934.2 57769.6 62350.4 62589
          62784.4 62959.8 63075.6 62902.2 62749.8 62599.4 62449.9 62311.8 66943.4 67125.6 67311 67507.4
          67713 72325.3 72516.6 72976.7 72184.1 66911.4 71558.9 71660 71834.7 72052.8 72402.5 72767.2
          73253.9 74496.5 73008.2 71423.9 76019.4 81732.2 82559.9 82121.7 77141.6 77272.3 77404.4 77168.8
          76534.1 75856.5 80442.7 83004.9 84426.9 83278.7 81801.2 81792.4 81842.4 81426.8 80785.9 80343.6
          84843.4 85267.2 85866.4 92986.2 93257.7 93236.7 92413.2 85603 85153.8 84833.4 89333.7 89592
          89916.7 94454 95756.1 95753.9 94461.5 89886.8 89577.4 89330.7 93841.4 94056.6 94296.1 94821.1
          96183.5 96175.8 94806.4 94270.2 94043.9 93837.8 98352.5 98563.6 98775.7 99081.2 99579.6 99568
          99056 98752.3 98550.4 98348.5
        </DataArray>
        <DataArray type="Float32" Name="capillary pressure" NumberOfComponents="1" format="ascii">
          500 500 500 500 500 500 500 500 500 500 500.005 500
          500 500 500 500 500 500 500 500.876 505.327 500 500 500
          500 5000 5000.47 5003.01 5000.68 521.264 535.983 500.008 500 500 500.27 514.601
          661.816 804.025 757.123 543.872 553.449 5001.49 5004.39 5000.93 513.023 500.001 506.218 605.099
          554.648 501.881 560.796 835.775 844.882 623.845 533.405 500.014 503.953 584.192 528.951 500.463
          506.472 587.288 647.425 5008.11 5014.9 5014.87 5009.31 587.486 523.802 500.259 500.272 520.345
          586.202 929.56 925.818 925.824 929.128 588.064 518.18 500.134 500 501.957 536.892 706.136
          781.311 782.156 714.892 537.746 501.986 500 500 500.003 504.574 527.656 595.03 595.121
          528.416 505.113 500.004 500
        </DataArray>
        <DataArray type="Float32" Name="wetting-velocity" NumberOfComponents="3" format="ascii">
          -1.5332e-05 -1.35326e-06 0 -1.13064e-05 -6.59582e-07 0 -9.09648e-06 -4.45357e-07 0 -6.19055e-06 -1.0076e-06 0
          1.06971e-06 -2.62253e-06 0 6.84899e-06 -2.67109e-07 0 7.4475e-06 -3.21437e-08 0 7.5602e-06 -2.42076e-08 0
          7.92008e-06 -1.55733e-07 0 1.10789e-05 -1.4236e-06 0 -1.63369e-05 -4.8879e-06 0 -1.0852e-05 -1.85869e-06 0
          -9.27049e-06 -1.14195e-06 0 -7.27914e-06 -2.75964e-06 0 1.43996e-06 -8.86017e-06 0 8.14418e-06 -2.71214e-07 0
          7.56895e-06 -3.96739e-08 0 7.4984e-06 -3.77572e-08 0 7.18002e-06 -1.62934e-07 0 1.16819e-05 -3.97802e-06 0
          -1.69876e-05 -5.71621e-06 0 -9.05112e-06 -2.28854e-06 0 -9.54696e-06 -1.25494e-06 0 -1.00497e-05 -3.39098e-06 0
          -5.1385e-06 -1.5044e-05 0 -1.03845e-09 -8.2418e-09 0 -1.61762e-09 -8.07402e-09 0 8.29119e-10 -1.36196e-08 0
          5.93129e-09 -7.27351e-09 0 7.42371e-06 -2.0014e-06 0 -1.04944e-05 -8.48269e-07 0 -6.60285e-06 -1.09999e-06 0
          -9.82127e-06 -5.75307e-07 0 -1.41608e-05 -1.64947e-06 0 -1.60678e-05 -1.79649e-05 0 -7.83019e-06 -3.02969e-07 0
          -5.71536e-07 6.31961e-06 0 7.8168e-08 1.01519e-06 0 4.29304e-07 3.36394e-06 0 4.45237e-06 1.67602e-06 0
          -4.67298e-06 2.78875e-06 0 -8.35944e-09 -1.05878e-08 0 -9.69978e-10 -1.7006e-08 0 3.53894e-09 -1.29921e-08 0
          -3.08732e-06 -1.28801e-05 0 -6.02385e-06 -6.75053e-07 0 1.04848e-06 9.55556e-06 0 5.88331e-06 2.81477e-06 0
          9.10394e-06 8.39958e-06 0 1.5547e-05 2.2957e-06 0 -2.77295e-06 2.88518e-06 0 -2.12382e-07 1.15047e-06 0
          -7.11053e-08 7.25903e-07 0 3.57371e-06 -1.04559e-08 0 3.12919e-06 -3.74557e-06 0 -1.50791e-06 -3.99819e-07 0
          4.67761e-06 3.2201e-06 0 9.14724e-06 4.76285e-06 0 1.05346e-05 9.00841e-06 0 1.45826e-05 2.29421e-06 0
          -7.83634e-06 2.17671e-06 0 -2.81032e-06 3.6403e-06 0 -6.76264e-07 2.87173e-06 0 -1.42643e-08 -8.00972e-09 0
          -5.98331e-10 -2.40592e-08 0 2.05694e-09 -2.36177e-08 0 1.37671e-08 -1.53116e-08 0 2.17003e-06 4.89831e-06 0
          7.68814e-06 6.62711e-06 0 1.18556e-05 1.87582e-06 0 -1.036e-05 9.76786e-07 0 -6.16573e-06 3.6358e-06 0
          -1.56606e-06 3.57004e-06 0 -8.46885e-08 2.91249e-07 0 -3.72539e-08 2.62555e-07 0 3.70745e-08 2.62614e-07 0
          8.51291e-08 2.88548e-07 0 1.4244e-06 3.25463e-06 0 5.96967e-06 3.83972e-06 0 1.01811e-05 1.02233e-06 0
          -1.07321e-05 3.08922e-07 0 -8.33687e-06 1.32191e-06 0 -3.29454e-06 1.44473e-06 0 -3.72241e-07 1.84164e-06 0
          -1.97619e-07 1.16334e-06 0 2.05717e-07 1.15552e-06 0 3.51462e-07 1.81282e-06 0 3.0167e-06 1.25229e-06 0
          7.86114e-06 1.38695e-06 0 1.03275e-05 3.64021e-07 0 -1.0717e-05 7.91249e-08 0 -1.02067e-05 1.75902e-07 0
          -9.74466e-06 2.0484e-08 0 -6.85207e-06 1.55038e-06 0 -1.99138e-06 9.00769e-07 0 2.13081e-06 8.92888e-07 0
          6.7986e-06 1.52425e-06 0 9.35546e-06 -6.73627e-08 0 9.69216e-06 2.01496e-07 0 1.02876e-05 9.60053e-08 0
        </DataArray>
        <DataArray type="Float32" Name="non-wetting-velocity" NumberOfComponents="3" format="ascii">
          0 -2.17995e-17 0 0 0 0 0 0 0 0 0 0
          0 0 0 0 0 0 0 0 0 0 -1.19557e-36 0
          0 -2.88912e-38 0 2.36619e-26 -9.61062e-11 0 -9.96129e-19 -2.15496e-08 0 0 -2.0456e-28 0
          0 0 0 0 0 0 0 -4.5737e-29 0 0 -8.28977e-29 0
          0 -2.20673e-18 0 1.98077e-38 -6.35878e-16 0 2.02453e-38 -6.94607e-18 0 3.52098e-12 -1.26884e-06 0
          -1.25275e-09 -5.47469e-06 0 -3.86923e-30 -7.63226e-17 0 0 -7.94178e-35 0 -1.01348e-30 -2.87244e-34 0
          -2.13015e-29 -2.90735e-12 0 -1.08084e-20 -9.73794e-12 0 -7.07491e-18 -6.6543e-09 0 5.10223e-18 -1.50351e-08 0
          1.40475e-17 -8.12261e-09 0 5.33742e-08 -6.48052e-06 0 -3.23571e-07 -1.42965e-05 0 -5.54533e-19 -1.50837e-16 0
          -8.42482e-36 -2.02228e-15 0 -1.08389e-13 -1.80114e-17 0 -1.69198e-08 -3.1425e-07 0 -6.33228e-06 -9.73794e-12 0
          -2.56521e-05 -3.93287e-07 0 1.21171e-05 -6.29592e-05 0 5.30824e-05 -7.37052e-05 0 2.1946e-05 -5.21312e-06 0
          -6.87284e-07 -2.20769e-05 0 -6.02367e-17 -1.26507e-08 0 -1.83934e-17 -1.84819e-08 0 2.51693e-17 -8.76825e-09 0
          4.44901e-18 -4.5196e-06 0 -4.91243e-10 -3.75285e-16 0 -4.36486e-11 -3.95028e-07 0 3.44983e-06 -9.82448e-05 0
          4.69056e-06 -7.66576e-05 0 1.24121e-06 -1.365e-09 0 -3.36028e-05 -1.32939e-05 0 -6.89536e-05 -5.26278e-05 0
          -2.05854e-05 -4.31589e-05 0 2.7252e-05 -8.76826e-09 0 1.1876e-05 -4.20535e-06 0 2.15267e-09 -8.35015e-14 0
          1.46885e-10 -8.39527e-09 0 2.69546e-06 -6.41253e-05 0 2.84307e-06 -4.38598e-06 0 1.47812e-07 -1.65986e-11 0
          -2.21592e-06 -6.0432e-08 0 -6.89265e-06 -5.47255e-05 0 -4.67776e-06 -9.46513e-05 0 -4.72597e-15 -1.44737e-08 0
          -4.59881e-16 -2.43709e-08 0 1.54055e-15 -2.45559e-08 0 7.60279e-15 -2.01604e-08 0 2.11633e-06 -5.96427e-05 0
          2.17777e-06 -2.12111e-06 0 6.14437e-08 -2.79306e-12 0 -3.15197e-08 -3.04535e-12 0 -1.5501e-06 -2.11155e-06 0
          -5.7659e-05 -5.9818e-05 0 -9.49176e-05 -1.50164e-05 0 -3.8713e-05 -2.13284e-05 0 3.85416e-05 -2.10908e-05 0
          9.51037e-05 -1.45435e-05 0 5.81592e-05 -3.98055e-05 0 1.55454e-06 -6.96929e-07 0 2.17408e-08 -3.41029e-13 0
          -2.53143e-11 -1.37805e-22 0 -1.55402e-07 -1.23397e-09 0 -6.98461e-06 -8.32441e-06 0 -3.12145e-05 -5.16277e-05 0
          -2.42224e-05 -9.65135e-05 0 2.53685e-05 -9.62991e-05 0 3.23048e-05 -5.72355e-05 0 7.2555e-06 -8.99957e-06 0
          1.56272e-07 -1.26386e-09 0 2.53391e-11 -7.16373e-23 0 -1.23868e-19 0 0 -3.15754e-10 -5.40029e-18 0
          -8.70776e-08 -1.73508e-08 0 -2.77621e-06 -3.66258e-05 0 -2.64033e-06 -0.000109456 0 2.80273e-06 -0.000109479 0
          2.84632e-06 -4.27122e-05 0 9.313e-08 -1.214e-08 0 4.1916e-10 -1.04453e-17 0 2.2904e-19 0 0
        </DataArray>
        <DataArray type="Float32" Name="wetting saturation" NumberOfComponents="1" format="ascii">
          1 1 1 1 1 1 1 1 1 1 0.999961 1
          1 1 1 1 1 1 1 0.994345 0.966914 1 1 1
          1 1 0.999812 0.998791 0.999724 0.8803 0.809661 0.999948 1 1 0.998276 0.916234
          0.429074 0.240112 0.286891 0.776158 0.736548 0.999401 0.998242 0.999626 0.924477 0.999991 0.96348 0.564282
          0.731161 0.988595 0.708339 0.213734 0.207 0.514273 0.823073 0.999915 0.97659 0.626979 0.844348 0.997206
          0.961793 0.616414 0.460044 0.996759 0.99406 0.99407 0.996281 0.616463 0.869658 0.998439 0.998363 0.887154
          0.620533 0.155527 0.157426 0.157424 0.155745 0.614646 0.898352 0.999193 0.999999 0.988323 0.807676 0.354603
          0.261839 0.260993 0.34173 0.803864 0.988152 1 1 0.99998 0.973038 0.850912 0.593281 0.59301
          0.847264 0.969925 0.999975 1
        </DataArray>
        <DataArray type="Float32" Name="nonwetting saturation" NumberOfComponents="1" format="ascii">
          5.89528e-14 -1.29674e-13 -1.45883e-13 -1.40554e-13 -1.35669e-13 -1.09024e-13 7.54952e-15 1.35447e-14 4.57412e-14 1.36829e-07 3.91308e-05 -5.86198e-14
          -2.25375e-13 -1.59428e-13 -1.27232e-13 -1.7808e-13 5.39568e-14 1.24014e-11 5.0544e-12 0.0056549 0.0330862 8.81713e-09 -6.19504e-14 1.67644e-14
          5.02955e-09 6.62699e-08 0.00018825 0.00120948 0.000275658 0.1197 0.190339 5.22915e-05 5.00023e-11 9.34872e-11 0.00172371 0.0837657
          0.570926 0.759888 0.713109 0.223842 0.263452 0.000599436 0.00175823 0.000373725 0.0755229 8.65797e-06 0.0365205 0.435718
          0.268839 0.0114046 0.291661 0.786266 0.793 0.485727 0.176927 8.45351e-05 0.0234096 0.373021 0.155652 0.00279436
          0.0382074 0.383586 0.539955 0.00324149 0.00594014 0.00592975 0.00371926 0.383537 0.130342 0.00156086 0.00163723 0.112846
          0.379467 0.844473 0.842574 0.842577 0.844255 0.385354 0.101648 0.000806749 5.9713e-07 0.011677 0.192324 0.645397
          0.738161 0.739007 0.65827 0.196136 0.0118481 4.81216e-07 2.69784e-14 2.00717e-05 0.0269625 0.149088 0.406719 0.40699
          0.152736 0.0300749 2.50111e-05 4.11893e-14
        </DataArray>
      </CellData>
      <Points>
        <DataArray type="Float32" Name="Coordinates" NumberOfComponents="3" format="ascii">
          0 0 0 2 0 0 0 1 0 2 1 0
          4 0 0 4 1 0 6 0 0 6 1 0
          8 0 0 8 1 0 10 0 0 10 1 0
          12 0 0 12 1 0 14 0 0 14 1 0
          16 0 0 16 1 0 18 0 0 18 1 0
          20 0 0 20 1 0 0 2 0 2 2 0
          4 2 0 6 2 0 8 2 0 10 2 0
          12 2 0 14 2 0 16 2 0 18 2 0
          20 2 0 0 3 0 2 3 0 4 3 0
          6 3 0 8 3 0 10 3 0 12 3 0
          14 3 0 16 3 0 18 3 0 20 3 0
          0 4 0 2 4 0 4 4 0 6 4 0
          8 4 0 10 4 0 12 4 0 14 4 0
          16 4 0 18 4 0 20 4 0 0 5 0
          2 5 0 4 5 0 6 5 0 8 5 0
          10 5 0 12 5 0 14 5 0 16 5 0
          18 5 0 20 5 0 0 6 0 2 6 0
          4 6 0 6 6 0 8 6 0 10 6 0
          12 6 0 14 6 0 16 6 0 18 6 0
          20 6 0 0 7 0 2 7 0 4 7 0
          6 7 0 8 7 0 10 7 0 12 7 0
          14 7 0 16 7 0 18 7 0 20 7 0
          0 8 0 2 8 0 4 8 0 6 8 0
          8 8 0 10 8 0 12 8 0 14 8 0
          16 8 0 18 8 0 20 8 0 0 9 0
          2 9 0 4 9 0 6 9 0 8 9 0
          10 9 0 12 9 0 14 9 0 16 9 0
          18 9 0 20 9 0 0 10 0 2 10 0
          4 10 0 6 10 0 8 10 0 10 10 0
          12 10 0 14 10 0 16 10 0 18 10 0
          20 10 0
        </DataArray>
      </Points>
      <Cells>
        <DataArray type="Int32" Name="connectivity" NumberOfComponents="1" format="ascii">
          0 1 3 2 1 4 5 3 4 6 7 5
          6 8 9 7 8 10 11 9 10 12 13 11
          12 14 15 13 14 16 17 15 16 18 19 17
          18 20 21 19 2 3 23 22 3 5 24 23
          5 7 25 24 7 9 26 25 9 11 27 26
          11 13 28 27 13 15 29 28 15 17 30 29
          17 19 31 30 19 21 32 31 22 23 34 33
          23 24 35 34 24 25 36 35 25 26 37 36
          26 27 38 37 27 28 39 38 28 29 40 39
          29 30 41 40 30 31 42 41 31 32 43 42
          33 34 45 44 34 35 46 45 35 36 47 46
          36 37 48 47 37 38 49 48 38 39 50 49
          39 40 51 50 40 41 52 51 41 42 53 52
          42 43 54 53 44 45 56 55 45 46 57 56
          46 47 58 57 47 48 59 58 48 49 60 59
          49 50 61 60 50 51 62 61 51 52 63 62
          52 53 64 63 53 54 65 64 55 56 67 66
          56 57 68 67 57 58 69 68 58 59 70 69
          59 60 71 70 60 61 72 71 61 62 73 72
          62 63 74 73 63 64 75 74 64 65 76 75
          66 67 78 77 67 68 79 78 68 69 80 79
          69 70 81 80 70 71 82 81 71 72 83 82
          72 73 84 83 73 74 85 84 74 75 86 85
          75 76 87 86 77 78 89 88 78 79 90 89
          79 80 91 90 80 81 92 91 81 82 93 92
          82 83 94 93 83 84 95 94 84 85 96 95
          85 86 97 96 86 87 98 97 88 89 100 99
          89 90 101 100 90 91 102 101 91 92 103 102
          92 93 104 103 93 94 105 104 94 95 106 105
          95 96 107 106 96 97 108 107 97 98 109 108
          99 100 111 110 100 101 112 111 101 102 113 112
          102 103 114 113 103 104 115 114 104 105 116 115
          105 106 117 116 106 107 118 117 107 108 119 118
          108 109 120 119
        </DataArray>
        <DataArray type="Int32" Name="offsets" NumberOfComponents="1" format="ascii">
          4 8 12 16 20 24 28 32 36 40 44 48
          52 56 60 64 68 72 76 80 84 88 92 96
          100 104 108 112 116 120 124 128 132 136 140 144
          148 152 156 160 164 168 172 176 180 184 188 192
          196 200 204 208 212 216 220 224 228 232 236 240
          244 248 252 256 260 264 268 272 276 280 284 288
          292 296 300 304 308 312 316 320 324 328 332 336
          340 344 348 352 356 360 364 368 372 376 380 384
          388 392 396 400
        </DataArray>
        <DataArray type="UInt8" Name="types" NumberOfComponents="1" format="ascii">
          9 9 9 9 9 9 9 9 9 9 9 9
          9 9 9 9 9 9 9 9 9 9 9 9
          9 9 9 9 9 9 9 9 9 9 9 9
          9 9 9 9 9 9 9 9 9 9 9 9
          9 9 9 9 9 9 9 9 9 9 9 9
          9 9 9 9 9 9 9 9 9 9 9 9
          9 9 9 9 9 9 9 9 9 9 9 9
          9 9 9 9 9 9 9 9 9 9 9 9
          9 9 9 9
        </DataArray>
      </Cells>
    </Piece>
  </UnstructuredGrid>
</VTKFile>
