<?xml version="1.0"?>
<VTKFile type="UnstructuredGrid" version="0.1" byte_order="LittleEndian">
  <UnstructuredGrid>
    <Piece NumberOfCells="8582" NumberOfPoints="1936">
      <PointData Scalars="wallDistance">
        <DataArray type="Float32" Name="wallDistance" NumberOfComponents="1" format="ascii">
          0.252401 0.134843 0.126201 0.127135 0 0 0 0 0 0 0.289112 0.146412
          0.278465 0.139233 0 0 0 0.147333 0 0.146411 0 0 0 0.151154
          0.149932 0.291705 0 0.156225 0 0.149914 0 0 0 0 0 0
          0 0 0 0 0.0340389 0 0 0 0 0 0 0.0309116
          0 0 0 0.0979402 0.164223 0.0969905 0.08681 0.153545 0.149932 0.149932 0 0
          0 0 0 0.145405 0 0 0 0 0.154697 0.145852 0 0.249553
          0.126201 0.126201 0 0 0 0.12639 0 0.192659 0.127376 0.129564 0.0647822 0
          0 0 0 0 0.12913 0 0 0 0 0 0.134789 0
          0 0.132721 0 0 0 0 0 0.195265 0.141043 0.133037 0.0665184 0
          0 0 0 0 0 0.133987 0.133578 0.133578 0 0 0 0
          0 0 0 0.141385 0 0.137277 0 0 0 0.15572 0.149594 0
          0.178157 0.184837 0.317262 0.267235 0.351563 0.339827 0.184837 0.253353 0.177821 0 0 0
          0.266444 0.175782 0.17608 0.26412 0 0 0.178162 0 0 0.176588 0.225722 0.176313
          0.240168 0.26447 0.135483 0 0 0.279021 0 0 0.14194 0 0.15419 0.281664
          0.140832 0 0 0 0.15419 0 0 0 0.140832 0 0 0.140832
          0 0.186558 0 0 0.454805 0.354035 0.23376 0.228725 0.236023 0 0 0
          0.408716 0.309937 0 0.156459 0 0 0.0866391 0 0 0 0.312917 0.173278
          0.157736 0.0866391 0.157875 0 0 0 0 0.403408 0.324415 0.230849 0 0.227403
          0.40512 0.141685 0 0 0 0 0 0.206069 0 0.207358 0.402641 0.201321
          0.207358 0.311037 0 0 0 0.139233 0.139233 0 0 0.147701 0.140765 0
          0 0 0.201321 0.346735 0 0.102087 0 0 0.204174 0.102087 0 0.201321
          0 0.355421 0.148836 0 0.148645 0.297289 0.153205 0.148645 0.31547 0.368695 0.201308 0
          0.262615 0.217625 0.224442 0 0.42865 0.314979 0.350241 0.279398 0.422258 0.495787 0.516907 0.426967
          0.390098 0.486386 0.349683 0.399404 0.408768 0.337497 0.450895 0.294698 0.373057 0.39949 0.281856 0.375134
          0.483053 0.332535 0.363651 0.33274 0.702696 0.645012 0.572275 0.505607 0.571102 0.436694 0.505295 0.481261
          0.662489 0 0 0 0 0.0290244 0 0 0 0.0829317 0 0.0821114
          0 0.0755378 0.0882402 0 0 0.0867933 0 0.0821114 0 0 0 0
          0.0817208 0.0883478 0 0 0.0821114 0 0 0 0.0833328 0 0 0
          0.0828985 0 0 0 0.0857944 0 0 0.0857944 0 0.0864193 0 0
          0 0.0894815 0 0.172107 0 0 0.175782 0 0 0.175782 0 0
          0 0 0 0.176129 0.0901169 0.180234 0.181412 0 0 0 0 0.187178
          0 0 0.1914 0.168623 0.26828 0.343146 0.189819 0.297864 0.258426 0.421442 0.0874431 0.162732
          0 0.162705 0.162711 0.148932 0.379844 0.17115 0 0 0.148932 0 0 0
          0 0 0.177437 0 0 0.227403 0 0 0 0 0.177886 0.305512
          0.156884 0.397341 0 0.14487 0 0 0.0818662 0.217304 0.163732 0.15605 0.281752 0.393586
          0.196793 0.342803 0 0.0739098 0 0 0.14782 0 0.0724348 0 0 0.140876
          0.0739098 0 0 0.14487 0 0.140876 0 0 0 0.140876 0 0
          0 0 0 0.200679 0.163072 0.364658 0.203658 0.397866 0.422073 0.208465 0.585541 0.48685
          0.358897 0.458292 0.362102 0.400469 0.334383 0.462016 0.344702 0.636914 0.560306 0.604597 0.630624 0.552744
          0.568764 0.641378 0.602541 0.502258 0.46093 0.452396 0.301692 0.361554 0.352047 0 0.0743371 0.148674
          0 0 0 0 0 0 0.148932 0 0.198933 0.181051 0.202112 0.145129
          0 0.0725647 0 0 0 0.140876 0 0 0 0 0 0.198933
          0.166104 0 0.150846 0.314693 0 0 0.166104 0 0.155767 0 0 0
          0.156959 0 0 0 0.177538 0 0 0 0 0 0 0
          0.0945605 0 0 0 0.145852 0.145852 0 0 0.149441 0 0 0.145944
          0 0.310957 0.318804 0.163909 0.360493 0.320899 0 0.143764 0 0 0 0.148081
          0 0 0.148081 0 0.16045 0.416201 0.258454 0.422979 0.164965 0.0867811 0 0.173562
          0.0867811 0 0 0.16045 0 0 0.16045 0 0 0 0 0.160557
          0 0.160557 0 0 0 0.15144 0 0 0.196173 0.195049 0 0.137229
          0.269781 0.136258 0 0.13489 0 0.196173 0 0.195049 0.345656 0 0 0
          0.13489 0 0.195049 0 0 0.19571 0 0 0.206483 0.148645 0 0
          0.195049 0.146211 0 0 0.13489 0.18749 0.37498 0.399953 0.178154 0.34419 0.319841 0.172095
          0.261357 0.386256 0.485337 0.42081 0.51621 0.490164 0.476422 0.310035 0.245042 0.156876 0 0.164302
          0.704554 0.666704 0.70158 0.646229 0.557501 0.675189 0.61381 0.541295 0.525085 0.488489 0.457751 0.519965
          0 0 0 0 0 0.153374 0 0 0 0 0.138635 0
          0.152007 0 0.176107 0.172095 0 0 0 0.192466 0 0 0 0.189465
          0 0.188128 0 0.254263 0 0 0.242668 0 0.218409 0 0.204122 0
          0.208765 0.33468 0.42557 0.180846 0 0 0.188128 0 0 0 0.182705 0
          0 0 0 0 0.0868972 0 0 0.148081 0.0842163 0.0824949 0 0
          0.0868721 0 0 0 0 0.164606 0.258454 0.130374 0.250514 0.395031 0.131333 0
          0 0 0.174184 0.238838 0.150122 0.352996 0.138542 0.310995 0 0 0 0.125257
          0 0 0.126162 0 0 0.125257 0 0 0.149956 0 0.44206 0.436352
          0.418503 0.317549 0.418881 0.430578 0.370961 0.304521 0.325284 0.181051 0.147483 0.37265 0.408431 0
          0 0 0.125257 0.615489 0.593669 0.549555 0.53402 0.392776 0.541635 0.487934 0.394106 0.55606
          0.465445 0.272943 0.281068 0.392884 0.324707 0.282326 0.399977 0.330384 0.129956 0 0.242668 0.153429
          0.379347 0.353177 0.452239 0.363675 0.13316 0 0.181051 0 0.1811 0 0.1811 0
          0 0 0 0 0.132443 0.183145 0 0.153436 0 0.294582 0.349691 0.196388
          0.288625 0 0.144377 0.14323 0.141163 0.206756 0.0721887 0.211744 0.072027 0.144054 0.140534 0
          0 0.141163 0 0 0.211744 0.141595 0 0 0 0 0.427131 0.16734
          0.323718 0 0 0.167989 0.141163 0 0 0.178327 0 0 0 0.16734
          0 0 0 0 0 0.141163 0 0 0.141163 0 0 0
          0.145381 0.197994 0 0 0 0.188331 0.173379 0.321186 0 0.166311 0 0.158167
          0.298285 0.159411 0.375845 0 0.157393 0 0 0.150152 0.156459 0 0 0
          0 0 0 0.085614 0 0.158527 0.171228 0 0 0 0.16259 0
          0.335797 0 0 0 0.173979 0 0 0.177491 0 0.299693 0.373396 0.163018
          0.170155 0.179907 0.196766 0.276507 0.551673 0.4625 0.429353 0.440811 0.362097 0 0 0.185053
          0.185053 0.370105 0 0 0.185053 0.34069 0.401355 0.348701 0 0.150526 0 0.31815
          0.317519 0.158426 0.157463 0.307558 0.346846 0.355466 0 0 0.184951 0 0 0
          0 0 0.149142 0.154156 0 0.149142 0 0 0 0 0 0.149142
          0 0 0 0.153779 0.153704 0 0 0.153779 0 0.0787454 0 0
          0.157491 0.312484 0.152649 0.476171 0.654933 0.516096 0.404766 0.584496 0.516105 0.693347 0.683998 0.549053
          0.617319 0.517175 0.415007 0.384574 0.5651 0.360919 0.427136 0.492948 0.485494 0.621113 0.441574 0.499107
          0.581329 0.365833 0.196382 0.596156 0.378389 0.422434 0.480565 0 0.153517 0 0 0
          0 0.152381 0.155895 0 0 0 0.172179 0 0.166347 0 0 0
          0.165811 0 0 0 0 0 0 0.157097 0.173302 0 0.151803 0
          0 0.149847 0 0 0.187394 0 0.344677 0.301098 0.357817 0.175027 0 0.171698
          0 0 0 0 0.154895 0 0 0 0 0.170386 0 0
          0 0 0.158397 0 0.163883 0 0.167039 0 0.151486 0 0 0
          0.159748 0 0 0.159748 0 0.157033 0 0 0 0.150549 0 0
          0 0.149601 0 0 0 0.157634 0 0.168838 0 0.0808824 0 0
          0.163639 0.193819 0 0.167333 0.355763 0.180308 0.463698 0 0.192287 0 0.166856 0
          0 0.192287 0 0.149075 0.273019 0.0867268 0.238832 0.17784 0.301204 0.219996 0.273828 0.147963
          0.196861 0.184136 0.312123 0.239595 0 0.0739815 0.0734848 0 0.118435 0.0745377 0.0367424 0.150797
          0 0.119797 0 0 0 0.157918 0 0 0 0.158243 0 0
          0.15162 0 0 0 0 0.150549 0 0 0.0798495 0.117865 0 0.1117
          0 0.111024 0 0 0.109998 0 0 0.0743867 0 0 0 0.0745377
          0 0 0 0.274696 0.176841 0.370928 0 0.178597 0 0 0.163708 0
          0.155955 0.199931 0 0 0.177886 0 0.152756 0 0 0 0 0.159832
          0 0 0 0.152756 0 0 0.483433 0.449305 0.152756 0 0.300037 0
          0 0.174652 0 0.173516 0 0 0.12991 0.25982 0.152605 0 0 0.300001
          0.388842 0.411212 0.309427 0.139427 0 0 0.154919 0.143539 0 0 0.129927 0
          0 0 0.12991 0.471006 0.542745 0.363151 0.338403 0.510271 0.405233 0.351361 0.535659 0.60609
          0.504901 0.441457 0.588576 0.401724 0.492406 0.346027 0.294592 0.354589 0.336645 0.409549 0.310978 0.425153
          0.480272 0.525711 0.390429 0.439842 0.346174 0.533615 0.474903 0.386089 0.456855 0.328445 0.374274 0.334315
          0 0.17914 0.185139 0.144681 0.287784 0.241996 0.557685 0.485388 0.374073 0.372419 0.359604 0.325403
          0.208121 0 0.173177 0.150799 0 0.181576 0.244489 0.0907878 0.150846 0.181576 0.181576 0.0907878
          0 0 0 0.152333 0.147296 0 0 0.150846 0 0.150846 0 0
          0.151261 0 0 0 0.0731435 0.146287 0.265725 0.251544 0 0.147296 0 0
          0.0756307 0 0 0 0.147296 0 0 0 0 0 0 0.154638
          0 0 0.149847 0 0 0 0.155434 0 0.152699 0 0 0
          0.152101 0.152699 0 0.359742 0.161225 0 0.12991 0 0 0 0 0
          0 0.171651 0 0.0858256 0.234266 0.138753 0.179679 0 0 0.149847 0 0
          0 0 0 0.160335 0 0.160597 0 0 0 0.343167 0 0.16097
          0.173087 0.306064 0.180026 0 0.310078 0.330676 0.153391 0.258765 0.190383 0.29038 0.124434 0.157046
          0.0769385 0.0805284 0.079061 0 0.118032 0.177728 0.132161 0.108784 0 0.17026 0.211217 0
          0 0 0.177096 0.1183 0 0 0 0.173087 0 0 0 0
          0.109998 0.154495 0 0 0 0.150549 0 0 0 0 0 0
          0 0 0 0 0 0.111224 0 0.116961 0 0.109998 0 0
          0.0748618 0 0.109998 0 0.0663983 0 0 0 0.0766957 0 0 0.143291
          0 0.173087 0 0 0.147614 0 0.17914 0 0 0 0 0.149419
          0 0 0.350564 0.18749 0.349243 0.347139 0 0 0 0.18749 0 0
          0.199343 0 0.172095 0.39365 0 0.153185 0 0.229777 0 0.189056 0 0.268097
          0.17777 0.352585 0.395411 0.32876 0.371275 0 0.176293 0.148304 0.280421 0.340826 0.342086 0
          0 0.140211 0 0.140211 0.150388 0.180563 0 0.140211 0 0.549068 0.448103 0.601205
          0.500241 0.345691 0.589138 0.647217 0.504876 0.482861 0.482524 0.528821 0.545139 0.463312 0.524377 0.616414
          0.396882 0.583913 0.495462 0.533819 0.33585 0.342879 0.304135 0.350324 0.493167 0.438361 0.37153 0.387309
          0.511902 0.361509 0.388451 0.505491 0.371567 0.338286 0.411663 0.556447 0 0 0.172095 0
          0 0.173839 0.160307 0 0 0 0 0 0.151716 0 0 0.139685
          0 0 0.163916 0.179519 0.160127 0.361156 0.300204 0 0.154813 0.183408 0.266113 0
          0 0.204654 0.198489 0.467788 0.360612 0.159591 0.288264 0 0.0917039 0.0928906 0 0
          0 0.166091 0 0 0 0.150102 0 0.0840516 0 0.347909 0.173467 0.385039
          0 0 0.153407 0 0 0 0 0.164192 0 0 0 0.150652
          0 0 0.150102 0 0 0 0 0.150102 0 0.17777 0 0
          0.176293 0.264439 0 0.176293 0 0 0.250544 0.159472 0 0 0.150748 0
          0.167005 0 0.177129 0 0.252474 0.18546 0.306299 0 0.24628 0.0754475 0.150895 0.263929
          0.171309 0.154626 0.161005 0.26966 0.180968 0 0 0.161021 0.17731 0.193654 0.184742 0
          0.0912463 0.199038 0 0.195084 0.261157 0.0975419 0.282323 0.356648 0.347301 0 0 0
          0.152068 0 0 0 0 0.153011 0 0 0 0.172467 0 0.176625
          0.164227 0 0 0 0.169143 0 0 0 0 0.160706 0 0.190472
          0.186458 0 0.177659 0 0 0 0.0999552 0.266488 0.19991 0 0.190829 0
          0.160656 0 0 0.189126 0.168205 0.279528 0 0 0.0954145 0 0.0975419 0
          0 0.176303 0 0 0 0.0888295 0 0 0 0.169143 0 0.0888295
          0 0.0895824 0 0 0.179165 0 0 0.550212 0.547243 0.450442 0.449951 0.455335
          0.353255 0.336093 0.381357 0.520902 0.489431 0.509284 0.410954 0.36755 0.361829 0.296533 0.383403 0.338992
          0 0.150596 0.164298 0.181674 0.221257 0.374625 0.502833 0.295927 0.211217 0.148266 0.455624 0.276108
          0.336035 0.309305 0.435634 0.353193 0.3468 0.478038 0.340331 0.357864 0.358691 0.294582 0.196388 0.251464
          0 0.153238 0.176627 0.148525 0 0 0.196388 0 0 0.150213 0.163287 0
          0.158278 0 0 0.203552 0.176627 0 0.0742626 0.146385 0 0 0 0.148266
          0 0.141947 0.146947 0 0 0 0.16734 0 0 0.168144 0 0.179188
          0 0.179188 0 0 0 0 0.180863 0 0.166378 0.173804 0 0.272045
          0.253449 0 0 0.338205 0.153196 0.249193 0.380138 0.15212 0.138054 0 0.0869022 0
          0 0.162735 0 0.1543 0.144058 0.0771502 0.255145 0 0 0.163254 0.163115 0
          0 0 0 0 0.138972 0 0.138972 0 0.144521 0 0 0
          0.182747 0.141947 0 0.141947 0 0.138054 0 0 0 0.21688 0.294136 0.166537
          0.0793044 0.200682 0.153031 0 0.168271 0.155798 0.262049 0.0778988 0.16563 0 0 0
          0.166169 0.173988 0.152002 0.148271 0 0.162758 0 0 0.148266 0 0 0.17936
          0 0 0.0766957 0 0.152068 0 0 0 0.0661238 0.152068 0 0
          0 0 0 0.153031 0 0 0 0 0 0 0 0
          0 0 0 0.154887 0 0 0.166155 0.151535 0 0 0.179177 0
          0.138054 0 0 0 0 0 0 0 0.0945628 0 0 0
          0 0 0 0.169143 0 0 0 0.16896 0 0 0 0
          0 0.138054 0 0
        </DataArray>
        <DataArray type="Float32" Name="wallElementIndex" NumberOfComponents="1" format="ascii">
          129 5 129 182 190 135 182 4 400 6 6 589
          613 610 1813 20 1888 1813 399 20 23 23 23 1847
          111 1864 415 28 91 92 30 92 36 1833 98 1842
          38 40 116 41 46 44 46 54 50 50 58 59
          958 1017 57 2502 1047 1022 968 79 115 113 134 115
          87 90 80 87 208 90 88 111 1839 1866 404 2517
          129 130 199 147 199 134 135 181 189 147 147 737
          147 143 143 147 198 197 156 169 787 788 237 167
          170 159 170 168 183 189 197 130 207 249 251 223
          248 259 292 222 296 237 238 238 225 297 223 237
          237 325 272 236 257 236 257 281 289 257 207 286
          335 787 225 336 1129 325 788 166 327 335 352 326
          1113 1129 1112 1113 335 788 344 477 1140 1140 237 1143
          271 1142 400 400 403 404 459 451 464 449 444 471
          470 453 463 452 453 513 513 634 471 464 463 471
          3321 477 797 709 1365 539 1346 1360 538 485 1345 483
          1333 477 3391 3406 497 3392 4461 499 543 515 3406 4461
          3391 4461 519 515 513 521 519 516 514 543 545 1363
          501 564 573 563 561 726 569 635 734 569 656 654
          573 573 607 578 613 607 613 581 675 578 596 610
          595 610 656 595 3502 622 3506 625 625 625 650 650
          638 640 3509 673 3543 3545 675 3547 583 673 143 709
          156 566 738 736 145 144 564 562 583 596 2573 1811
          2133 2024 2017 135 2536 208 281 634 738 569 476 477
          734 3547 2078 578 5101 3548 627 3545 2078 3548 675 2079
          1790 1856 957 972 960 957 2498 968 1020 1044 968 1050
          975 990 2502 987 990 2511 1066 1047 1050 1104 1007 1106
          1010 1005 1009 1016 1047 1013 1042 1259 1064 1062 1062 1072
          1069 1066 2529 1074 1073 1075 1075 1075 1085 2578 1089 1306
          1312 1094 1099 289 1112 1129 1129 1120 1127 1127 1128 1129
          1140 1149 1151 1150 1174 1174 281 1185 1185 1187 1188 1185
          1193 1300 1188 1005 1001 2587 1319 1660 1094 2970 1054 1320
          1307 1312 1323 1663 1301 1301 1300 1301 1660 1307 1319 1326
          1327 1328 1337 1331 1337 1366 1356 1363 1365 1366 4536 4723
          4603 4603 1375 1446 1378 1432 1398 1460 1398 1430 1730 1375
          1378 1459 1400 1417 1404 1476 1417 1415 1447 1417 1419 1726
          1417 1431 1432 1459 4603 1733 4598 1459 1459 1730 1460 1465
          1477 1479 1479 1477 1672 1469 1717 1751 1477 1636 1466 1667
          1672 2980 2981 1790 2980 1417 1739 5094 1753 651 7473 3069
          2980 1730 5089 5089 1755 3069 5089 1755 3069 1634 1634 1634
          1649 1653 1715 1672 1660 1665 1660 1672 1751 2980 1790 1739
          1711 1739 1737 1738 1733 1730 1740 1749 1792 1791 1754 1753
          1801 1787 5094 1754 1795 1796 1804 1802 3069 1802 1803 1815
          1815 1816 1821 1897 1821 1827 1830 1888 1842 1850 2487 1866
          2517 1894 1866 1879 1862 1864 1896 2536 1884 1882 1887 1897
          1896 1920 2009 1973 1821 1988 1917 1917 1970 1922 1933 2536
          2540 1933 2536 2541 1988 1933 2568 2009 2016 1958 1961 1963
          1963 1973 2309 1989 1971 2311 1987 1990 1988 1996 2008 1996
          2002 2002 2009 2013 2017 2017 2023 2025 2044 2133 2037 2041
          2303 2071 2073 2304 2046 2054 2054 2127 2127 2069 2073 2309
          2300 2084 2120 2077 2122 2078 3556 3547 2086 3545 2121 2122
          2132 2147 2145 2149 2303 5952 5957 2084 6292 6307 2344 6307
          1815 2040 3196 3165 2701 2073 2680 2071 3180 2312 2325 2325
          7471 3144 7480 3153 2079 5952 3273 2121 5957 2147 2347 6297
          2300 2312 2324 2350 2323 2350 2329 2342 2346 2347 2344 2358
          2342 2354 2374 6306 2373 2374 2375 2396 2389 2396 2390 2458
          2402 6404 2397 2317 2414 2415 3193 3179 2466 2465 3251 2477
          2389 7728 3249 3258 2446 2446 6403 2452 2457 6404 6403 6402
          2478 2491 2498 2510 2529 2516 2548 2536 2585 2563 2563 2586
          2587 2568 2575 2585 2596 2587 2573 2691 2846 3004 2676 2642
          2635 2640 2714 2973 2970 2713 2703 2703 2676 2680 2687 2841
          2697 2973 3009 2713 2698 2846 2703 2702 2967 2709 3002 3009
          3007 3002 2678 3007 3009 3009 2980 2981 3166 3187 3166 2841
          2845 3188 2845 2079 3007 3069 3143 7536 7536 3153 3061 3152
          3058 3008 3016 3187 3002 3299 3294 3141 3186 3195 3195 3278
          7537 3153 3281 3143 3002 2981 2981 2985 2987 2991 2991 3002
          3003 3012 3012 3141 3016 3058 3069 7475 3060 7536 7478 7536
          3058 3056 3139 3154 3300 3016 3139 3300 3282 3282 3016 3141
          3151 3298 3300 3154 3299 3196 3179 3186 3196 3193 3278 7728
          7927 3276 3291 7669 3307 3250 3251 3265 3254 3265 3268 7731
          3271 3272 3280 3282 3283 3311 3299 3313 3299 3509 3326 3506
          3324 3332 3360 3347 3347 3436 3372 3321 3371 3376 3372 3636
          4099 3871 3331 3360 3642 3365 3365 3642 3406 3376 3405 3396
          4459 3397 3382 3382 4522 3397 3382 3396 3401 3403 3401 3405
          3329 3436 3952 3440 3441 3452 3453 3453 3456 5374 3448 3933
          3885 5227 3893 3867 3864 3440 3860 5282 3876 3503 3510 3510
          3516 3516 3598 3594 3514 3509 625 3595 3551 3556 3556 3653
          3654 5976 3659 5992 3551 3659 3624 3637 3595 3600 3608 3609
          3605 4093 4093 3612 4097 4097 3615 3625 3631 3638 3860 4099
          3864 3652 3654 3664 3663 3663 3664 3664 4108 3668 4109 3670
          3672 4109 4120 3324 5014 3516 3332 4600 3406 5102 5110 3514
          3653 3654 3664 4234 4108 4117 4109 3637 3625 3330 4363 4139
          8108 4147 4167 7625 8108 8284 4438 3876 3863 3871 3952 3878
          3878 4129 3993 3891 3893 3886 3891 3951 3986 3899 3900 3900
          3928 3907 3908 3905 3909 3916 3913 5237 5237 3918 5256 3933
          3926 5374 3938 3937 4009 3958 5407 5663 4316 3997 4009 4311
          4014 3981 3985 3983 4037 3992 4001 4010 4014 4308 4011 4018
          4049 4023 4325 4030 4037 4031 4044 4037 5364 4040 4048 4055
          5388 4061 4062 5392 4064 5643 4325 4087 4328 5663 4099 4101
          4104 4101 4123 4117 4129 4124 4167 4139 4143 4149 6595 4147
          6596 4231 4171 4320 4416 4316 4325 4362 4236 4363 4320 4229
          4229 4234 4236 8108 4437 4420 4410 4450 8108 5741 5698 6698
          4438 8108 4438 8108 4367 6698 4439 6698 4438 8108 4439 8108
          4438 8108 4439 4307 4314 4338 4311 4316 4321 4355 4332 4342
          4353 4335 4344 5661 4353 5661 4347 4355 4402 4409 4402 4410
          4402 5698 4410 4410 5741 4417 4420 4450 4433 4435 4437 8108
          4449 4456 4513 4520 4521 4547 4493 4486 4488 4493 4566 4551
          4565 4493 4513 4527 4533 4520 4721 4522 4533 4532 4547 4566
          4545 4566 4562 4723 4723 4566 4727 4737 4723 4602 5015 4644
          4645 5238 4643 5273 4746 4669 5442 5448 4664 5287 5276 4731
          4751 5442 5323 4731 4731 5015 4724 5014 4728 4751 4758 5442
          4756 4758 5445 5015 1746 5057 5015 5057 1754 5011 5110 5190
          5190 5055 5055 5209 5149 5057 5209 5057 5110 5101 5190 5150
          5138 4758 5145 5836 5871 5891 5874 8108 5723 5138 4758 5845
          5137 5894 5147 5141 5145 5836 8108 5902 5908 5623 5890 5217
          8284 5897 5912 5218 5014 5053 5106 5053 5095 5058 5057 5055
          5058 5055 5053 5102 5208 5101 5097 5089 5089 5089 5107 5101
          5190 5147 5138 5147 5197 5199 5149 5894 7604 5206 7606 5190
          5188 5197 5209 5208 5209 5206 5890 5218 5225 5238 5237 5245
          5241 5245 5371 5248 5254 5273 5290 5276 5286 5287 5282 5286
          5378 5282 5287 5453 5320 5436 5448 5439 5320 5327 5330 5332
          5449 5426 5453 5430 5336 5454 5688 5366 5375 5375 5374 5384
          5392 5399 5408 5400 5406 5650 5433 5448 5453 5783 5876 5632
          5871 5769 5868 5683 5723 8108 8150 5818 8108 8153 8108 5723
          8107 8107 5818 5606 5814 5601 5818 8209 5620 5617 8284 8285
          5790 5790 5790 5709 5604 5871 5787 5871 5623 5918 5632 5637
          5745 5672 5660 5650 5677 5666 5639 5649 5683 5661 5663 5671
          5680 5701 5780 5706 5779 5768 5805 5769 5721 5740 5722 5722
          8155 5745 5741 5768 8153 5759 5763 5816 8153 5779 5816 5846
          5844 5874 5829 5829 5836 5846 5897 5866 5874 5901 7622 7625
          5908 5909 5952 5957 5983 5983 5952 5955 5957 5955 5959 6292
          5960 5963 6299 5960 5975 5991 5977 5992 5989 5983 5991 5983
          6602 6632 5983 6594 5983 6593 6632 6040 6071 6621 5986 6039
          6619 6071 6043 6074 6330 6621 6957 6071 6333 5983 5983 5983
          5983 6329 7988 7649 5986 6318 7680 7922 6602 5989 5983 5989
          4438 7630 6620 8339 6697 6880 8138 8150 8190 6957 6814 6920
          6645 6645 6923 8269 6964 8513 6963 8569 6295 6304 6307 6305
          6318 6326 6352 6323 6329 6350 6348 6343 6343 6967 6960 6963
          6351 6426 6540 6322 6549 6429 6588 6414 6543 6431 6305 7681
          6470 6464 7691 6579 7817 6567 6416 6420 6431 6418 6416 6418
          6427 6450 6487 6456 6489 6586 6470 6487 6485 6351 6553 7084
          6532 6540 6579 6546 6552 6558 6562 7045 6565 6566 6568 6578
          6586 6575 6590 6578 6586 6582 6584 6588 6602 6609 6630 6609
          6630 6631 6620 6632 6632 6631 6621 6650 6964 6648 6970 6655
          6645 6813 6679 6675 6698 6703 4438 6701 8108 6885 6889 6880
          4438 8114 6895 6814 6901 6898 6921 6908 6813 6920 7122 6815
          6920 6898 6916 7095 6964 7099 7139 6894 8239 6876 6880 6880
          8137 6889 6894 6902 6908 8171 6944 6922 6924 7178 8236 6953
          8236 6948 8243 6953 8514 6957 6964 6971 6979 6975 6975 7131
          7037 7127 7147 7128 7017 7037 7014 7151 7014 7084 7187 7082
          7074 7074 8427 8539 8437 8504 7074 7078 7185 7108 7095 7095
          7099 7139 7109 7122 7131 7149 7140 7141 7178 8513 7153 7151
          7162 7164 7164 8495 7166 7179 7187 7478 7482 7626 7478 7606
          7604 7606 7608 7540 3151 7655 7935 7922 7660 8306 7967 7649
          7942 7933 7972 7934 3298 8338 7630 7630 8284 8306 8330 8554
          7675 8330 8557 8336 8411 8554 8568 8532 8347 7536 7536 7478
          7482 7478 7608 7604 7473 7478 7538 7542 7538 7539 7645 7536
          7660 7549 7540 7658 7604 7610 7604 7630 7625 7626 7660 8306
          7655 7982 7973 7645 7922 7666 7728 7743 7671 7741 7735 7671
          7983 7680 7947 7684 7689 7691 7747 7695 7826 7816 7744 7743
          7826 7733 7750 7897 7888 7900 8454 7899 8555 7812 7816 7814
          7825 7847 7826 7892 7900 7897 7859 8431 7859 7859 7853 8461
          7853 7900 8384 7900 8384 7897 8392 8389 7932 7935 7921 7950
          7943 7989 7972 7987 8328 8556 7974 7982 7988 8111 8221 8300
          8167 8167 8192 8208 8207 8337 8213 8336 8214 8299 8298 8521
          8258 8520 8568 8574 8348 8567 8339 8347 8304 8260 8271 8526
          8143 8108 8150 8107 8135 8112 8137 8138 8157 8138 8169 8150
          8168 8190 8178 8194 8236 8201 8213 8220 8243 8254 8247 8345
          8338 8338 8329 8328 8327 8336 8479 8408 8508 8542 8508 8571
          8549 8389 8481 8409 8574 8430 8440 8444 8539 8457 8461 8458
          8471 8475 8513 8513 8488 8497 8496 8487 8495 8502 8515 8525
          8557 8554 8557 8577
        </DataArray>
      </PointData>
      <Points>
        <DataArray type="Float32" Name="Coordinates" NumberOfComponents="3" format="ascii">
          -0.166548 -0.234069 -0.431093 -0.334082 -0.166315 -0.492243 -0.256396 -0.241504 -0.541392 -0.310971 -0.27809 -0.459434
          -0.455394 -0.32211 -0.487776 -0.346244 -0.248938 -0.651691 -0.400819 -0.285524 -0.569734 -0.501615 -0.0985615 -0.553392
          -0.423929 -0.17375 -0.602542 -0.478504 -0.210336 -0.520584 -0.239552 -0.143359 -0.36425 -0.383975 -0.18738 -0.392592
          -0.312556 -0.0526485 -0.297408 -0.407086 -0.075605 -0.4254 -0.460679 0.131254 -0.597271 -0.481147 0.0163461 -0.575331
          -0.43343 0.0552301 -0.648591 -0.386618 0.0393025 -0.447339 -0.406181 -0.0207935 -0.699911 -0.359368 -0.036721 -0.49866
          -0.308078 0.0259931 -0.797904 -0.357129 0.00259981 -0.748908 -0.267311 -0.11445 -0.79247 -0.184604 0.0186013 -0.691058
          -0.16422 -0.0516205 -0.688341 -0.0611295 0.0112095 -0.584211 -0.336746 -0.0676219 -0.746191 -0.233655 -0.004792 -0.642061
          -0.228525 -0.0295205 -0.858948 -0.144827 -0.00915552 -0.721579 -0.268301 -0.00176371 -0.828426 -0.247918 -0.0719855 -0.825709
          -0.196485 -0.0258228 -0.878641 -0.21563 -0.00406421 -0.861542 -0.154476 -0.0781353 -0.862381 -0.202734 0.0213921 -0.864137
          -0.164446 -0.0221251 -0.898335 -0.122437 -0.0744376 -0.882074 -0.0804278 -0.12675 -0.865814 -0.176944 0.0723047 -0.869327
          -0.128686 -0.0272227 -0.86757 -0.100367 -0.0147298 -0.937722 -0.0903974 -0.07074 -0.901768 -0.0559141 0.047857 -0.929315
          -0.0781405 0.0165636 -0.933518 -0.116429 0.0600809 -0.899321 -0.0275063 -0.0107894 -0.970757 -0.028285 -0.00911965 -0.924366
          -0.0140812 -0.0384428 -0.945087 -0.000656002 -0.0660963 -0.919417 -0.0639366 -0.0127596 -0.954239 0.0322881 0.0173345 -0.825273
          0.12049 -0.013188 -0.721231 0.0200312 -0.0699691 -0.793522 0.0599171 -0.0396421 -0.820324 0.00913712 -0.100278 -0.696431
          -0.111009 -0.128881 -0.666372 -0.0707787 -0.0577703 -0.725012 -0.160889 -0.268972 -0.748533 -0.120659 -0.197861 -0.807173
          0.0794038 -0.211765 -0.808651 -0.0407427 -0.240369 -0.778592 -0.000512033 -0.169258 -0.837232 -0.0220054 -0.164284 -0.655969
          0.0171188 -0.339778 -0.727726 -0.0718852 -0.304375 -0.73813 0.0482613 -0.275772 -0.768189 -0.173869 -0.1206 -0.829142
          -0.131932 0.0163008 -0.724174 -0.119037 0.0417571 -0.726769 -0.2141 -0.191711 -0.770502 0.0296803 -0.000989258 -0.652721
          -0.225915 -0.333815 -0.498563 -0.184476 -0.318691 -0.533775 -0.202403 -0.403312 -0.636458 -0.285282 -0.433561 -0.566032
          -0.243842 -0.418437 -0.601245 -0.163719 -0.251521 -0.589813 -0.181646 -0.336142 -0.692495 -0.194207 -0.318572 -0.436451
          -0.285832 -0.394143 -0.3912 -0.221865 -0.403076 -0.441809 -0.253573 -0.418318 -0.503921 -0.405116 -0.554217 -0.351308
          -0.345199 -0.493889 -0.45867 -0.277182 -0.572083 -0.452525 -0.341149 -0.56315 -0.401916 -0.281232 -0.502822 -0.509279
          -0.179719 -0.363881 -0.500293 -0.239086 -0.463627 -0.567762 -0.19289 -0.493693 -0.569492 -0.235036 -0.532888 -0.511009
          -0.129965 -0.572613 -0.525038 -0.166769 -0.572481 -0.50691 -0.148256 -0.403341 -0.478066 -0.161427 -0.533153 -0.547265
          -0.203573 -0.572348 -0.488782 -0.185061 -0.403208 -0.459937 -0.198231 -0.533021 -0.529137 -0.240377 -0.572215 -0.470654
          -0.370338 -0.377836 -0.526904 -0.430255 -0.438164 -0.419542 -0.197646 -0.448503 -0.602975 -0.148245 -0.281626 -0.48748
          -0.0747148 -0.286923 -0.57941 -0.129942 -0.329183 -0.543868 -0.145415 -0.299078 -0.6462 -0.0933351 -0.424297 -0.656642
          -0.127112 -0.346635 -0.702588 -0.0381081 -0.382037 -0.692184 -0.0875117 -0.506092 -0.592964 -0.0904234 -0.465194 -0.624803
          -0.140201 -0.499893 -0.581228 -0.12703 -0.37008 -0.512029 -0.128486 -0.349632 -0.527948 -0.153374 -0.366981 -0.506161
          -0.141657 -0.479444 -0.597148 -0.166545 -0.496793 -0.57536 -0.0918792 -0.444746 -0.640723 -0.143112 -0.458995 -0.613067
          -0.147869 -0.413805 -0.64655 -0.000216547 -0.466112 -0.633812 -0.0467758 -0.445204 -0.645227 -0.0833824 -0.35009 -0.532452
          0.00845112 -0.402945 -0.680769 -0.106662 -0.339637 -0.53816 -0.0148285 -0.392491 -0.686477 0.131635 -0.418748 -0.651331
          0.074377 -0.379263 -0.689529 -0.0174565 -0.326408 -0.541212 -0.0460856 -0.306666 -0.560311 0.0457479 -0.35952 -0.708628
          -0.0555895 -0.454748 -0.402225 -0.0923938 -0.454615 -0.384097 -0.0738814 -0.285476 -0.355253 -0.018402 -0.395815 -0.340819
          0.0187855 -0.336882 -0.279413 -0.0275479 -0.311179 -0.317333 -0.129198 -0.454483 -0.365969 -0.10154 -0.369979 -0.360611
          -0.0343631 -0.421487 -0.436189 -0.0522675 -0.542642 -0.565673 -0.0170233 -0.579192 -0.538381 -0.00861993 -0.522652 -0.586096
          -0.00778877 -0.379185 -0.357801 0.000881112 -0.458037 -0.408897 0.00928449 -0.401497 -0.456612 0.014035 -0.36919 -0.368012
          -0.0734939 -0.575903 -0.53171 -0.10456 -0.645199 -0.459841 -0.042887 -0.491041 -0.369627 -0.0791546 -0.717785 -0.394644
          -0.048089 -0.648489 -0.466513 -0.0301845 -0.527334 -0.337029 -0.100456 -0.327778 -0.433641 0.0752104 -0.377815 -0.465372
          -0.045669 -0.305942 -0.448233 0.046998 -0.357349 -0.372392 -0.286364 -0.127431 -0.565502 -0.376212 -0.134866 -0.675801
          -0.306778 -0.181694 -0.722081 -0.113839 -0.11143 -0.507652 -0.453344 -0.68163 -0.135026 -0.372732 -0.725116 -0.179339
          -0.368682 -0.620959 0.00573699 -0.433041 -0.749669 -0.0621458 -0.328376 -0.642701 -0.0164198 -0.284021 -0.560287 0.1465
          -0.348379 -0.688998 0.078617 -0.392735 -0.771412 -0.0843025 -0.412738 -0.817708 0.0107342 -0.332425 -0.746858 -0.201496