<?xml version="1.0"?>
<VTKFile type="UnstructuredGrid" version="0.1" byte_order="LittleEndian">
  <UnstructuredGrid>
    <Piece NumberOfCells="120" NumberOfPoints="242">
      <PointData Scalars="S_aq">
        <DataArray type="Float32" Name="S_aq" NumberOfComponents="1" format="ascii">
          0.005 0.005 0.005 0.005 0.005 0.005 0.005 0.005 0.005 0.005 0.005 0.005
          0.005 0.005 0.005 0.005 0.005 0.005 0.005 0.005 0.005 0.005 0.005 0.005
          0.005 0.005 0.005 0.005 0.005 0.005 0.005 0.005 0.005 0.005 0.005 0.005
          0.005 0.005 0.005 0.005 0.005 0.005 0.005 0.005 0.005 0.005 0.005 0.005
          0.005 0.005 0.005 0.005 0.005 0.005 0.005 0.005 0.005 0.005 0.005 0.005
          0.005 0.005 0.005 0.005 0.005 0.005 0.005 0.005 0.005 0.005 0.005 0.005
          0.005 0.005 0.005 0.005 0.005 0.005 0.005 0.005 0.005 0.005 0.005 0.005
          0.005 0.005 0.005 0.005 0.005 0.005 0.005 0.005 0.005 0.005 0.005 0.005
          0.005 0.005 0.005 0.005 0.005 0.005 0.005 0.005 0.005 0.005 0.005 0.005
          0.005 0.005 0.005 0.005 0.005 0.005 0.005 0.005 0.005 0.005 0.005 0.005
          0.005 0.005 0.005 0.005 0.005 0.005 0.005 0.005 0.005 0.005 0.005 0.005
          0.005 0.005 0.005 0.005 0.005 0.005 0.005 0.005 0.005 0.005 0.005 0.005
          0.005 0.005 0.005 0.005 0.005 0.005 0.005 0.005 0.005 0.005 0.005 0.005
          0.005 0.005 0.005 0.005 0.005 0.005 0.005 0.005 0.005 0.005 0.005 0.005
          0.005 0.005 0.005 0.005 0.005 0.005 0.005 0.005 0.005 0.005 0.00499994 0.00499994
          0.00499998 0.00499998 0.00499999 0.00499999 0.00499999 0.00499999 0.00499999 0.00499999 0.00499999 0.00499999 0.00499999 0.00499999
          0.00499999 0.00499999 0.005 0.005 0.005 0.005 0.00500001 0.00500001 0.00500001 0.00500001 0.00500001 0.00500001
          0.00500001 0.00500001 0.005 0.005 0.005 0.005 0.005 0.005 0.005 0.005 0.005 0.005
          0.005 0.005 0.005 0.005 0.005 0.005 0.005 0.005 0.00500001 0.00500001 0.00500006 0.00500006
          0.00500071 0.00500071 0.00500894 0.00500894 0.00521304 0.00521304 0.0336511 0.0336511 0.0769172 0.0769172 0.146717 0.146717
          0.162309 0.162309
        </DataArray>
        <DataArray type="Float32" Name="p_aq" NumberOfComponents="1" format="ascii">
          99947.1 99947.1 99947 99947 99946.9 99946.9 99946.8 99946.8 99946.6 99946.6 99946.5 99946.5
          99946.4 99946.4 99946.3 99946.3 99946.2 99946.2 99946.1 99946.1 99945.9 99945.9 99945.8 99945.8
          99945.7 99945.7 99945.6 99945.6 99945.5 99945.5 99945.4 99945.4 99945.2 99945.2 99945.1 99945.1
          99945 99945 99944.9 99944.9 99944.8 99944.8 99944.7 99944.7 99944.5 99944.5 99944.4 99944.4
          99944.3 99944.3 99944.2 99944.2 99944.1 99944.1 99944 99944 99943.8 99943.8 99943.7 99943.7
          99943.6 99943.6 99943.5 99943.5 99943.4 99943.4 99943.3 99943.3 99943.1 99943.1 99943 99943
          99942.9 99942.9 99942.8 99942.8 99942.7 99942.7 99942.6 99942.6 99942.4 99942.4 99942.3 99942.3
          99942.2 99942.2 99942.1 99942.1 99942 99942 99941.9 99941.9 99941.7 99941.7 99941.6 99941.6
          99941.5 99941.5 99941.4 99941.4 99941.3 99941.3 99941.1 99941.1 99941 99941 99940.9 99940.9
          99940.8 99940.8 99940.7 99940.7 99940.6 99940.6 99940.4 99940.4 99940.3 99940.3 99940.2 99940.2
          99940.1 99940.1 99940 99940 99939.9 99939.9 99939.7 99939.7 99939.6 99939.6 99939.5 99939.5
          99939.4 99939.4 99939.3 99939.3 99939.2 99939.2 99939 99939 99938.9 99938.9 99938.8 99938.8
          99938.7 99938.7 99938.6 99938.6 99938.5 99938.5 99938.3 99938.3 99938.2 99938.2 99938.1 99938.1
          99938 99938 99937.9 99937.9 99937.8 99937.8 99937.6 99937.6 99937.5 99937.5 99937.4 99937.4
          99937.3 99937.3 99937.2 99937.2 99937.1 99937.1 99936.9 99936.9 99936.8 99936.8 99936.7 99936.7
          45892 45892 45805.8 45805.8 45718.4 45718.4 45629.9 45629.9 45540.3 45540.3 45449 45449
          45355.6 45355.6 45258.9 45258.9 45157.9 45157.9 45050.5 45050.5 44934.5 44934.5 44806.3 44806.3
          44661 44661 44491.6 44491.6 44288 44288 44037.5 44037.5 43729 43729 43372.1 43372.1
          43018.7 43018.7 42702.3 42702.3 42389.9 42389.9 42042.6 42042.6 41632.4 41632.4 41113.9 41113.9
          40413.1 40413.1 39428.2 39428.2 41665.9 41665.9 53416.2 53416.2 68500.9 68500.9 93777.3 93777.3
          94795.5 94795.5
        </DataArray>
        <DataArray type="Float32" Name="rho_aq" NumberOfComponents="1" format="ascii">
          997.661 997.661 997.661 997.661 997.661 997.661 997.661 997.661 997.661 997.661 997.661 997.661
          997.661 997.661 997.661 997.661 997.661 997.661 997.661 997.661 997.661 997.661 997.661 997.661
          997.661 997.661 997.661 997.661 997.661 997.661 997.661 997.661 997.661 997.661 997.661 997.661
          997.661 997.661 997.661 997.661 997.661 997.661 997.661 997.661 997.661 997.661 997.661 997.661
          997.661 997.661 997.661 997.661 997.661 997.661 997.661 997.661 997.661 997.661 997.661 997.661
          997.661 997.661 997.661 997.661 997.661 997.661 997.661 997.661 997.661 997.661 997.661 997.661
          997.661 997.661 997.661 997.661 997.661 997.661 997.661 997.661 997.661 997.661 997.661 997.661
          997.661 997.661 997.661 997.661 997.661 997.661 997.661 997.661 997.661 997.661 997.661 997.661
          997.661 997.661 997.661 997.661 997.661 997.661 997.661 997.661 997.661 997.661 997.661 997.661
          997.661 997.661 997.661 997.661 997.661 997.661 997.661 997.661 997.661 997.661 997.661 997.661
          997.661 997.661 997.661 997.661 997.661 997.661 997.661 997.661 997.661 997.661 997.661 997.661
          997.661 997.661 997.661 997.661 997.661 997.661 997.661 997.661 997.661 997.661 997.661 997.661
          997.661 997.661 997.661 997.661 997.661 997.661 997.661 997.661 997.661 997.661 997.661 997.661
          997.661 997.661 997.661 997.661 997.661 997.661 997.661 997.661 997.661 997.661 997.661 997.661
          997.661 997.661 997.661 997.661 997.661 997.661 997.661 997.661 997.661 997.661 997.661 997.661
          997.637 997.637 997.637 997.637 997.637 997.637 997.637 997.637 997.637 997.637 997.637 997.637
          997.637 997.637 997.637 997.637 997.637 997.637 997.637 997.637 997.637 997.637 997.637 997.637
          997.636 997.636 997.636 997.636 997.636 997.636 997.636 997.636 997.636 997.636 997.636 997.636
          997.636 997.636 997.636 997.636 997.635 997.635 997.635 997.635 997.635 997.635 997.634 997.634
          997.625 997.625 997.519 997.519 996.209 996.209 980.955 980.955 967.145 967.145 964.445 964.445
          959.187 959.187
        </DataArray>
        <DataArray type="Float32" Name="x^H2O_aq" NumberOfComponents="1" format="ascii">
          0.99996 0.99996 0.99996 0.99996 0.99996 0.99996 0.99996 0.99996 0.99996 0.99996 0.99996 0.99996
          0.99996 0.99996 0.99996 0.99996 0.99996 0.99996 0.99996 0.99996 0.99996 0.99996 0.99996 0.99996
          0.99996 0.99996 0.99996 0.99996 0.99996 0.99996 0.99996 0.99996 0.99996 0.99996 0.99996 0.99996
          0.99996 0.99996 0.99996 0.99996 0.99996 0.99996 0.99996 0.99996 0.99996 0.99996 0.99996 0.99996
          0.99996 0.99996 0.99996 0.99996 0.99996 0.99996 0.99996 0.99996 0.99996 0.99996 0.99996 0.99996
          0.99996 0.99996 0.99996 0.99996 0.99996 0.99996 0.99996 0.99996 0.99996 0.99996 0.99996 0.99996
          0.99996 0.99996 0.99996 0.99996 0.99996 0.99996 0.99996 0.99996 0.99996 0.99996 0.99996 0.99996
          0.99996 0.99996 0.99996 0.99996 0.99996 0.99996 0.99996 0.99996 0.99996 0.99996 0.99996 0.99996
          0.99996 0.99996 0.99996 0.99996 0.99996 0.99996 0.99996 0.99996 0.99996 0.99996 0.99996 0.99996
          0.99996 0.99996 0.99996 0.99996 0.99996 0.99996 0.99996 0.99996 0.99996 0.99996 0.99996 0.99996
          0.99996 0.99996 0.99996 0.99996 0.99996 0.99996 0.99996 0.99996 0.99996 0.99996 0.99996 0.99996
          0.99996 0.99996 0.99996 0.99996 0.99996 0.99996 0.99996 0.99996 0.99996 0.99996 0.99996 0.99996
          0.99996 0.99996 0.99996 0.99996 0.99996 0.99996 0.99996 0.99996 0.99996 0.99996 0.99996 0.99996
          0.99996 0.99996 0.99996 0.99996 0.99996 0.99996 0.99996 0.99996 0.99996 0.99996 0.99996 0.99996
          0.99996 0.99996 0.99996 0.99996 0.99996 0.99996 0.99996 0.99996 0.99996 0.99996 0.99996 0.99996
          0.99996 0.99996 0.99996 0.99996 0.99996 0.99996 0.99996 0.99996 0.99996 0.99996 0.99996 0.99996
          0.99996 0.99996 0.99996 0.99996 0.99996 0.99996 0.99996 0.99996 0.99996 0.99996 0.99996 0.99996
          0.99996 0.99996 0.99996 0.99996 0.99996 0.99996 0.99996 0.99996 0.99996 0.99996 0.99996 0.99996
          0.99996 0.99996 0.99996 0.99996 0.99996 0.99996 0.99996 0.99996 0.99996 0.99996 0.99996 0.99996
          0.99996 0.99996 0.999959 0.999959 0.999951 0.999951 0.999763 0.999763 0.999379 0.999379 0.999557 0.999557
          0.999984 0.999984
        </DataArray>
        <DataArray type="Float32" Name="x^xylene_aq" NumberOfComponents="1" format="ascii">
          2.62566e-05 2.62566e-05 2.62566e-05 2.62566e-05 2.62566e-05 2.62566e-05 2.62566e-05 2.62566e-05 2.62566e-05 2.62566e-05 2.62566e-05 2.62566e-05
          2.62566e-05 2.62566e-05 2.62566e-05 2.62566e-05 2.62566e-05 2.62566e-05 2.62566e-05 2.62566e-05 2.62566e-05 2.62566e-05 2.62566e-05 2.62566e-05
          2.62566e-05 2.62566e-05 2.62566e-05 2.62566e-05 2.62566e-05 2.62566e-05 2.62566e-05 2.62566e-05 2.62566e-05 2.62566e-05 2.62566e-05 2.62566e-05
          2.62566e-05 2.62566e-05 2.62566e-05 2.62566e-05 2.62566e-05 2.62566e-05 2.62566e-05 2.62566e-05 2.62566e-05 2.62566e-05 2.62566e-05 2.62566e-05
          2.62566e-05 2.62566e-05 2.62566e-05 2.62566e-05 2.62566e-05 2.62566e-05 2.62566e-05 2.62566e-05 2.62566e-05 2.62566e-05 2.62566e-05 2.62566e-05
          2.62566e-05 2.62566e-05 2.62566e-05 2.62566e-05 2.62566e-05 2.62566e-05 2.62566e-05 2.62566e-05 2.62566e-05 2.62566e-05 2.62566e-05 2.62566e-05
          2.62566e-05 2.62566e-05 2.62566e-05 2.62566e-05 2.62566e-05 2.62566e-05 2.62566e-05 2.62566e-05 2.62566e-05 2.62566e-05 2.62566e-05 2.62566e-05
          2.62566e-05 2.62566e-05 2.62566e-05 2.62566e-05 2.62566e-05 2.62566e-05 2.62566e-05 2.62566e-05 2.62566e-05 2.62566e-05 2.62566e-05 2.62566e-05
          2.62566e-05 2.62566e-05 2.62566e-05 2.62566e-05 2.62566e-05 2.62566e-05 2.62566e-05 2.62566e-05 2.62566e-05 2.62566e-05 2.62566e-05 2.62566e-05
          2.62566e-05 2.62566e-05 2.62566e-05 2.62566e-05 2.62566e-05 2.62566e-05 2.62566e-05 2.62566e-05 2.62566e-05 2.62566e-05 2.62566e-05 2.62566e-05
          2.62566e-05 2.62566e-05 2.62566e-05 2.62566e-05 2.62566e-05 2.62566e-05 2.62566e-05 2.62566e-05 2.62566e-05 2.62566e-05 2.62566e-05 2.62566e-05
          2.62566e-05 2.62566e-05 2.62566e-05 2.62566e-05 2.62566e-05 2.62566e-05 2.62566e-05 2.62566e-05 2.62566e-05 2.62566e-05 2.62566e-05 2.62566e-05
          2.62566e-05 2.62566e-05 2.62566e-05 2.62566e-05 2.62566e-05 2.62566e-05 2.62566e-05 2.62566e-05 2.62566e-05 2.62566e-05 2.62566e-05 2.62566e-05
          2.62566e-05 2.62566e-05 2.62566e-05 2.62566e-05 2.62566e-05 2.62566e-05 2.62566e-05 2.62566e-05 2.62566e-05 2.62566e-05 2.62566e-05 2.62566e-05
          2.62566e-05 2.62566e-05 2.62566e-05 2.62566e-05 2.62566e-05 2.62566e-05 2.62566e-05 2.62566e-05 2.62566e-05 2.62566e-05 2.62566e-05 2.62566e-05
          2.62564e-05 2.62564e-05 2.62564e-05 2.62564e-05 2.62564e-05 2.62564e-05 2.62565e-05 2.62565e-05 2.62565e-05 2.62565e-05 2.62566e-05 2.62566e-05
          2.62566e-05 2.62566e-05 2.62566e-05 2.62566e-05 2.62566e-05 2.62566e-05 2.62566e-05 2.62566e-05 2.62566e-05 2.62566e-05 2.62566e-05 2.62566e-05
          2.62566e-05 2.62566e-05 2.62566e-05 2.62566e-05 2.62566e-05 2.62566e-05 2.62566e-05 2.62566e-05 2.62566e-05 2.62566e-05 2.62566e-05 2.62566e-05
          2.62566e-05 2.62566e-05 2.62566e-05 2.62566e-05 2.62566e-05 2.62566e-05 2.62567e-05 2.62567e-05 2.62571e-05 2.62571e-05 2.62623e-05 2.62623e-05
          2.63242e-05 2.63242e-05 2.70516e-05 2.70516e-05 3.64053e-05 3.64053e-05 0.000230951 0.000230951 0.000620412 0.000620412 0.000442455 0.000442455
          1.578e-05 1.578e-05
        </DataArray>
        <DataArray type="Float32" Name="x^Air_aq" NumberOfComponents="1" format="ascii">
          1.37483e-05 1.37483e-05 1.37482e-05 1.37482e-05 1.37482e-05 1.37482e-05 1.37482e-05 1.37482e-05 1.37482e-05 1.37482e-05 1.37482e-05 1.37482e-05
          1.37482e-05 1.37482e-05 1.37481e-05 1.37481e-05 1.37481e-05 1.37481e-05 1.37481e-05 1.37481e-05 1.37481e-05 1.37481e-05 1.37481e-05 1.37481e-05
          1.37481e-05 1.37481e-05 1.3748e-05 1.3748e-05 1.3748e-05 1.3748e-05 1.3748e-05 1.3748e-05 1.3748e-05 1.3748e-05 1.3748e-05 1.3748e-05
          1.3748e-05 1.3748e-05 1.37479e-05 1.37479e-05 1.37479e-05 1.37479e-05 1.37479e-05 1.37479e-05 1.37479e-05 1.37479e-05 1.37479e-05 1.37479e-05
          1.37479e-05 1.37479e-05 1.37478e-05 1.37478e-05 1.37478e-05 1.37478e-05 1.37478e-05 1.37478e-05 1.37478e-05 1.37478e-05 1.37478e-05 1.37478e-05
          1.37478e-05 1.37478e-05 1.37477e-05 1.37477e-05 1.37477e-05 1.37477e-05 1.37477e-05 1.37477e-05 1.37477e-05 1.37477e-05 1.37477e-05 1.37477e-05
          1.37477e-05 1.37477e-05 1.37476e-05 1.37476e-05 1.37476e-05 1.37476e-05 1.37476e-05 1.37476e-05 1.37476e-05 1.37476e-05 1.37476e-05 1.37476e-05
          1.37476e-05 1.37476e-05 1.37475e-05 1.37475e-05 1.37475e-05 1.37475e-05 1.37475e-05 1.37475e-05 1.37475e-05 1.37475e-05 1.37475e-05 1.37475e-05
          1.37475e-05 1.37475e-05 1.37474e-05 1.37474e-05 1.37474e-05 1.37474e-05 1.37474e-05 1.37474e-05 1.37474e-05 1.37474e-05 1.37474e-05 1.37474e-05
          1.37474e-05 1.37474e-05 1.37473e-05 1.37473e-05 1.37473e-05 1.37473e-05 1.37473e-05 1.37473e-05 1.37473e-05 1.37473e-05 1.37473e-05 1.37473e-05
          1.37473e-05 1.37473e-05 1.37472e-05 1.37472e-05 1.37472e-05 1.37472e-05 1.37472e-05 1.37472e-05 1.37472e-05 1.37472e-05 1.37472e-05 1.37472e-05
          1.37472e-05 1.37472e-05 1.37471e-05 1.37471e-05 1.37471e-05 1.37471e-05 1.37471e-05 1.37471e-05 1.37471e-05 1.37471e-05 1.37471e-05 1.37471e-05
          1.37471e-05 1.37471e-05 1.3747e-05 1.3747e-05 1.3747e-05 1.3747e-05 1.3747e-05 1.3747e-05 1.3747e-05 1.3747e-05 1.3747e-05 1.3747e-05
          1.3747e-05 1.3747e-05 1.37469e-05 1.37469e-05 1.37469e-05 1.37469e-05 1.37469e-05 1.37469e-05 1.37469e-05 1.37469e-05 1.37469e-05 1.37469e-05
          1.37469e-05 1.37469e-05 1.37468e-05 1.37468e-05 1.37468e-05 1.37468e-05 1.37468e-05 1.37468e-05 1.37468e-05 1.37468e-05 1.37468e-05 1.37468e-05
          1.37474e-05 1.37474e-05 1.3748e-05 1.3748e-05 1.37485e-05 1.37485e-05 1.37488e-05 1.37488e-05 1.3749e-05 1.3749e-05 1.37491e-05 1.37491e-05
          1.37493e-05 1.37493e-05 1.37494e-05 1.37494e-05 1.37494e-05 1.37494e-05 1.37495e-05 1.37495e-05 1.37495e-05 1.37495e-05 1.37496e-05 1.37496e-05
          1.37496e-05 1.37496e-05 1.37496e-05 1.37496e-05 1.37497e-05 1.37497e-05 1.37497e-05 1.37497e-05 1.37497e-05 1.37497e-05 1.37497e-05 1.37497e-05
          1.37497e-05 1.37497e-05 1.37497e-05 1.37497e-05 1.37497e-05 1.37497e-05 1.37497e-05 1.37497e-05 1.37496e-05 1.37496e-05 1.37487e-05 1.37487e-05
          1.37385e-05 1.37385e-05 1.36207e-05 1.36207e-05 1.2426e-05 1.2426e-05 6.31336e-06 6.31336e-06 2.07889e-07 2.07889e-07 9.00182e-08 9.00182e-08
          1.8594e-07 1.8594e-07
        </DataArray>
        <DataArray type="Float32" Name="S_napl" NumberOfComponents="1" format="ascii">
          0.0001 0.0001 0.0001 0.0001 0.0001 0.0001 0.0001 0.0001 9.99999e-05 9.99999e-05 9.99999e-05 9.99999e-05
          9.99998e-05 9.99998e-05 9.99997e-05 9.99997e-05 9.99997e-05 9.99997e-05 9.99996e-05 9.99996e-05 9.99996e-05 9.99996e-05 9.99995e-05 9.99995e-05
          9.99994e-05 9.99994e-05 9.99994e-05 9.99994e-05 9.99993e-05 9.99993e-05 9.99993e-05 9.99993e-05 9.99992e-05 9.99992e-05 9.99991e-05 9.99991e-05
          9.99991e-05 9.99991e-05 9.9999e-05 9.9999e-05 9.9999e-05 9.9999e-05 9.99989e-05 9.99989e-05 9.99988e-05 9.99988e-05 9.99988e-05 9.99988e-05
          9.99987e-05 9.99987e-05 9.99987e-05 9.99987e-05 9.99986e-05 9.99986e-05 9.99985e-05 9.99985e-05 9.99985e-05 9.99985e-05 9.99984e-05 9.99984e-05
          9.99984e-05 9.99984e-05 9.99983e-05 9.99983e-05 9.99983e-05 9.99983e-05 9.99982e-05 9.99982e-05 9.99981e-05 9.99981e-05 9.99981e-05 9.99981e-05
          9.9998e-05 9.9998e-05 9.9998e-05 9.9998e-05 9.99979e-05 9.99979e-05 9.99978e-05 9.99978e-05 9.99978e-05 9.99978e-05 9.99977e-05 9.99977e-05
          9.99977e-05 9.99977e-05 9.99976e-05 9.99976e-05 9.99975e-05 9.99975e-05 9.99975e-05 9.99975e-05 9.99974e-05 9.99974e-05 9.99974e-05 9.99974e-05
          9.99973e-05 9.99973e-05 9.99972e-05 9.99972e-05 9.99972e-05 9.99972e-05 9.99971e-05 9.99971e-05 9.99971e-05 9.99971e-05 9.9997e-05 9.9997e-05
          9.99969e-05 9.99969e-05 9.99969e-05 9.99969e-05 9.99968e-05 9.99968e-05 9.99968e-05 9.99968e-05 9.99967e-05 9.99967e-05 9.99966e-05 9.99966e-05
          9.99966e-05 9.99966e-05 9.99965e-05 9.99965e-05 9.99965e-05 9.99965e-05 9.99964e-05 9.99964e-05 9.99963e-05 9.99963e-05 9.99963e-05 9.99963e-05
          9.99962e-05 9.99962e-05 9.99962e-05 9.99962e-05 9.99961e-05 9.99961e-05 9.9996e-05 9.9996e-05 9.9996e-05 9.9996e-05 9.99959e-05 9.99959e-05
          9.99959e-05 9.99959e-05 9.99958e-05 9.99958e-05 9.99957e-05 9.99957e-05 9.99957e-05 9.99957e-05 9.99956e-05 9.99956e-05 9.99956e-05 9.99956e-05
          9.99955e-05 9.99955e-05 9.99955e-05 9.99955e-05 9.99954e-05 9.99954e-05 9.99953e-05 9.99953e-05 9.99953e-05 9.99953e-05 9.99952e-05 9.99952e-05
          9.99952e-05 9.99952e-05 9.99951e-05 9.99951e-05 9.9995e-05 9.9995e-05 9.9995e-05 9.9995e-05 9.99948e-05 9.99948e-05 9.98474e-05 9.98474e-05
          0.913312 0.913312 0.889921 0.889921 0.863292 0.863292 0.833649 0.833649 0.801279 0.801279 0.766491 0.766491
          0.729582 0.729582 0.690808 0.690808 0.650365 0.650365 0.608371 0.608371 0.564857 0.564857 0.519785 0.519785
          0.473102 0.473102 0.424864 0.424864 0.375479 0.375479 0.326158 0.326158 0.27959 0.27959 0.240316 0.240316
          0.212329 0.212329 0.193723 0.193723 0.179621 0.179621 0.167565 0.167565 0.156847 0.156847 0.147057 0.147057
          0.138104 0.138104 0.130337 0.130337 0.155716 0.155716 0.2073 0.2073 0.14496 0.14496 0 0
          0 0
        </DataArray>
        <DataArray type="Float32" Name="p_napl" NumberOfComponents="1" format="ascii">
          99947.1 99947.1 99947 99947 99946.9 99946.9 99946.8 99946.8 99946.6 99946.6 99946.5 99946.5
          99946.4 99946.4 99946.3 99946.3 99946.2 99946.2 99946.1 99946.1 99945.9 99945.9 99945.8 99945.8
          99945.7 99945.7 99945.6 99945.6 99945.5 99945.5 99945.4 99945.4 99945.2 99945.2 99945.1 99945.1
          99945 99945 99944.9 99944.9 99944.8 99944.8 99944.7 99944.7 99944.5 99944.5 99944.4 99944.4
          99944.3 99944.3 99944.2 99944.2 99944.1 99944.1 99944 99944 99943.8 99943.8 99943.7 99943.7
          99943.6 99943.6 99943.5 99943.5 99943.4 99943.4 99943.3 99943.3 99943.1 99943.1 99943 99943
          99942.9 99942.9 99942.8 99942.8 99942.7 99942.7 99942.6 99942.6 99942.4 99942.4 99942.3 99942.3
          99942.2 99942.2 99942.1 99942.1 99942 99942 99941.9 99941.9 99941.7 99941.7 99941.6 99941.6
          99941.5 99941.5 99941.4 99941.4 99941.3 99941.3 99941.1 99941.1 99941 99941 99940.9 99940.9
          99940.8 99940.8 99940.7 99940.7 99940.6 99940.6 99940.4 99940.4 99940.3 99940.3 99940.2 99940.2
          99940.1 99940.1 99940 99940 99939.9 99939.9 99939.7 99939.7 99939.6 99939.6 99939.5 99939.5
          99939.4 99939.4 99939.3 99939.3 99939.2 99939.2 99939 99939 99938.9 99938.9 99938.8 99938.8
          99938.7 99938.7 99938.6 99938.6 99938.5 99938.5 99938.3 99938.3 99938.2 99938.2 99938.1 99938.1
          99938 99938 99937.9 99937.9 99937.8 99937.8 99937.6 99937.6 99937.5 99937.5 99937.4 99937.4
          99937.3 99937.3 99937.2 99937.2 99937.1 99937.1 99936.9 99936.9 99936.8 99936.8 99936.7 99936.7
          98773.1 98773.1 98686.9 98686.9 98599.5 98599.5 98511 98511 98421.4 98421.4 98330.2 98330.2
          98236.7 98236.7 98140.1 98140.1 98039 98039 97931.6 97931.6 97815.6 97815.6 97687.4 97687.4
          97542.1 97542.1 97372.7 97372.7 97169.1 97169.1 96918.6 96918.6 96610.2 96610.2 96253.3 96253.3
          95899.8 95899.8 95583.5 95583.5 95271.1 95271.1 94923.7 94923.7 94513.5 94513.5 93995 93995
          93294 93294 92306.1 92306.1 94472 94472 96206.3 96206.3 96052.5 96052.5 93777.3 93777.3
          94795.5 94795.5
        </DataArray>
        <DataArray type="Float32" Name="rho_napl" NumberOfComponents="1" format="ascii">
          860.465 860.465 860.465 860.465 860.465 860.465 860.465 860.465 860.465 860.465 860.465 860.465
          860.465 860.465 860.465 860.465 860.465 860.465 860.465 860.465 860.465 860.465 860.465 860.465
          860.465 860.465 860.465 860.465 860.465 860.465 860.465 860.465 860.465 860.465 860.465 860.465
          860.465 860.465 860.465 860.465 860.465 860.465 860.465 860.465 860.465 860.465 860.465 860.465
          860.465 860.465 860.465 860.465 860.465 860.465 860.465 860.465 860.465 860.465 860.465 860.465
          860.465 860.465 860.465 860.465 860.465 860.465 860.465 860.465 860.465 860.465 860.465 860.465
          860.465 860.465 860.465 860.465 860.465 860.465 860.465 860.465 860.465 860.465 860.465 860.465
          860.465 860.465 860.465 860.465 860.465 860.465 860.465 860.465 860.465 860.465 860.465 860.465
          860.465 860.465 860.465 860.465 860.465 860.465 860.465 860.465 860.465 860.465 860.465 860.465
          860.465 860.465 860.465 860.465 860.465 860.465 860.465 860.465 860.465 860.465 860.465 860.465
          860.465 860.465 860.465 860.465 860.465 860.465 860.465 860.465 860.465 860.465 860.465 860.465
          860.465 860.465 860.465 860.465 860.465 860.465 860.465 860.465 860.465 860.465 860.465 860.465
          860.465 860.465 860.465 860.465 860.465 860.465 860.465 860.465 860.465 860.465 860.465 860.465
          860.465 860.465 860.465 860.465 860.465 860.465 860.465 860.465 860.465 860.465 860.465 860.465
          860.465 860.465 860.465 860.465 860.465 860.465 860.465 860.465 860.465 860.465 860.465 860.465
          860.465 860.465 860.465 860.465 860.465 860.465 860.465 860.465 860.465 860.465 860.465 860.465
          860.465 860.465 860.465 860.465 860.465 860.465 860.465 860.465 860.465 860.465 860.465 860.465
          860.465 860.465 860.465 860.465 860.465 860.465 860.465 860.465 860.465 860.465 860.465 860.465
          860.465 860.465 860.465 860.465 860.465 860.465 860.465 860.465 860.465 860.465 860.462 860.462
          860.428 860.428 860.033 860.033 855.615 855.615 822.277 822.277 798.796 798.796 796.222 796.222
          791.806 791.806
        </DataArray>
        <DataArray type="Float32" Name="x^H2O_napl" NumberOfComponents="1" format="ascii">
          1e-10 1e-10 1e-10 1e-10 1e-10 1e-10 1e-10 1e-10 1e-10 1e-10 1e-10 1e-10
          1e-10 1e-10 1e-10 1e-10 1e-10 1e-10 1e-10 1e-10 1e-10 1e-10 1e-10 1e-10
          1e-10 1e-10 1e-10 1e-10 1e-10 1e-10 1e-10 1e-10 1e-10 1e-10 1e-10 1e-10
          1e-10 1e-10 1e-10 1e-10 1e-10 1e-10 1e-10 1e-10 1e-10 1e-10 1e-10 1e-10
          1e-10 1e-10 1e-10 1e-10 1e-10 1e-10 1e-10 1e-10 1e-10 1e-10 1e-10 1e-10
          1e-10 1e-10 1e-10 1e-10 1e-10 1e-10 1e-10 1e-10 1e-10 1e-10 1e-10 1e-10
          1e-10 1e-10 1e-10 1e-10 1e-10 1e-10 1e-10 1e-10 1e-10 1e-10 1e-10 1e-10
          1e-10 1e-10 1e-10 1e-10 1e-10 1e-10 1e-10 1e-10 1e-10 1e-10 1e-10 1e-10
          1e-10 1e-10 1e-10 1e-10 1e-10 1e-10 1e-10 1e-10 1e-10 1e-10 1e-10 1e-10
          1e-10 1e-10 1e-10 1e-10 1e-10 1e-10 1e-10 1e-10 1e-10 1e-10 1e-10 1e-10
          1e-10 1e-10 1e-10 1e-10 1e-10 1e-10 1e-10 1e-10 1e-10 1e-10 1e-10 1e-10
          1e-10 1e-10 1e-10 1e-10 1e-10 1e-10 1e-10 1e-10 1e-10 1e-10 1e-10 1e-10
          1e-10 1e-10 1e-10 1e-10 1e-10 1e-10 1e-10 1e-10 1e-10 1e-10 1e-10 1e-10
          1e-10 1e-10 1e-10 1e-10 1e-10 1e-10 1e-10 1e-10 1e-10 1e-10 1e-10 1e-10
          1e-10 1e-10 1e-10 1e-10 1e-10 1e-10 1e-10 1e-10 1e-10 1e-10 1e-10 1e-10
          1e-10 1e-10 1e-10 1e-10 1e-10 1e-10 1e-10 1e-10 1e-10 1e-10 1e-10 1e-10
          1e-10 1e-10 1e-10 1e-10 1e-10 1e-10 1e-10 1e-10 1e-10 1e-10 1e-10 1e-10
          1e-10 1e-10 1e-10 1e-10 1e-10 1e-10 1e-10 1e-10 1e-10 1e-10 1e-10 1e-10
          1e-10 1e-10 1e-10 1e-10 1e-10 1e-10 1e-10 1e-10 1e-10 1e-10 1e-10 1e-10
          1e-10 1e-10 1e-10 1e-10 1e-10 1e-10 1e-10 1e-10 1e-10 1e-10 1e-10 1e-10
          1e-10 1e-10
        </DataArray>
        <DataArray type="Float32" Name="x^xylene_napl" NumberOfComponents="1" format="ascii">
          1 1 1 1 1 1 1 1 1 1 1 1
          1 1 1 1 1 1 1 1 1 1 1 1
          1 1 1 1 1 1 1 1 1 1 1 1
          1 1 1 1 1 1 1 1 1 1 1 1
          1 1 1 1 1 1 1 1 1 1 1 1
          1 1 1 1 1 1 1 1 1 1 1 1
          1 1 1 1 1 1 1 1 1 1 1 1
          1 1 1 1 1 1 1 1 1 1 1 1
          1 1 1 1 1 1 1 1 1 1 1 1
          1 1 1 1 1 1 1 1 1 1 1 1
          1 1 1 1 1 1 1 1 1 1 1 1
          1 1 1 1 1 1 1 1 1 1 1 1
          1 1 1 1 1 1 1 1 1 1 1 1
          1 1 1 1 1 1 1 1 1 1 1 1
          1 1 1 1 1 1 1 1 1 1 1 1
          1 1 1 1 1 1 1 1 1 1 1 1
          1 1 1 1 1 1 1 1 1 1 1 1
          1 1 1 1 1 1 1 1 1 1 1 1
          1 1 1 1 1 1 1 1 1 1 1 1
          1 1 1 1 1 1 1 1 1 1 0.647651 0.647651
          0.0196751 0.0196751
        </DataArray>
        <DataArray type="Float32" Name="x^Air_napl" NumberOfComponents="1" format="ascii">
          1e-10 1e-10 1e-10 1e-10 1e-10 1e-10 1e-10 1e-10 1e-10 1e-10 1e-10 1e-10
          1e-10 1e-10 1e-10 1e-10 1e-10 1e-10 1e-10 1e-10 1e-10 1e-10 1e-10 1e-10
          1e-10 1e-10 1e-10 1e-10 1e-10 1e-10 1e-10 1e-10 1e-10 1e-10 1e-10 1e-10
          1e-10 1e-10 1e-10 1e-10 1e-10 1e-10 1e-10 1e-10 1e-10 1e-10 1e-10 1e-10
          1e-10 1e-10 1e-10 1e-10 1e-10 1e-10 1e-10 1e-10 1e-10 1e-10 1e-10 1e-10
          1e-10 1e-10 1e-10 1e-10 1e-10 1e-10 1e-10 1e-10 1e-10 1e-10 1e-10 1e-10
          1e-10 1e-10 1e-10 1e-10 1e-10 1e-10 1e-10 1e-10 1e-10 1e-10 1e-10 1e-10
          1e-10 1e-10 1e-10 1e-10 1e-10 1e-10 1e-10 1e-10 1e-10 1e-10 1e-10 1e-10
          1e-10 1e-10 1e-10 1e-10 1e-10 1e-10 1e-10 1e-10 1e-10 1e-10 1e-10 1e-10
          1e-10 1e-10 1e-10 1e-10 1e-10 1e-10 1e-10 1e-10 1e-10 1e-10 1e-10 1e-10
          1e-10 1e-10 1e-10 1e-10 1e-10 1e-10 1e-10 1e-10 1e-10 1e-10 1e-10 1e-10
          1e-10 1e-10 1e-10 1e-10 1e-10 1e-10 1e-10 1e-10 1e-10 1e-10 1e-10 1e-10
          1e-10 1e-10 1e-10 1e-10 1e-10 1e-10 1e-10 1e-10 1e-10 1e-10 1e-10 1e-10
          1e-10 1e-10 1e-10 1e-10 1e-10 1e-10 1e-10 1e-10 1e-10 1e-10 1e-10 1e-10
          1e-10 1e-10 1e-10 1e-10 1e-10 1e-10 1e-10 1e-10 1e-10 1e-10 1e-10 1e-10
          1e-10 1e-10 1e-10 1e-10 1e-10 1e-10 1e-10 1e-10 1e-10 1e-10 1e-10 1e-10
          1e-10 1e-10 1e-10 1e-10 1e-10 1e-10 1e-10 1e-10 1e-10 1e-10 1e-10 1e-10
          1e-10 1e-10 1e-10 1e-10 1e-10 1e-10 1e-10 1e-10 1e-10 1e-10 1e-10 1e-10
          1e-10 1e-10 1e-10 1e-10 1e-10 1e-10 1e-10 1e-10 1e-10 1e-10 1e-10 1e-10
          1e-10 1e-10 1e-10 1e-10 1e-10 1e-10 1e-10 1e-10 1e-10 1e-10 1e-10 1e-10
          1e-10 1e-10
        </DataArray>
        <DataArray type="Float32" Name="S_gas" NumberOfComponents="1" format="ascii">
          0.9949 0.9949 0.9949 0.9949 0.9949 0.9949 0.9949 0.9949 0.9949 0.9949 0.9949 0.9949
          0.9949 0.9949 0.9949 0.9949 0.9949 0.9949 0.9949 0.9949 0.9949 0.9949 0.9949 0.9949
          0.9949 0.9949 0.9949 0.9949 0.9949 0.9949 0.9949 0.9949 0.9949 0.9949 0.9949 0.9949
          0.9949 0.9949 0.9949 0.9949 0.9949 0.9949 0.9949 0.9949 0.9949 0.9949 0.9949 0.9949
          0.9949 0.9949 0.9949 0.9949 0.9949 0.9949 0.9949 0.9949 0.9949 0.9949 0.9949 0.9949
          0.9949 0.9949 0.9949 0.9949 0.9949 0.9949 0.9949 0.9949 0.9949 0.9949 0.9949 0.9949
          0.9949 0.9949 0.9949 0.9949 0.9949 0.9949 0.9949 0.9949 0.9949 0.9949 0.9949 0.9949
          0.9949 0.9949 0.9949 0.9949 0.9949 0.9949 0.9949 0.9949 0.9949 0.9949 0.9949 0.9949
          0.9949 0.9949 0.9949 0.9949 0.9949 0.9949 0.9949 0.9949 0.9949 0.9949 0.9949 0.9949
          0.9949 0.9949 0.9949 0.9949 0.9949 0.9949 0.9949 0.9949 0.9949 0.9949 0.9949 0.9949
          0.9949 0.9949 0.9949 0.9949 0.9949 0.9949 0.9949 0.9949 0.9949 0.9949 0.9949 0.9949
          0.9949 0.9949 0.9949 0.9949 0.9949 0.9949 0.9949 0.9949 0.9949 0.9949 0.9949 0.9949
          0.9949 0.9949 0.9949 0.9949 0.9949 0.9949 0.9949 0.9949 0.9949 0.9949 0.9949 0.9949
          0.9949 0.9949 0.9949 0.9949 0.9949 0.9949 0.9949 0.9949 0.9949 0.9949 0.9949 0.9949
          0.9949 0.9949 0.9949 0.9949 0.9949 0.9949 0.9949 0.9949 0.9949 0.9949 0.9949 0.9949
          0.0816884 0.0816884 0.105079 0.105079 0.131708 0.131708 0.161351 0.161351 0.193721 0.193721 0.228509 0.228509
          0.265418 0.265418 0.304192 0.304192 0.344635 0.344635 0.386629 0.386629 0.430143 0.430143 0.475215 0.475215
          0.521898 0.521898 0.570136 0.570136 0.619521 0.619521 0.668842 0.668842 0.71541 0.71541 0.754684 0.754684
          0.782671 0.782671 0.801277 0.801277 0.815379 0.815379 0.827435 0.827435 0.838153 0.838153 0.847943 0.847943
          0.856896 0.856896 0.864654 0.864654 0.839071 0.839071 0.759049 0.759049 0.778123 0.778123 0.853283 0.853283
          0.837691 0.837691
        </DataArray>
        <DataArray type="Float32" Name="p_gas" NumberOfComponents="1" format="ascii">
          100000 100000 99999.9 99999.9 99999.8 99999.8 99999.6 99999.6 99999.5 99999.5 99999.4 99999.4
          99999.3 99999.3 99999.2 99999.2 99999.1 99999.1 99998.9 99998.9 99998.8 99998.8 99998.7 99998.7
          99998.6 99998.6 99998.5 99998.5 99998.4 99998.4 99998.2 99998.2 99998.1 99998.1 99998 99998
          99997.9 99997.9 99997.8 99997.8 99997.7 99997.7 99997.5 99997.5 99997.4 99997.4 99997.3 99997.3
          99997.2 99997.2 99997.1 99997.1 99997 99997 99996.8 99996.8 99996.7 99996.7 99996.6 99996.6
          99996.5 99996.5 99996.4 99996.4 99996.3 99996.3 99996.1 99996.1 99996 99996 99995.9 99995.9