<?xml version="1.0"?>
<VTKFile type="UnstructuredGrid" version="0.1" byte_order="LittleEndian">
  <UnstructuredGrid>
    <Piece NumberOfCells="2" NumberOfPoints="6">
      <PointData Scalars="p">
        <DataArray type="Float32" Name="p" NumberOfComponents="1" format="ascii">
          200000 200000 200000 200000 200000 200000
        </DataArray>
        <DataArray type="Float32" Name="rho" NumberOfComponents="1" format="ascii">
          0.981785 0.981785 0.981785 0.981785 0.981785 0.981785
        </DataArray>
        <DataArray type="Float32" Name="mu" NumberOfComponents="1" format="ascii">
          2.50048e-05 2.50048e-05 2.50048e-05 2.50048e-05 2.50048e-05 2.50048e-05
        </DataArray>
        <DataArray type="Float32" Name="x^N2_gas" NumberOfComponents="1" format="ascii">
          0.536 0.536 0.536 0.536 0.536 0.536
        </DataArray>
        <DataArray type="Float32" Name="x^H2O_gas" NumberOfComponents="1" format="ascii">
          0.464 0.464 0.464 0.464 0.464 0.464
        </DataArray>
        <DataArray type="Float32" Name="X^N2_gas" NumberOfComponents="1" format="ascii">
          0.642382 0.642382 0.642382 0.642382 0.642382 0.642382
        </DataArray>
        <DataArray type="Float32" Name="X^H2O_gas" NumberOfComponents="1" format="ascii">
          0.357618 0.357618 0.357618 0.357618 0.357618 0.357618
        </DataArray>
        <DataArray type="Float32" Name="precipitateVolumeFraction^CaO" NumberOfComponents="1" format="ascii">
          0.105328 0.105328 0.105328 0.105328 0.105328 0.105328
        </DataArray>
        <DataArray type="Float32" Name="precipitateVolumeFraction^CaO2H2" NumberOfComponents="1" format="ascii">
          0.0941565 0.0941565 0.0941565 0.0941565 0.0941565 0.0941565
        </DataArray>
        <DataArray type="Float32" Name="T" NumberOfComponents="1" format="ascii">
          573.15 573.15 573.15 573.15 573.15 573.15
        </DataArray>
        <DataArray type="Float32" Name="permeability" NumberOfComponents="1" format="ascii">
          8.53e-12 8.53e-12 8.53e-12 8.53e-12 8.53e-12 8.53e-12
        </DataArray>
        <DataArray type="Float32" Name="porosity" NumberOfComponents="1" format="ascii">
          0.800516 0.800516 0.800516 0.800516 0.800516 0.800516
        </DataArray>
        <DataArray type="Float32" Name="reactionRate" NumberOfComponents="1" format="ascii">
          7.8396 7.8396 7.8396 7.8396 7.8396 7.8396
        </DataArray>
      </PointData>
      <CellData Scalars="process rank">
        <DataArray type="Float32" Name="process rank" NumberOfComponents="1" format="ascii">
          0 0
        </DataArray>
      </CellData>
      <Points>
        <DataArray type="Float32" Name="Coordinates" NumberOfComponents="3" format="ascii">
          0 0 0 0.01 0 0 0 0.01 0 0.01 0.01 0
          0.02 0 0 0.02 0.01 0
        </DataArray>
      </Points>
      <Cells>
        <DataArray type="Int32" Name="connectivity" NumberOfComponents="1" format="ascii">
          0 1 3 2 1 4 5 3
        </DataArray>
        <DataArray type="Int32" Name="offsets" NumberOfComponents="1" format="ascii">
          4 8
        </DataArray>
        <DataArray type="UInt8" Name="types" NumberOfComponents="1" format="ascii">
          9 9
        </DataArray>
      </Cells>
    </Piece>
  </UnstructuredGrid>
</VTKFile>
