<?xml version="1.0"?>
<VTKFile type="UnstructuredGrid" version="0.1" byte_order="LittleEndian">
  <UnstructuredGrid>
    <Piece NumberOfCells="2400" NumberOfPoints="2501">
      <PointData Scalars="S_aq">
        <DataArray type="Float32" Name="S_aq" NumberOfComponents="1" format="ascii">
          0.700458 0.700477 0.700435 0.700461 0.700524 0.700521 0.700578 0.700583 0.700626 0.700633 0.700662 0.700668
          0.700686 0.700691 0.700699 0.700703 0.700705 0.700708 0.700705 0.700707 0.7007 0.700702 0.700691 0.700693
          0.70068 0.700681 0.700667 0.700668 0.700653 0.700653 0.700637 0.700637 0.700621 0.700621 0.700604 0.700604
          0.700587 0.700587 0.70057 0.70057 0.700552 0.700553 0.700535 0.700535 0.700518 0.700518 0.700501 0.700501
          0.700484 0.700484 0.700467 0.700467 0.700451 0.700451 0.700435 0.700435 0.700419 0.700419 0.700403 0.700403
          0.700387 0.700387 0.700372 0.700372 0.700357 0.700357 0.700342 0.700342 0.700327 0.700327 0.700313 0.700313
          0.700299 0.700299 0.700285 0.700285 0.700271 0.700271 0.700257 0.700257 0.700244 0.700244 0.70023 0.70023
          0.700217 0.700217 0.700204 0.700204 0.700192 0.700192 0.700179 0.700179 0.700166 0.700166 0.700154 0.700154
          0.700142 0.700142 0.70013 0.70013 0.700118 0.700118 0.700106 0.700106 0.700094 0.700094 0.700082 0.700082
          0.70007 0.70007 0.700059 0.700059 0.700047 0.700047 0.700036 0.700036 0.700025 0.700024 0.700014 0.700013
          0.700009 0.7 0.700341 0.70041 0.700526 0.700603 0.700653 0.700686 0.700705 0.700715 0.700717 0.700714
          0.700707 0.700697 0.700684 0.70067 0.700655 0.700639 0.700622 0.700605 0.700588 0.70057 0.700553 0.700535
          0.700518 0.700501 0.700484 0.700467 0.700451 0.700435 0.700419 0.700403 0.700387 0.700372 0.700357 0.700342
          0.700327 0.700313 0.700298 0.700284 0.700271 0.700257 0.700244 0.70023 0.700217 0.700204 0.700191 0.700179
          0.700166 0.700154 0.700142 0.70013 0.700118 0.700106 0.700094 0.700082 0.70007 0.700059 0.700047 0.700035
          0.700024 0.700012 0.7 0.699916 0.700413 0.700567 0.700646 0.700692 0.700717 0.70073 0.700734 0.700731
          0.700725 0.700715 0.700702 0.700688 0.700673 0.700657 0.70064 0.700623 0.700606 0.700588 0.700571 0.700553
          0.700536 0.700518 0.700501 0.700484 0.700467 0.700451 0.700435 0.700418 0.700403 0.700387 0.700372 0.700357
          0.700342 0.700327 0.700313 0.700298 0.700284 0.700271 0.700257 0.700244 0.70023 0.700217 0.700204 0.700191
          0.700179 0.700166 0.700154 0.700142 0.70013 0.700117 0.700106 0.700094 0.700082 0.70007 0.700058 0.700047
          0.700035 0.700024 0.700012 0.7 0.700504 0.700567 0.700665 0.70072 0.700748 0.70076 0.700762 0.700758
          0.70075 0.700738 0.700725 0.70071 0.700694 0.700677 0.70066 0.700642 0.700625 0.700607 0.700589 0.700571
          0.700553 0.700536 0.700518 0.700501 0.700484 0.700467 0.700451 0.700434 0.700418 0.700402 0.700387 0.700371
          0.700356 0.700342 0.700327 0.700312 0.700298 0.700284 0.70027 0.700257 0.700243 0.70023 0.700217 0.700204
          0.700191 0.700179 0.700166 0.700154 0.700142 0.70013 0.700117 0.700105 0.700094 0.700082 0.70007 0.700058
          0.700047 0.700035 0.700023 0.700012 0.7 0.700774 0.700785 0.700806 0.700818 0.700819 0.700812 0.7008
          0.700786 0.70077 0.700754 0.700736 0.700718 0.7007 0.700682 0.700663 0.700645 0.700626 0.700608 0.70059
          0.700571 0.700553 0.700536 0.700518 0.700501 0.700484 0.700467 0.70045 0.700434 0.700418 0.700402 0.700387
          0.700371 0.700356 0.700341 0.700327 0.700312 0.700298 0.700284 0.70027 0.700257 0.700243 0.70023 0.700217
          0.700204 0.700191 0.700179 0.700166 0.700154 0.700142 0.700129 0.700117 0.700105 0.700094 0.700082 0.70007
          0.700058 0.700047 0.700035 0.700023 0.700012 0.7 0.70101 0.700992 0.700961 0.700929 0.700897 0.700868
          0.700841 0.700816 0.700792 0.70077 0.700748 0.700727 0.700707 0.700686 0.700667 0.700647 0.700628 0.700609
          0.70059 0.700572 0.700553 0.700536 0.700518 0.7005 0.700483 0.700466 0.70045 0.700434 0.700417 0.700402
          0.700386 0.700371 0.700356 0.700341 0.700326 0.700312 0.700298 0.700284 0.70027 0.700256 0.700243 0.70023
          0.700217 0.700204 0.700191 0.700178 0.700166 0.700154 0.700141 0.700129 0.700117 0.700105 0.700093 0.700082
          0.70007 0.700058 0.700047 0.700035 0.700023 0.700012 0.7 0.701275 0.701201 0.701116 0.701037 0.700973
          0.700921 0.700879 0.700844 0.700813 0.700785 0.700759 0.700735 0.700713 0.700691 0.70067 0.700649 0.700629
          0.70061 0.700591 0.700572 0.700553 0.700535 0.700518 0.7005 0.700483 0.700466 0.700449 0.700433 0.700417
          0.700401 0.700386 0.70037 0.700355 0.70034 0.700326 0.700311 0.700297 0.700283 0.70027 0.700256 0.700243
          0.70023 0.700216 0.700204 0.700191 0.700178 0.700166 0.700154 0.700141 0.700129 0.700117 0.700105 0.700093
          0.700082 0.70007 0.700058 0.700046 0.700035 0.700023 0.700012 0.7 0.690973 0.701421 0.701255 0.701129
          0.701035 0.700965 0.700911 0.700867 0.70083 0.700798 0.700769 0.700742 0.700718 0.700694 0.700672 0.700651
          0.70063 0.70061 0.700591 0.700572 0.700553 0.700535 0.700517 0.700499 0.700482 0.700465 0.700449 0.700432
          0.700416 0.700401 0.700385 0.70037 0.700355 0.70034 0.700325 0.700311 0.700297 0.700283 0.700269 0.700256
          0.700242 0.700229 0.700216 0.700203 0.700191 0.700178 0.700166 0.700153 0.700141 0.700129 0.700117 0.700105
          0.700093 0.700081 0.70007 0.700058 0.700046 0.700035 0.700023 0.700012 0.7 0.367862 0.692223 0.701355
          0.701184 0.701072 0.700993 0.700932 0.700883 0.700842 0.700807 0.700776 0.700747 0.700721 0.700697 0.700674
          0.700652 0.700631 0.70061 0.700591 0.700571 0.700553 0.700534 0.700516 0.700499 0.700481 0.700465 0.700448
          0.700432 0.700416 0.7004 0.700384 0.700369 0.700354 0.700339 0.700325 0.700311 0.700296 0.700283 0.700269
          0.700255 0.700242 0.700229 0.700216 0.700203 0.70019 0.700178 0.700165 0.700153 0.700141 0.700129 0.700117
          0.700105 0.700093 0.700081 0.70007 0.700058 0.700046 0.700035 0.700023 0.700012 0.7 0.693034 0.701474
          0.701312 0.701183 0.701082 0.701004 0.700942 0.700892 0.700849 0.700812 0.70078 0.70075 0.700723 0.700698
          0.700675 0.700652 0.700631 0.70061 0.70059 0.700571 0.700552 0.700533 0.700515 0.700498 0.700481 0.700464
          0.700447 0.700431 0.700415 0.700399 0.700384 0.700368 0.700353 0.700339 0.700324 0.70031 0.700296 0.700282
          0.700268 0.700255 0.700242 0.700229 0.700216 0.700203 0.70019 0.700178 0.700165 0.700153 0.700141 0.700129
          0.700117 0.700105 0.700093 0.700081 0.700069 0.700058 0.700046 0.700035 0.700023 0.700012 0.7 0.701396
          0.701331 0.701241 0.701149 0.701067 0.700998 0.700941 0.700892 0.70085 0.700813 0.700781 0.700751 0.700724
          0.700698 0.700674 0.700652 0.70063 0.700609 0.700589 0.70057 0.700551 0.700532 0.700514 0.700497 0.700479
          0.700463 0.700446 0.70043 0.700414 0.700398 0.700383 0.700368 0.700353 0.700338 0.700324 0.700309 0.700295
          0.700282 0.700268 0.700254 0.700241 0.700228 0.700215 0.700202 0.70019 0.700177 0.700165 0.700153 0.700141
          0.700128 0.700117 0.700105 0.700093 0.700081 0.700069 0.700058 0.700046 0.700035 0.700023 0.700012 0.7
          0.70124 0.701216 0.701163 0.701101 0.701039 0.700981 0.700931 0.700886 0.700846 0.70081 0.700778 0.700749
          0.700722 0.700696 0.700673 0.70065 0.700628 0.700607 0.700587 0.700568 0.700549 0.700531 0.700513 0.700495
          0.700478 0.700461 0.700445 0.700429 0.700413 0.700397 0.700382 0.700367 0.700352 0.700337 0.700323 0.700309
          0.700295 0.700281 0.700267 0.700254 0.700241 0.700228 0.700215 0.700202 0.700189 0.700177 0.700165 0.700152
          0.70014 0.700128 0.700116 0.700104 0.700093 0.700081 0.700069 0.700058 0.700046 0.700035 0.700023 0.700011
          0.7 0.701137 0.701125 0.701093 0.70105 0.701004 0.700958 0.700914 0.700874 0.700838 0.700804 0.700773
          0.700745 0.700718 0.700693 0.70067 0.700647 0.700626 0.700605 0.700585 0.700566 0.700547 0.700529 0.700511
          0.700494 0.700476 0.70046 0.700443 0.700427 0.700411 0.700396 0.700381 0.700366 0.700351 0.700336 0.700322
          0.700308 0.700294 0.70028 0.700267 0.700253 0.70024 0.700227 0.700214 0.700202 0.700189 0.700177 0.700164
          0.700152 0.70014 0.700128 0.700116 0.700104 0.700092 0.700081 0.700069 0.700058 0.700046 0.700034 0.700023
          0.700011 0.7 0.701061 0.701054 0.701033 0.701003 0.700967 0.70093 0.700894 0.700859 0.700826 0.700795
          0.700766 0.700739 0.700713 0.700689 0.700666 0.700644 0.700623 0.700602 0.700583 0.700563 0.700545 0.700527
          0.700509 0.700492 0.700475 0.700458 0.700442 0.700426 0.70041 0.700395 0.70038 0.700365 0.70035 0.700336
          0.700321 0.700307 0.700293 0.70028 0.700266 0.700253 0.70024 0.700227 0.700214 0.700201 0.700189 0.700176
          0.700164 0.700152 0.70014 0.700128 0.700116 0.700104 0.700092 0.700081 0.700069 0.700057 0.700046 0.700034
          0.700023 0.700011 0.7 0.701001 0.700996 0.700981 0.700959 0.700932 0.700902 0.700872 0.700841 0.700812
          0.700784 0.700757 0.700731 0.700707 0.700683 0.700661 0.70064 0.700619 0.700599 0.700579 0.700561 0.700542
          0.700524 0.700507 0.70049 0.700473 0.700456 0.70044 0.700424 0.700409 0.700393 0.700378 0.700364 0.700349
          0.700334 0.70032 0.700306 0.700293 0.700279 0.700266 0.700252 0.700239 0.700226 0.700213 0.700201 0.700188
          0.700176 0.700164 0.700152 0.70014 0.700128 0.700116 0.700104 0.700092 0.700081 0.700069 0.700057 0.700046
          0.700034 0.700023 0.700011 0.7 0.700952 0.700948 0.700937 0.70092 0.700899 0.700875 0.700849 0.700823
          0.700797 0.700771 0.700746 0.700722 0.700699 0.700677 0.700655 0.700635 0.700615 0.700595 0.700576 0.700557
          0.700539 0.700522 0.700504 0.700487 0.700471 0.700454 0.700438 0.700423 0.700407 0.700392 0.700377 0.700362
          0.700348 0.700333 0.700319 0.700305 0.700292 0.700278 0.700265 0.700252 0.700239 0.700226 0.700213 0.7002
          0.700188 0.700176 0.700163 0.700151 0.700139 0.700127 0.700115 0.700104 0.700092 0.70008 0.700069 0.700057
          0.700046 0.700034 0.700023 0.700011 0.7 0.70091 0.700907 0.700899 0.700886 0.700868 0.700848 0.700827
          0.700804 0.700781 0.700758 0.700735 0.700713 0.700691 0.70067 0.700649 0.700629 0.70061 0.700591 0.700572
          0.700554 0.700536 0.700519 0.700502 0.700485 0.700469 0.700452 0.700437 0.700421 0.700406 0.700391 0.700376
          0.700361 0.700347 0.700332 0.700318 0.700305 0.700291 0.700277 0.700264 0.700251 0.700238 0.700225 0.700212
          0.7002 0.700188 0.700175 0.700163 0.700151 0.700139 0.700127 0.700115 0.700104 0.700092 0.70008 0.700069
          0.700057 0.700046 0.700034 0.700023 0.700011 0.7 0.700874 0.700872 0.700865 0.700855 0.70084 0.700824
          0.700805 0.700785 0.700765 0.700744 0.700723 0.700703 0.700682 0.700662 0.700642 0.700623 0.700604 0.700586
          0.700568 0.70055 0.700533 0.700516 0.700499 0.700482 0.700466 0.70045 0.700435 0.700419 0.700404 0.700389
          0.700374 0.70036 0.700345 0.700331 0.700317 0.700304 0.70029 0.700277 0.700263 0.70025 0.700237 0.700225
          0.700212 0.700199 0.700187 0.700175 0.700163 0.700151 0.700139 0.700127 0.700115 0.700103 0.700092 0.70008
          0.700069 0.700057 0.700046 0.700034 0.700023 0.700011 0.7 0.700843 0.700841 0.700836 0.700827 0.700815
          0.700801 0.700785 0.700767 0.700749 0.70073 0.700711 0.700692 0.700673 0.700654 0.700635 0.700617 0.700599
          0.700581 0.700563 0.700546 0.700529 0.700512 0.700496 0.70048 0.700464 0.700448 0.700433 0.700417 0.700402
          0.700388 0.700373 0.700359 0.700344 0.70033 0.700316 0.700303 0.700289 0.700276 0.700263 0.70025 0.700237
          0.700224 0.700211 0.700199 0.700187 0.700174 0.700162 0.70015 0.700138 0.700127 0.700115 0.700103 0.700091
          0.70008 0.700068 0.700057 0.700046 0.700034 0.700023 0.700011 0.7 0.700816 0.700814 0.700809 0.700802
          0.700792 0.70078 0.700766 0.70075 0.700734 0.700717 0.700699 0.700682 0.700664 0.700646 0.700628 0.700611
          0.700593 0.700576 0.700559 0.700542 0.700526 0.700509 0.700493 0.700477 0.700461 0.700446 0.700431 0.700415
          0.700401 0.700386 0.700371 0.700357 0.700343 0.700329 0.700315 0.700302 0.700288 0.700275 0.700262 0.700249
          0.700236 0.700224 0.700211 0.700199 0.700186 0.700174 0.700162 0.70015 0.700138 0.700126 0.700114 0.700103
          0.700091 0.70008 0.700068 0.700057 0.700045 0.700034 0.700023 0.700011 0.7 0.700791 0.70079 0.700786
          0.70078 0.700771 0.70076 0.700748 0.700734 0.700719 0.700704 0.700688 0.700671 0.700655 0.700638 0.700621
          0.700604 0.700587 0.700571 0.700554 0.700538 0.700522 0.700506 0.70049 0.700474 0.700459 0.700444 0.700428
          0.700414 0.700399 0.700384 0.70037 0.700356 0.700342 0.700328 0.700314 0.700301 0.700287 0.700274 0.700261
          0.700248 0.700236 0.700223 0.70021 0.700198 0.700186 0.700174 0.700162 0.70015 0.700138 0.700126 0.700114
          0.700103 0.700091 0.70008 0.700068 0.700057 0.700045 0.700034 0.700023 0.700011 0.7 0.70077 0.700769
          0.700765 0.70076 0.700752 0.700743 0.700732 0.700719 0.700706 0.700692 0.700677 0.700661 0.700646 0.70063
          0.700614 0.700598 0.700582 0.700566 0.70055 0.700534 0.700518 0.700502 0.700487 0.700472 0.700456 0.700441
          0.700426 0.700412 0.700397 0.700383 0.700369 0.700354 0.700341 0.700327 0.700313 0.7003 0.700287 0.700273
          0.70026 0.700248 0.700235 0.700222 0.70021 0.700198 0.700185 0.700173 0.700161 0.700149 0.700137 0.700126
          0.700114 0.700102 0.700091 0.700079 0.700068 0.700057 0.700045 0.700034 0.700023 0.700011 0.7 0.700751
          0.70075 0.700747 0.700742 0.700735 0.700726 0.700717 0.700705 0.700693 0.70068 0.700666 0.700652 0.700637
          0.700622 0.700607 0.700592 0.700576 0.700561 0.700545 0.70053 0.700514 0.700499 0.700484 0.700469 0.700454
          0.700439 0.700424 0.70041 0.700395 0.700381 0.700367 0.700353 0.700339 0.700326 0.700312 0.700299 0.700286
          0.700273 0.70026 0.700247 0.700234 0.700222 0.700209 0.700197 0.700185 0.700173 0.700161 0.700149 0.700137
          0.700125 0.700114 0.700102 0.700091 0.700079 0.700068 0.700056 0.700045 0.700034 0.700023 0.700011 0.7
          0.700734 0.700733 0.70073 0.700726 0.70072 0.700712 0.700703 0.700693 0.700681 0.700669 0.700657 0.700643
          0.700629 0.700615 0.7006 0.700586 0.700571 0.700556 0.700541 0.700526 0.700511 0.700496 0.700481 0.700466
          0.700451 0.700437 0.700422 0.700408 0.700394 0.70038 0.700366 0.700352 0.700338 0.700325 0.700311 0.700298
          0.700285 0.700272 0.700259 0.700246 0.700234 0.700221 0.700209 0.700197 0.700184 0.700172 0.70016 0.700149
          0.700137 0.700125 0.700114 0.700102 0.700091 0.700079 0.700068 0.700056 0.700045 0.700034 0.700023 0.700011
          0.7 0.700719 0.700718 0.700715 0.700711 0.700706 0.700699 0.700691 0.700681 0.700671 0.700659 0.700647
          0.700635 0.700622 0.700608 0.700594 0.70058 0.700566 0.700551 0.700537 0.700522 0.700507 0.700493 0.700478
          0.700463 0.700449 0.700435 0.70042 0.700406 0.700392 0.700378 0.700364 0.700351 0.700337 0.700324 0.70031
          0.700297 0.700284 0.700271 0.700258 0.700246 0.700233 0.700221 0.700208 0.700196 0.700184 0.700172 0.70016
          0.700148 0.700137 0.700125 0.700113 0.700102 0.70009 0.700079 0.700068 0.700056 0.700045 0.700034 0.700022
          0.700011 0.7 0.700705 0.700705 0.700702 0.700699 0.700694 0.700687 0.700679 0.700671 0.700661 0.70065
          0.700639 0.700627 0.700615 0.700602 0.700588 0.700575 0.700561 0.700547 0.700533 0.700518 0.700504 0.70049
          0.700475 0.700461 0.700447 0.700433 0.700418 0.700404 0.70039 0.700377 0.700363 0.700349 0.700336 0.700323
          0.700309 0.700296 0.700283 0.70027 0.700258 0.700245 0.700232 0.70022 0.700208 0.700196 0.700184 0.700172
          0.70016 0.700148 0.700136 0.700125 0.700113 0.700102 0.70009 0.700079 0.700067 0.700056 0.700045 0.700034
          0.700022 0.700011 0.7 0.700694 0.700693 0.700691 0.700688 0.700683 0.700677 0.70067 0.700661 0.700652
          0.700642 0.700632 0.70062 0.700608 0.700596 0.700583 0.70057 0.700556 0.700543 0.700529 0.700515 0.700501
          0.700487 0.700473 0.700459 0.700445 0.700431 0.700417 0.700403 0.700389 0.700375 0.700362 0.700348 0.700335
          0.700321 0.700308 0.700295 0.700282 0.70027 0.700257 0.700244 0.700232 0.70022 0.700207 0.700195 0.700183
          0.700171 0.700159 0.700148 0.700136 0.700124 0.700113 0.700101 0.70009 0.700079 0.700067 0.700056 0.700045
          0.700034 0.700022 0.700011 0.7 0.700684 0.700683 0.700681 0.700678 0.700673 0.700668 0.700661 0.700653
          0.700645 0.700635 0.700625 0.700614 0.700603 0.700591 0.700578 0.700565 0.700552 0.700539 0.700525 0.700512
          0.700498 0.700484 0.70047 0.700457 0.700443 0.700429 0.700415 0.700401 0.700388 0.700374 0.70036 0.700347
          0.700334 0.700321 0.700307 0.700294 0.700282 0.700269 0.700256 0.700244 0.700231 0.700219 0.700207 0.700195
          0.700183 0.700171 0.700159 0.700147 0.700136 0.700124 0.700113 0.700101 0.70009 0.700078 0.700067 0.700056
          0.700045 0.700033 0.700022 0.700011 0.7 0.700675 0.700674 0.700673 0.70067 0.700665 0.70066 0.700654
          0.700646 0.700638 0.700629 0.700619 0.700609 0.700597 0.700586 0.700574 0.700561 0.700549 0.700536 0.700522
          0.700509 0.700496 0.700482 0.700468 0.700455 0.700441 0.700427 0.700413 0.7004 0.700386 0.700373 0.700359
          0.700346 0.700333 0.70032 0.700307 0.700294 0.700281 0.700268 0.700256 0.700243 0.700231 0.700219 0.700206
          0.700194 0.700182 0.700171 0.700159 0.700147 0.700135 0.700124 0.700112 0.700101 0.70009 0.700078 0.700067
          0.700056 0.700045 0.700033 0.700022 0.700011 0.7 0.700668 0.700667 0.700665 0.700663 0.700659 0.700653
          0.700647 0.70064 0.700632 0.700624 0.700614 0.700604 0.700593 0.700582 0.70057 0.700558 0.700545 0.700533
          0.70052 0.700507 0.700493 0.70048 0.700466 0.700453 0.700439 0.700426 0.700412 0.700399 0.700385 0.700372
          0.700358 0.700345 0.700332 0.700319 0.700306 0.700293 0.70028 0.700268 0.700255 0.700243 0.70023 0.700218
          0.700206 0.700194 0.700182 0.70017 0.700158 0.700147 0.700135 0.700124 0.700112 0.700101 0.70009 0.700078
          0.700067 0.700056 0.700045 0.700033 0.700022 0.700011 0.7 0.700662 0.700661 0.70066 0.700657 0.700653
          0.700648 0.700642 0.700635 0.700628 0.700619 0.70061 0.7006 0.700589 0.700578 0.700567 0.700555 0.700543
          0.70053 0.700517 0.700504 0.700491 0.700478 0.700465 0.700451 0.700438 0.700424 0.700411 0.700397 0.700384
          0.700371 0.700357 0.700344 0.700331 0.700318 0.700305 0.700292 0.70028 0.700267 0.700255 0.700242 0.70023
          0.700218 0.700206 0.700194 0.700182 0.70017 0.700158 0.700147 0.700135 0.700123 0.700112 0.700101 0.700089
          0.700078 0.700067 0.700056 0.700045 0.700033 0.700022 0.700011 0.7 0.700657 0.700657 0.700655 0.700652
          0.700649 0.700644 0.700638 0.700631 0.700624 0.700616 0.700607 0.700597 0.700587 0.700576 0.700564 0.700553
          0.700541 0.700528 0.700516 0.700503 0.70049 0.700477 0.700463 0.70045 0.700437 0.700423 0.70041 0.700396
          0.700383 0.70037 0.700357 0.700344 0.70033 0.700318 0.700305 0.700292 0.700279 0.700267 0.700254 0.700242
          0.70023 0.700217 0.700205 0.700193 0.700181 0.70017 0.700158 0.700146 0.700135 0.700123 0.700112 0.700101
          0.700089 0.700078 0.700067 0.700056 0.700044 0.700033 0.700022 0.700011 0.7 0.700654 0.700654 0.700652
          0.700649 0.700646 0.700641 0.700635 0.700629 0.700621 0.700613 0.700604 0.700595 0.700584 0.700574 0.700563
          0.700551 0.700539 0.700527 0.700514 0.700501 0.700488 0.700475 0.700462 0.700449 0.700436 0.700422 0.700409
          0.700396 0.700382 0.700369 0.700356 0.700343 0.70033 0.700317 0.700304 0.700291 0.700279 0.700266 0.700254
          0.700241 0.700229 0.700217 0.700205 0.700193 0.700181 0.700169 0.700158 0.700146 0.700135 0.700123 0.700112
          0.7001 0.700089 0.700078 0.700067 0.700055 0.700044 0.700033 0.700022 0.700011 0.7 0.700652 0.700652
          0.70065 0.700647 0.700644 0.700639 0.700633 0.700627 0.70062 0.700612 0.700603 0.700593 0.700583 0.700572
          0.700561 0.70055 0.700538 0.700526 0.700513 0.7005 0.700487 0.700474 0.700461 0.700448 0.700435 0.700422
          0.700408 0.700395 0.700382 0.700369 0.700355 0.700342 0.700329 0.700316 0.700304 0.700291 0.700278 0.700266
          0.700253 0.700241 0.700229 0.700217 0.700205 0.700193 0.700181 0.700169 0.700158 0.700146 0.700134 0.700123
          0.700112 0.7001 0.700089 0.700078 0.700067 0.700055 0.700044 0.700033 0.700022 0.700011 0.7 0.700487
          0.700487 0.700485 0.700483 0.70048 0.700477 0.700472 0.700467 0.700461 0.700455 0.700448 0.70044 0.700432
          0.700424 0.700415 0.700406 0.700397 0.700387 0.700377 0.700368 0.700358 0.700348 0.700337 0.700327 0.700317
          0.700307 0.700297 0.700287 0.700277 0.700267 0.700257 0.700247 0.700238 0.700228 0.700219 0.700209 0.7002
          0.700191 0.700182 0.700173 0.700164 0.700155 0.700146 0.700138 0.700129 0.700121 0.700112 0.700104 0.700096
          0.700087 0.700079 0.700071 0.700063 0.700055 0.700047 0.700039 0.700031 0.700024 0.700016 0.700008 0.7
          0.700267 0.700267 0.700267 0.700265 0.700264 0.700261 0.700259 0.700256 0.700252 0.700249 0.700244 0.70024
          0.700235 0.700231 0.700225 0.70022 0.700215 0.700209 0.700204 0.700198 0.700192 0.700187 0.700181 0.700175
          0.70017 0.700164 0.700158 0.700153 0.700147 0.700141 0.700136 0.700131 0.700125 0.70012 0.700115 0.70011
          0.700105 0.7001 0.700095 0.70009 0.700085 0.700081 0.700076 0.700071 0.700067 0.700062 0.700058 0.700054
          0.700049 0.700045 0.700041 0.700037 0.700032 0.700028 0.700024 0.70002 0.700016 0.700012 0.700008 0.700004
          0.7 0.700138 0.700138 0.700138 0.700137 0.700136 0.700135 0.700134 0.700132 0.70013 0.700128 0.700126
          0.700123 0.700121 0.700118 0.700115 0.700113 0.70011 0.700107 0.700104 0.700101 0.700098 0.700095 0.700092
          0.700089 0.700086 0.700082 0.70008 0.700077 0.700074 0.700071 0.700068 0.700065 0.700062 0.70006 0.700057
          0.700054 0.700052 0.700049 0.700047 0.700044 0.700042 0.70004 0.700037 0.700035 0.700033 0.700031 0.700028
          0.700026 0.700024 0.700022 0.70002 0.700018 0.700016 0.700014 0.700012 0.70001 0.700008 0.700006 0.700004
          0.700002 0.7 0.700069 0.700069 0.700069 0.700068 0.700068 0.700067 0.700067 0.700066 0.700065 0.700064
          0.700063 0.700061 0.70006 0.700059 0.700057 0.700056 0.700054 0.700053 0.700051 0.70005 0.700048 0.700046
          0.700045 0.700043 0.700042 0.70004 0.700039 0.700037 0.700036 0.700034 0.700033 0.700032 0.70003 0.700029
          0.700027 0.700026 0.700025 0.700024 0.700022 0.700021 0.70002 0.700019 0.700018 0.700017 0.700016 0.700015
          0.700013 0.700012 0.700011 0.70001 0.700009 0.700008 0.700007 0.700007 0.700006 0.700005 0.700004 0.700003
          0.700002 0.700001 0.7 0.700037 0.700037 0.700037 0.700036 0.700036 0.700036 0.700035 0.700035 0.700034
          0.700034 0.700033 0.700032 0.700032 0.700031 0.70003 0.700029 0.700029 0.700028 0.700027 0.700026 0.700025
          0.700024 0.700023 0.700023 0.700022 0.700021 0.70002 0.700019 0.700019 0.700018 0.700017 0.700016 0.700015
          0.700015 0.700014 0.700013 0.700013 0.700012 0.700011 0.700011 0.70001 0.70001 0.700009 0.700008 0.700008
          0.700007 0.700007 0.700006 0.700006 0.700005 0.700005 0.700004 0.700004 0.700003 0.700003 0.700002 0.700002
          0.700001 0.700001 0.700001 0.7 0.700027 0.700027 0.700027 0.700027 0.700027 0.700027 0.700026 0.700026
          0.700026 0.700025 0.700025 0.700024 0.700024 0.700023 0.700022 0.700022 0.700021 0.700021 0.70002 0.700019
          0.700019 0.700018 0.700017 0.700017 0.700016 0.700015 0.700015 0.700014 0.700014 0.700013 0.700013 0.700012
          0.700011 0.700011 0.70001 0.70001 0.700009 0.700009 0.700008 0.700008 0.700007 0.700007 0.700007 0.700006
          0.700006 0.700005 0.700005 0.700005 0.700004 0.700004 0.700004 0.700003 0.700003 0.700002 0.700002 0.700002
          0.700001 0.700001 0.700001 0.7 0.7
        </DataArray>
        <DataArray type="Float32" Name="p_aq" NumberOfComponents="1" format="ascii">
          4.18407e+06 4.19071e+06 4.16631e+06 4.17552e+06 4.20707e+06 4.19642e+06 4.22607e+06 4.21793e+06 4.24264e+06 4.23506e+06 4.25504e+06 4.24731e+06
          4.26335e+06 4.25526e+06 4.26816e+06 4.25971e+06 4.27020e+06 4.26144e+06 4.27009e+06 4.26107e+06 4.26834e+06 4.25913e+06 4.26537e+06 4.256e+06
          4.26147e+06 4.25199e+06 4.25691e+06 4.24734e+06 4.25185e+06 4.24221e+06 4.24643e+06 4.23675e+06 4.24078e+06 4.23106e+06 4.23495e+06 4.22521e+06
          4.22903e+06 4.21926e+06 4.22304e+06 4.21326e+06 4.21704e+06 4.20725e+06 4.21104e+06 4.20124e+06 4.20508e+06 4.19527e+06 4.19915e+06 4.18934e+06
          4.19329e+06 4.18347e+06 4.18749e+06 4.17767e+06 4.18176e+06 4.17194e+06 4.1761e+06 4.16628e+06 4.17053e+06 4.16071e+06 4.16504e+06 4.15522e+06
          4.15962e+06 4.1498e+06 4.15429e+06 4.14447e+06 4.14904e+06 4.13922e+06 4.14387e+06 4.13406e+06 4.13878e+06 4.12896e+06 4.13377e+06 4.12395e+06
          4.12883e+06 4.11901e+06 4.12396e+06 4.11414e+06 4.11916e+06 4.10935e+06 4.11443e+06 4.10462e+06 4.10977e+06 4.09995e+06 4.10516e+06 4.09535e+06
          4.10062e+06 4.0908e+06 4.09613e+06 4.08632e+06 4.09169e+06 4.08188e+06 4.08731e+06 4.0775e+06 4.08297e+06 4.07316e+06 4.07868e+06 4.06886e+06
          4.07442e+06 4.06461e+06 4.07021e+06 4.0604e+06 4.06603e+06 4.05622e+06 4.06189e+06 4.05208e+06 4.05778e+06 4.04797e+06 4.05369e+06 4.04388e+06
          4.04964e+06 4.03983e+06 4.04561e+06 4.0358e+06 4.04162e+06 4.0318e+06 4.03766e+06 4.02783e+06 4.03379e+06 4.02391e+06 4.03016e+06 4.02006e+06
          4.02844e+06 4.01549e+06 4.12397e+06 4.14798e+06 4.18806e+06 4.21480e+06 4.23249e+06 4.24384e+06 4.25058e+06 4.25391e+06 4.25469e+06 4.25357e+06
          4.25105e+06 4.24748e+06 4.24314e+06 4.23823e+06 4.23292e+06 4.22731e+06 4.22151e+06 4.21558e+06 4.20957e+06 4.20353e+06 4.19748e+06 4.19145e+06
          4.18546e+06 4.17952e+06 4.17364e+06 4.16783e+06 4.1621e+06 4.15644e+06 4.15086e+06 4.14537e+06 4.13996e+06 4.13463e+06 4.12938e+06 4.12421e+06
          4.11912e+06 4.11411e+06 4.10917e+06 4.10431e+06 4.09951e+06 4.09479e+06 4.09012e+06 4.08552e+06 4.08098e+06 4.07649e+06 4.07206e+06 4.06767e+06
          4.06334e+06 4.05904e+06 4.05479e+06 4.05058e+06 4.0464e+06 4.04226e+06 4.03815e+06 4.03406e+06 4.03e+06 4.02597e+06 4.02195e+06 4.01796e+06
          4.01396e+06 4.00989e+06 4.00568e+06 3.96663e+06 4.13921e+06 4.19258e+06 4.2202e+06 4.23595e+06 4.2448e+06 4.24919e+06 4.25054e+06 4.24975e+06
          4.24742e+06 4.24396e+06 4.23969e+06 4.23482e+06 4.22952e+06 4.2239e+06 4.21808e+06 4.21211e+06 4.20605e+06 4.19994e+06 4.19383e+06 4.18773e+06
          4.18166e+06 4.17564e+06 4.16968e+06 4.16379e+06 4.15797e+06 4.15223e+06 4.14657e+06 4.14099e+06 4.13549e+06 4.13008e+06 4.12476e+06 4.11951e+06
          4.11434e+06 4.10926e+06 4.10425e+06 4.09932e+06 4.09445e+06 4.08966e+06 4.08494e+06 4.08027e+06 4.07568e+06 4.07114e+06 4.06665e+06 4.06222e+06
          4.05784e+06 4.0535e+06 4.04921e+06 4.04496e+06 4.04075e+06 4.03658e+06 4.03243e+06 4.02832e+06 4.02423e+06 4.02017e+06 4.01613e+06 4.0121e+06
          4.00808e+06 4.00405e+06 3.99998e+06 3.99587e+06 4.16097e+06 4.18277e+06 4.217e+06 4.23603e+06 4.24575e+06 4.24992e+06 4.25066e+06 4.2492e+06
          4.24627e+06 4.24232e+06 4.23765e+06 4.23247e+06 4.22692e+06 4.2211e+06 4.21511e+06 4.20899e+06 4.2028e+06 4.19658e+06 4.19036e+06 4.18415e+06
          4.17798e+06 4.17186e+06 4.16581e+06 4.15982e+06 4.15391e+06 4.14808e+06 4.14233e+06 4.13666e+06 4.13108e+06 4.12559e+06 4.12018e+06 4.11486e+06
          4.10961e+06 4.10445e+06 4.09937e+06 4.09437e+06 4.08944e+06 4.08458e+06 4.07979e+06 4.07507e+06 4.07041e+06 4.06582e+06 4.06128e+06 4.0568e+06
          4.05237e+06 4.04799e+06 4.04366e+06 4.03937e+06 4.03513e+06 4.03092e+06 4.02674e+06 4.0226e+06 4.01849e+06 4.0144e+06 4.01033e+06 4.00628e+06
          4.00225e+06 3.99822e+06 3.99418e+06 3.99013e+06 3.98606e+06 4.24509e+06 4.24885e+06 4.25602e+06 4.26039e+06 4.26065e+06 4.25818e+06 4.25414e+06
          4.2492e+06 4.24371e+06 4.23788e+06 4.23182e+06 4.22559e+06 4.21926e+06 4.21287e+06 4.20643e+06 4.19999e+06 4.19355e+06 4.18714e+06 4.18078e+06
          4.17447e+06 4.16822e+06 4.16205e+06 4.15595e+06 4.14993e+06 4.144e+06 4.13816e+06 4.1324e+06 4.12673e+06 4.12115e+06 4.11566e+06 4.11025e+06
          4.10493e+06 4.09969e+06 4.09453e+06 4.08946e+06 4.08446e+06 4.07953e+06 4.07468e+06 4.0699e+06 4.06518e+06 4.06053e+06 4.05594e+06 4.05141e+06
          4.04693e+06 4.04251e+06 4.03814e+06 4.03381e+06 4.02952e+06 4.02528e+06 4.02107e+06 4.0169e+06 4.01276e+06 4.00865e+06 4.00456e+06 4.00049e+06
          3.99644e+06 3.9924e+06 3.98837e+06 3.98433e+06 3.98029e+06 3.97625e+06 4.31728e+06 4.31099e+06 4.30017e+06 4.28892e+06 4.27800e+06 4.2678e+06
          4.25838e+06 4.24964e+06 4.24143e+06 4.23362e+06 4.2261e+06 4.2188e+06 4.21166e+06 4.20466e+06 4.19777e+06 4.19098e+06 4.18429e+06 4.17769e+06
          4.17118e+06 4.16476e+06 4.15843e+06 4.15219e+06 4.14605e+06 4.14001e+06 4.13406e+06 4.1282e+06 4.12243e+06 4.11676e+06 4.11118e+06 4.10569e+06
          4.10029e+06 4.09497e+06 4.08974e+06 4.08459e+06 4.07952e+06 4.07453e+06 4.06961e+06 4.06477e+06 4.05999e+06 4.05528e+06 4.05064e+06 4.04605e+06
          4.04153e+06 4.03706e+06 4.03264e+06 4.02827e+06 4.02394e+06 4.01966e+06 4.01542e+06 4.01122e+06 4.00705e+06 4.00291e+06 3.9988e+06 3.99472e+06