<?xml version="1.0"?>
<VTKFile type="UnstructuredGrid" version="0.1" byte_order="LittleEndian">
  <UnstructuredGrid>
    <Piece NumberOfCells="3667" NumberOfPoints="3794">
      <CellData Scalars="S_liq">
        <DataArray type="Float32" Name="S_liq" NumberOfComponents="1" format="ascii">
          0.509988 0.541142 0.475164 0.545846 0.524567 0.565178 0.581289 0.596014 0.568013 0.491472 0.386726 0.446755
          0.370135 0.491557 0.528191 0.586679 0.554648 0.576307 0.61358 0.631687 0.650386 0.670347 0.697029 0.746177
          0.606575 0.646276 0.628189 0.597413 0.660755 0.67802 0.708313 0.667629 0.652275 0.682337 0.436883 0.343088
          0.485416 0.519764 0.413047 0.547659 0.570677 0.345278 0.449319 0.493506 0.384897 0.509765 0.525104 0.550342
          0.572508 0.538576 0.560269 0.618335 0.630461 0.592047 0.656839 0.635289 0.696686 0.612071 0.623188 0.592312
          0.611327 0.645438 0.66482 0.633049 0.674946 0.895471 1 1 1 1 0.800365 0.975199
          1 1 1 1 1 1 1 1 1 1 1 1
          1 1 1 1 1 1 1 1 1 1 1 1
          0.774405 0.941782 0.975491 1 1 0.708037 0.7939 0.741026 0.864261 1 1 1
          1 1 1 1 1 1 1 1 1 1 1 0.469792
          0.405661 0.474233 0.506413 0.535782 0.580526 0.558498 0.57246 0.588463 0.516395 0.548411 0.419186 0.485845
          0.572903 0.584535 0.595752 0.597304 0.611994 0.621484 0.601559 0.62042 0.628742 0.640481 0.657246 0.670663
          0.613652 0.62341 0.635442 0.606143 0.61581 0.627492 0.649303 0.644778 0.667284 0.410059 0.526322 0.475294
          0.510825 0.559638 0.575784 0.536712 0.555467 0.570252 0.378121 0.443456 0.510075 0.386588 0.479727 0.532
          0.552062 0.524701 0.568833 0.587766 0.599347 0.611175 0.64308 0.620376 0.66542 0.585932 0.59956 0.611703
          0.586607 0.602614 0.619442 0.62496 0.646396 0.672331 0.703662 0.762456 0.696601 0.918378 1 1
          1 0.744 0.866676 0.691889 0.731109 1 1 1 1 1 1 1
          1 1 1 1 1 0.684018 0.827926 0.70975 0.779399 1 1 1
          0.940475 1 0.692979 0.754233 1 0.867753 1 1 1 1 1 1
          1 1 1 1 1 1 1 1 1 1 1 1
          1 1 1 1 1 1 1 1 1 1 1 1
          1 1 1 1 1 1 1 1 1 1 1 1
          1 1 1 1 1 1 1 1 1 1 1 1
          1 1 1 1 1 1 1 1 1 1 1 1
          1 1 1 1 1 1 1 1 1 1 1 1
          1 1 1 1 1 1 1 1 1 1 1 1
          1 1 1 1 1 1 1 1 1 1 1 1
          1 1 1 1 1 1 1 1 1 1 1 1
          1 1 1 1 1 1 1 1 1 1 1 1
          1 1 1 1 1 1 1 1 1 1 1 1
          1 1 1 1 1 1 1 1 1 1 1 1
          1 1 1 1 1 1 1 1 1 1 1 1
          1 1 1 1 1 1 1 1 1 1 1 1
          1 1 1 1 1 1 1 1 1 1 1 1
          1 1 1 1 1 1 1 1 1 1 1 1
          1 1 1 1 1 1 1 1 1 1 1 1
          1 1 1 1 1 1 1 1 1 1 1 1
          1 1 1 1 1 1 1 1 1 1 0.456402 0.506567
          0.404102 0.484005 0.52036 0.548335 0.5684 0.546932 0.45331 0.386099 0.490909 0.44587 0.35088 0.486902
          0.569361 0.519969 0.545836 0.568638 0.588959 0.608526 0.628843 0.636725 0.6595 0.65101 0.590982 0.612484
          0.590609 0.633649 0.678238 0.658433 0.686521 0.415841 0.352209 0.443818 0.488689 0.520791 0.542826 0.563848
          0.552014 0.384268 0.459357 0.493253 0.405265 0.528739 0.578486 0.613165 0.633813 0.586578 0.609061 0.657912
          0.679563 0.628811 0.601877 0.621073 0.647726 0.678885 0.659577 0.691555 0.741684 0.840286 0.999482 1
          1 0.952361 1 1 0.72582 0.798577 0.737981 0.942265 1 1 1 1
          1 1 1 1 1 1 1 1 1 1 1 1
          1 1 0.79538 0.708219 0.745483 0.875569 1 1 1 0.707667 0.771383 0.700213
          0.947518 1 1 1 1 1 1 1 1 1 1 1
          1 1 1 1 1 1 1 1 1 0.441317 0.484019 0.517759
          0.477752 0.491403 0.549519 0.548568 0.580904 0.515399 0.505679 0.563982 0.577163 0.604242 0.586748 0.604617
          0.624697 0.635074 0.647825 0.639463 0.68991 0.625575 0.645496 0.679971 0.66612 0.706295 0.69357 0.723986
          0.527138 0.534739 0.574274 0.550447 0.584681 0.611333 0.618022 0.593401 0.611868 0.546344 0.565708 0.563088
          0.596218 0.606418 0.626727 0.623721 0.62735 0.637165 0.640096 0.659076 0.680837 0.713641 0.783429 0.632157
          0.656081 0.67599 0.645893 0.671101 0.696649 0.702703 0.754229 0.910997 0.737865 0.841213 1 0.746592
          0.90058 1 1 1 1 0.858998 1 0.982408 1 1 1 1
          1 1 1 1 1 1 1 1 1 1 1 1
          1 1 1 1 1 1 1 1 1 1 1 1
          1 1 1 1 1 1 1 1 1 1 1 1
          1 1 1 1 1 1 1 1 1 1 1 1
          1 1 1 1 1 1 1 1 1 1 1 1
          1 1 1 1 1 1 1 1 1 1 1 1
          1 1 1 1 1 1 1 1 1 1 1 1
          1 1 1 1 1 1 1 1 1 1 1 1
          1 1 1 1 1 1 1 1 1 1 1 1
          1 1 1 1 1 1 1 1 1 1 1 1
          1 1 1 1 1 1 1 1 1 1 1 1
          1 1 1 1 1 1 1 1 1 1 1 1
          1 1 1 1 1 1 1 1 1 1 1 1
          1 1 1 1 1 1 1 1 1 1 1 1
          1 1 1 1 1 1 1 1 1 1 1 1
          1 1 1 1 1 1 1 1 1 1 1 1
          1 1 1 1 1 1 1 1 1 1 1 1
          1 1 1 1 1 1 1 1 1 1 1 1
          1 1 1 1 1 1 1 1 1 1 1 1
          1 1 1 1 1 1 1 1 1 1 1 1
          1 1 1 1 1 1 1 1 1 1 1 1
          1 1 1 1 1 1 1 1 1 1 1 1
          1 1 1 1 1 1 1 1 1 1 1 1
          1 1 1 1 1 1 1 1 1 1 1 1
          1 1 1 1 1 1 1 1 1 1 1 1
          1 1 1 1 1 1 1 1 1 1 1 1
          1 1 1 1 1 1 1 1 1 1 1 1
          1 1 1 1 1 1 1 1 1 1 1 1
          1 1 1 1 1 1 1 1 1 1 1 1
          1 1 1 1 1 1 1 1 1 1 1 1
          1 1 1 1 1 1 1 1 1 1 1 1
          1 1 1 1 1 1 1 1 1 1 1 1
          1 1 1 1 1 1 1 1 1 1 1 1
          1 1 1 1 1 1 1 1 1 1 1 1
          1 1 1 1 1 1 1 1 1 1 1 1
          1 1 1 1 1 1 1 1 1 1 1 1
          1 1 1 1 1 1 1 1 1 1 1 1
          1 1 1 1 1 1 1 1 1 1 1 1
          1 1 1 1 1 1 1 1 1 1 1 1
          1 1 1 1 1 1 1 1 1 1 1 1
          1 1 1 1 1 1 1 1 1 1 1 1
          1 1 1 1 1 1 1 1 1 1 1 1
          1 1 1 1 1 1 1 1 1 1 1 1
          1 1 1 1 1 1 1 1 1 1 1 1
          1 1 1 1 1 1 1 1 1 1 1 1
          1 1 1 1 1 1 1 1 1 1 1 1
          1 1 1 1 1 1 1 1 1 1 1 1
          1 1 1 1 1 1 1 1 1 1 1 1
          1 1 1 1 1 1 1 1 1 1 1 1
          1 1 1 1 1 1 1 1 1 1 1 1
          1 1 1 1 1 1 1 1 1 1 1 1
          1 1 1 1 1 1 1 1 1 1 1 1
          1 1 1 1 1 1 1 1 1 1 1 1
          1 1 1 1 1 1 1 1 1 1 1 1
          1 1 1 1 1 1 1 1 1 1 1 1
          1 1 1 1 1 1 1 1 1 1 1 1
          1 1 1 1 1 1 1 1 1 1 1 1
          1 1 1 1 1 1 1 1 1 1 1 1
          1 1 1 1 1 1 1 1 1 1 1 1
          1 1 1 1 1 1 1 1 1 1 1 1
          1 1 1 1 1 1 1 1 1 1 1 1
          1 1 1 1 1 1 1 1 1 1 1 1
          1 1 1 1 1 1 1 1 1 1 1 1
          1 1 1 1 1 1 1 1 1 1 1 1
          1 1 1 1 1 1 1 1 1 1 1 1
          1 1 1 1 1 1 1 1 1 1 1 1
          1 1 1 1 1 1 1 1 1 1 1 1
          1 1 1 1 1 1 1 1 1 1 1 1
          1 1 1 1 1 1 1 1 1 1 1 1
          1 1 1 1 1 1 1 1 1 1 1 1
          1 1 1 1 1 1 1 1 1 1 1 1
          1 1 1 1 1 1 1 1 1 1 1 1
          1 1 1 1 1 1 1 1 1 1 1 1
          1 1 1 1 1 1 1 1 1 1 1 1
          1 1 1 1 1 1 1 1 1 1 1 1
          1 1 1 1 1 1 1 1 1 1 1 1
          1 1 1 1 1 1 1 1 1 1 1 1
          1 1 1 1 1 1 1 1 1 1 1 1
          1 1 1 1 1 1 1 1 1 1 1 1
          1 1 1 1 1 1 1 1 1 1 1 1
          1 1 1 1 1 1 1 1 1 1 1 1
          1 1 1 1 1 1 1 1 1 1 1 1
          1 1 1 1 1 1 1 1 1 1 1 1
          1 1 1 1 1 1 1 1 1 1 1 1
          1 1 1 1 1 1 1 1 1 1 1 1
          1 1 1 1 1 1 1 1 1 1 1 1
          1 1 1 1 1 1 1 1 1 1 1 1
          1 1 1 1 1 1 1 1 1 1 1 1
          1 1 1 1 1 1 1 1 1 1 1 1
          1 1 1 1 1 1 1 1 1 1 1 1
          1 1 1 1 1 1 1 1 1 1 1 1
          1 1 1 1 1 1 1 1 1 1 1 1
          1 1 1 1 1 1 1 1 1 1 1 1
          1 1 1 1 1 1 1 1 1 1 1 1
          1 1 1 1 1 1 1 1 1 1 1 1
          1 1 1 1 1 1 1 1 1 1 1 1
          1 1 1 1 1 1 1 1 1 1 1 1
          1 1 1 1 1 1 1 1 1 1 1 1
          1 1 1 1 1 1 1 1 1 1 1 1
          1 1 1 1 1 1 1 1 0.578836 0.60516 0.578821 0.591627
          0.637814 0.645879 0.634598 0.649717 0.658426 0.592371 0.612681 0.601165 0.612456 0.644897 0.66503 0.683476
          0.658699 0.688289 0.73209 0.81542 0.983888 1 0.670163 0.699732 0.698423 0.778228 0.836177 0.980651
          1 1 1 0.675934 0.670998 0.732465 0.75218 0.738946 0.722186 0.787939 0.830355 0.878558
          0.906641 0.898726 1 0.995539 1 1 0.77498 1 0.986126 0.956117 1 1
          1 1 1 1 1 1 1 1 1 1 1 1
          1 1 1 1 1 1 1 1 1 1 1 1
          1 1 1 1 1 1 1 1 1 1 1 1
          1 1 1 1 1 1 1 1 1 1 1 1
          1 1 1 1 1 1 1 1 1 1 1 1
          1 1 1 1 1 1 1 1 1 1 1 1
          1 1 1 1 1 1 1 1 1 1 1 1
          1 1 1 1 1 1 1 1 1 1 1 1
          1 1 1 1 1 1 1 1 1 1 1 1
          1 1 1 1 1 1 1 1 1 1 1 1
          1 1 1 1 1 1 1 1 1 1 1 1
          1 1 1 1 1 1 1 1 1 1 1 1
          1 1 1 1 1 1 1 1 1 1 1 1
          1 1 1 1 1 1 1 1 1 1 1 1
          1 1 1 1 1 1 1 1 1 1 1 1
          1 1 1 1 1 1 1 1 1 1 1 1
          1 1 1 1 1 1 1 1 1 1 1 1
          1 1 1 1 1 1 1 1 1 1 1 1
          1 1 1 1 1 1 1 1 1 1 1 1
          1 1 1 1 1 1 1 1 1 1 1 1
          1 1 1 1 1 1 1 1 1 1 1 1
          1 1 1 1 1 1 1 1 1 1 1 1
          1 1 1 1 1 1 1 1 1 1 1 1
          1 1 1 1 1 1 1 1 1 1 1 1
          1 1 1 1 1 1 1 1 1 1 1 1
          1 1 1 1 1 1 1 1 1 1 1 1
          1 1 1 1 1 1 1 1 1 1 1 1
          1 1 1 1 1 1 1 1 1 1 1 1
          1 1 1 1 1 1 1 1 1 1 1 1
          1 1 1 1 1 1 1 1 1 1 1 1
          1 1 1 1 1 1 1 1 1 1 1 1
          1 1 1 1 1 1 1 1 1 1 1 1
          1 1 1 1 1 1 1 1 1 1 1 1
          1 1 1 1 1 1 1 1 1 1 1 1
          1 1 1 1 1 1 1 1 1 1 1 1
          1 1 1 1 1 1 1 1 1 1 1 1
          1 1 1 1 1 1 1 1 1 1 1 1
          1 1 1 1 1 1 1 1 1 1 1 1
          1 1 1 1 1 1 1 1 1 1 1 1
          1 1 1 1 1 1 1 1 1 1 1 1
          1 1 1 1 1 1 1 1 1 1 1 1
          1 1 1 1 1 1 1 1 1 1 1 1
          1 1 1 1 1 1 1 1 1 1 1 1
          1 1 1 1 1 1 1 1 1 1 1 1
          1 1 1 1 1 1 1 1 1 1 1 1
          1 1 1 1 1 1 1 1 1 1 1 1
          1 1 1 1 1 1 1 1 1 1 1 1
          1 1 1 1 1 1 1 1 1 1 1 1
          1 1 1 1 1 1 1 1 1 1 1 1
          1 1 1 1 1 1 1 1 1 1 1 1
          1 1 1 1 1 1 1 1 1 1 1 1
          1 1 1 1 1 1 1 1 1 1 1 1
          1 1 1 1 1 1 1 1 1 1 1 1
          1 1 1 1 1 1 1 1 1 1 1 1
          1 1 1 1 1 1 1 1 1 1 1 1
          1 1 1 1 1 1 1 1 1 1 1 1
          1 1 1 1 1 1 1 1 1 1 1 1
          1 1 1 1 1 1 1 1 1 1 1 1
          1 1 1 1 1 1 1 1 1 1 1 1
          1 1 1 1 1 1 1 1 1 1 1 1
          1 1 1 1 1 1 1 1 1 1 1 1
          1 1 1 1 1 1 1 1 1 1 1 1
          1 1 1 1 1 1 1 1 1 1 1 1
          1 1 1 1 1 1 1 1 1 1 1 1
          1 1 1 1 1 1 1 1 1 1 1 1
          1 1 1 1 1 1 1 1 1 1 1 1
          1 1 1 1 1 1 1 1 1 1 1 1
          1 1 1 1 1 1 1 1 1 1 1 1
          1 1 1 1 1 1 1 1 1 1 1 1
          1 1 1 1 1 1 1 1 1 1 1 1
          1 1 1 1 1 1 1 1 1 1 1 1
          1 1 1 1 1 1 1 1 1 1 1 1
          1 1 1 1 1 1 1 1 1 1 1 1
          1 1 1 1 1 1 1 1 1 1 1 1
          1 1 1 1 1 1 1 1 1 1 1 1
          1 1 1 1 1 1 1 1 1 1 1 1
          1 1 1 1 1 1 1 1 1 1 1 1
          1 1 1 1 1 1 1 1 1 1 1 1
          1 1 1 1 1 1 1 1 1 1 1 1
          1 1 1 1 1 1 1 1 1 1 1 1
          1 1 1 1 1 1 1 1 1 1 1 1
          1 1 1 1 1 1 1 1 1 1 1 1
          1 1 1 1 1 1 1 1 1 1 1 1
          1 1 1 1 1 1 1 1 1 1 1 1
          1 1 1 1 1 1 1 1 1 1 1 1
          1 1 1 1 1 1 1 1 1 1 1 1
          1 1 1 1 1 1 1 1 1 1 1 1
          1 1 1 1 1 1 1 1 1 1 1 1
          1 1 1 1 1 1 1 1 1 1 1 1
          1 1 1 1 1 1 1 1 1 1 1 1
          1 1 1 1 1 1 1 1 1 1 1 1
          1 1 1 1 1 1 1 1 1 1 1 1
          1 1 1 1 1 1 1 1 1 1 1 1
          1 1 1 1 1 1 1 1 1 1 1 1
          1 1 1 1 1 1 1 1 1 1 1 1
          1 1 1 1 1 1 1 1 1 1 1 1
          1 1 1 1 1 1 1 1 1 1 1 1
          1 1 1 1 1 1 1 1 1 1 1 1
          1 1 1 1 1 1 1 1 1 1 1 1
          1 1 1 1 1 1 1 1 1 1 1 1
          1 1 1 1 1 1 1 1 1 1 1 1
          1 1 1 1 1 1 1 1 1 1 1 1
          1 1 1 1 1 1 1 1 1 1 1 1
          1 1 1 1 1 1 1 1 1 1 1 1
          1 1 1 1 1 1 1 1 1 1 1 1
          1 1 1 1 1 1 1 1 1 1 1 1
          1 1 1 1 1 1 1 1 1 1 1 1
          1 1 1 1 1 1 1 1 1 1 1 1
          1 1 1 1 1 1 1 1 1 1 1 1
          1 1 1 1 1 1 1 1 1 1 1 1
          1 1 1 1 1 1 1 1 1 1 1 1
          1 1 1 1 1 1 1 1 1 1 1 1
          1 1 1 1 1 1 1 1 1 1 1 1
          1 1 1 1 1 1 1 1 1 1 1 1
          1 1 1 1 1 1 1 1 1 1 1 1
          1 1 1 1 1 1 1 1 1 1 1 1
          1 1 1 1 1 1 1 1 1 1 1 1
          1 1 1 1 1 1 1 1 1 1 1 1
          1 1 1 1 1 1 1 1 1 1 1 1
          1 1 1 1 1 1 1 1 1 1 1 1
          1 1 1 1 1 1 1 1 1 1 1 1
          1 1 1 1 1 1 1 1 1 1 1 1
          1 1 1 1 1 1 1 1 1 1 1 1
          1 1 1 1 1 1 1 1 1 1 1 1
          1 1 1 1 1 1 1 1 1 1 1 1
          1 1 1 1 1 1 1 1 1 1 1 1
          1 1 1 1 1 1 1 1 1 1 1 1
          1 1 1 1 1 1 1 1 1 1 1 1
          1 1 1 1 1 1 1 1 1 1 1 1
          1 1 1 1 1 1 1 1 1 1 1 1
          1 1 1 1 1 1 1 1 1 1 1 1
          1 1 1 1 1 1 1 1 1 1 1 1
          1 1 1 1 1 1 1 1 1 1 1 1
          1 1 1 1 1 1 1 1 1 1 1 1
          1 1 1 1 1 1 1 1 1 1 1 1
          1 1 1 1 1 1 1 1 1 1 1 1
          1 1 1 1 1 1 1 1 1 1 1 1
          1 1 1 1 1 1 1 1 1 1 1 1
          1 1 1 1 1 1 1 1 1 1 1 1
          1 1 1 1 1 1 1 1 1 1 1 1
          1 1 1 1 1 1 1 1 1 1 1 1
          1 1 1 1 1 1 1 1 1 1 1 1
          1 1 1 1 1 1 1 1 1 1 1 1
          1 1 1 1 1 1 1 1 1 1 1 1
          1 1 1 1 1 1 1 1 1 1 1 1
          1 1 1 1 1 1 1 1 1 1 1 1
          1 1 1 1 1 1 1 1 1 1 1 1
          1 1 1 1 1 1 1
        </DataArray>
        <DataArray type="Float32" Name="p_liq" NumberOfComponents="1" format="ascii">
          4.40813e+07 4.39405e+07 4.42086e+07 4.37817e+07 4.39525e+07 4.37086e+07 4.33998e+07 4.30627e+07 4.34571e+07 4.41056e+07 4.43651e+07 4.42284e+07
          4.44776e+07 4.40651e+07 4.38559e+07 4.30797e+07 4.35147e+07 4.31176e+07 4.26678e+07 4.22257e+07 4.17846e+07 4.13171e+07 4.08032e+07 4.02011e+07
          4.26626e+07 4.16807e+07 4.21799e+07 4.26906e+07 4.12554e+07 4.08296e+07 4.02766e+07 4.10257e+07 4.13796e+07 4.05934e+07 4.4331e+07 4.45608e+07
          4.41074e+07 4.38476e+07 4.44642e+07 4.3529e+07 4.31476e+07 4.45714e+07 4.43428e+07 4.41076e+07 4.45108e+07 4.40377e+07 4.38333e+07 4.353e+07
          4.317e+07 4.37808e+07 4.35045e+07 4.21929e+07 4.16824e+07 4.27265e+07 4.09967e+07 4.13313e+07 4.00714e+07 4.22326e+07 4.17298e+07 4.27771e+07
          4.23258e+07 4.10597e+07 4.06114e+07 4.15172e+07 4.02103e+07 3.93524e+07 3.84579e+07 3.79538e+07 3.75616e+07 3.72153e+07 3.94012e+07 3.84191e+07
          3.78995e+07 3.7489e+07 3.7813e+07 3.73919e+07 3.66591e+07 3.69199e+07 3.63806e+07 3.71243e+07 3.68053e+07 3.65545e+07 3.56988e+07 3.53465e+07
          3.4984e+07 3.60531e+07 3.55853e+07 3.52955e+07 3.49569e+07 3.63364e+07 3.66387e+07 3.70025e+07 3.58291e+07 3.55691e+07 3.60617e+07 3.52635e+07
          3.92846e+07 3.83489e+07 3.81805e+07 3.77147e+07 3.7278e+07 3.96675e+07 3.90016e+07 3.93029e+07 3.87151e+07 3.71615e+07 3.8031e+07 3.76078e+07
          3.68544e+07 3.64268e+07 3.5655e+07 3.52593e+07 3.57023e+07 3.52468e+07 3.67077e+07 3.62254e+07 3.61106e+07 3.56443e+07 3.51954e+07 4.42464e+07
          4.44257e+07 4.43016e+07 4.4156e+07 4.39632e+07 4.31759e+07 4.37082e+07 4.34631e+07 4.31926e+07 4.41071e+07 4.38912e+07 4.43512e+07 4.41112e+07
          4.35976e+07 4.33048e+07 4.29691e+07 4.282e+07 4.24193e+07 4.1873e+07 4.28748e+07 4.20352e+07 4.16697e+07 4.12707e+07 4.07562e+07 4.05292e+07
          4.24863e+07 4.20637e+07 4.16092e+07 4.25532e+07 4.21001e+07 4.1594e+07 4.11035e+07 4.09798e+07 4.0395e+07 4.43454e+07 4.38432e+07 4.41045e+07
          4.37923e+07 4.34942e+07 4.30536e+07 4.34464e+07 4.30689e+07 4.26583e+07 4.4313e+07 4.41255e+07 4.36741e+07 4.42071e+07 4.38831e+07 4.3395e+07
          4.30629e+07 4.34488e+07 4.26734e+07 4.26162e+07 4.21583e+07 4.16759e+07 4.07758e+07 4.12125e+07 4.02334e+07 4.22161e+07 4.17722e+07 4.13591e+07
          4.2253e+07 4.18125e+07 4.1366e+07 4.09614e+07 4.05311e+07 3.99577e+07 3.96961e+07 3.91515e+07 3.98682e+07 3.85207e+07 3.70441e+07 3.79148e+07
          3.74903e+07 3.92107e+07 3.85158e+07 3.98484e+07 3.92391e+07 3.78104e+07 3.69127e+07 3.73616e+07 3.6583e+07 3.60053e+07 3.55679e+07 3.51326e+07
          3.64566e+07 3.63349e+07 3.59038e+07 3.54847e+07 3.50642e+07 3.97807e+07 3.85494e+07 3.92809e+07 3.86466e+07 3.7739e+07 3.7225e+07 3.67761e+07
          3.7812e+07 3.70028e+07 3.94831e+07 3.87635e+07 3.72941e+07 3.79329e+07 3.73554e+07 3.70889e+07 3.68152e+07 3.62111e+07 3.66126e+07 3.58045e+07
          3.54067e+07 3.49959e+07 3.64652e+07 3.60908e+07 3.57037e+07 3.53284e+07 3.49254e+07 3.52632e+07 3.49163e+07 3.4636e+07 3.42743e+07 3.38858e+07
          3.46176e+07 3.34647e+07 3.29926e+07 3.42805e+07 3.493e+07 3.4598e+07 3.43106e+07 3.40223e+07 3.38908e+07 3.3437e+07 3.29557e+07 3.25857e+07
          3.22464e+07 3.19425e+07 3.16501e+07 3.13542e+07 3.10365e+07 3.19268e+07 3.12477e+07 3.24973e+07 3.21834e+07 3.20023e+07 3.22455e+07 3.16152e+07
          3.09769e+07 3.16628e+07 3.48876e+07 3.45367e+07 3.42466e+07 3.48354e+07 3.44433e+07 3.40803e+07 3.37332e+07 3.33787e+07 3.29638e+07 3.31535e+07
          3.47656e+07 3.4331e+07 3.38911e+07 3.35073e+07 3.27765e+07 3.33397e+07 3.25316e+07 3.18668e+07 3.12434e+07 3.14351e+07 3.21411e+07 3.23968e+07
          3.18888e+07 3.10771e+07 3.14827e+07 3.11318e+07 3.08622e+07 3.03108e+07 2.99373e+07 3.06849e+07 2.95601e+07 2.91874e+07 2.91139e+07 3.01788e+07
          3.0419e+07 3.01492e+07 2.98716e+07 2.95107e+07 2.9834e+07 2.90522e+07 2.94662e+07 2.88451e+07 2.85353e+07 2.8732e+07 2.82161e+07 2.79223e+07
          2.75993e+07 2.76868e+07 2.84729e+07 2.8645e+07 2.81896e+07 2.7927e+07 2.729e+07 2.77242e+07 2.73357e+07 3.06195e+07 3.02101e+07 3.08708e+07
          2.9832e+07 2.94469e+07 2.90288e+07 3.06023e+07 3.02158e+07 2.98342e+07 3.04657e+07 3.019e+07 2.98573e+07 2.94368e+07 2.90241e+07 2.86282e+07
          2.8375e+07 2.81765e+07 2.79858e+07 2.77163e+07 2.73205e+07 2.84353e+07 2.86572e+07 2.81841e+07 2.79084e+07 2.76216e+07 2.72454e+07 3.47104e+07
          3.42783e+07 3.38507e+07 3.3642e+07 3.29472e+07 3.33737e+07 3.30736e+07 3.46683e+07 3.42813e+07 3.39329e+07 3.35071e+07 3.32094e+07 3.27101e+07
          3.35951e+07 3.3244e+07 3.29395e+07 3.21148e+07 3.18094e+07 3.25567e+07 3.22028e+07 3.14655e+07 3.10865e+07 3.18269e+07 3.22797e+07 3.18568e+07
          3.14613e+07 3.10664e+07 3.14793e+07 3.111e+07 3.42587e+07 3.46153e+07 3.39812e+07 3.37279e+07 3.41897e+07 3.39353e+07 3.31327e+07 3.34882e+07
          3.27437e+07 3.4527e+07 3.38016e+07 3.4081e+07 3.43414e+07 3.40485e+07 3.36797e+07 3.29944e+07 3.26215e+07 3.33349e+07 3.22947e+07 3.18583e+07
          3.07645e+07 3.14784e+07 3.11316e+07 3.08507e+07 3.22241e+07 3.18225e+07 3.11131e+07 3.08354e+07 3.14534e+07 3.07189e+07 3.0274e+07 3.04545e+07
          2.9986e+07 2.94284e+07 2.90269e+07 2.93608e+07 2.89791e+07 3.06485e+07 3.01445e+07 2.98536e+07 3.02871e+07 2.96902e+07 2.95772e+07 2.92774e+07
          2.89126e+07 2.86996e+07 2.84229e+07 2.86312e+07 2.82792e+07 2.79612e+07 2.74029e+07 2.85438e+07 2.81329e+07 2.77381e+07 2.72257e+07 2.74633e+07
          3.04126e+07 2.99422e+07 3.00193e+07 2.9594e+07 2.92489e+07 2.88711e+07 3.05976e+07 3.04042e+07 3.00463e+07 2.96246e+07 2.92417e+07 2.96612e+07
          2.88478e+07 2.84805e+07 2.80382e+07 2.71558e+07 2.75766e+07 2.71649e+07 2.84475e+07 2.80237e+07 2.75963e+07 2.71604e+07 4.40132e+07 4.36317e+07
          4.40284e+07 4.37862e+07 4.34043e+07 4.30834e+07 4.26809e+07 4.30552e+07 4.38282e+07 4.40146e+07 4.36321e+07 4.38189e+07 4.40036e+07 4.35394e+07
          4.26606e+07 4.32581e+07 4.29624e+07 4.26091e+07 4.22645e+07 4.18145e+07 4.13415e+07 4.08773e+07 4.03522e+07 4.08104e+07 4.22569e+07 4.18035e+07
          4.22253e+07 4.13143e+07 4.0226e+07 4.07613e+07 4.01446e+07 4.38618e+07 4.39487e+07 4.36324e+07 4.33659e+07 4.30844e+07 4.28484e+07 4.25576e+07
          4.25978e+07 4.38138e+07 4.34288e+07 4.30756e+07 4.3664e+07 4.27915e+07 4.21552e+07 4.17788e+07 4.12897e+07 4.21898e+07 4.17531e+07 4.07232e+07
          4.00481e+07 4.12959e+07 4.17116e+07 4.12947e+07 4.08066e+07 3.98044e+07 4.02968e+07 3.96663e+07 3.87964e+07 3.7928e+07 3.73143e+07 3.70011e+07
          3.669e+07 3.7701e+07 3.72643e+07 3.69308e+07 3.94699e+07 3.85254e+07 3.94012e+07 3.79383e+07 3.71692e+07 3.68758e+07 3.7455e+07 3.69249e+07
          3.63407e+07 3.59766e+07 3.65947e+07 3.62349e+07 3.58638e+07 3.56013e+07 3.50875e+07 3.5463e+07 3.47248e+07 3.65355e+07 3.61586e+07 3.57715e+07
          3.53506e+07 3.48745e+07 3.85172e+07 3.93619e+07 3.86958e+07 3.80128e+07 3.74801e+07 3.71591e+07 3.68842e+07 3.92487e+07 3.86238e+07 3.9353e+07
          3.78246e+07 3.71439e+07 3.68003e+07 3.7251e+07 3.65106e+07 3.61001e+07 3.57053e+07 3.64935e+07 3.53126e+07 3.49247e+07 3.52496e+07 3.45399e+07
          3.49295e+07 3.60636e+07 3.56268e+07 3.64618e+07 3.60465e+07 3.54818e+07 3.463e+07 3.4829e+07 3.51144e+07 4.29672e+07 4.29442e+07 4.26605e+07
          4.19525e+07 4.24081e+07 4.23466e+07 4.24274e+07 4.20522e+07 4.16736e+07 4.06372e+07 4.16221e+07 4.21289e+07 4.18303e+07 4.12696e+07 4.16266e+07
          4.12332e+07 4.09185e+07 4.06104e+07 4.08882e+07 3.99319e+07 4.14664e+07 4.10965e+07 4.03814e+07 4.07237e+07 3.89585e+07 3.94404e+07 3.82308e+07
          3.91661e+07 4.04873e+07 4.03325e+07 3.90698e+07 3.89642e+07 3.99531e+07 4.0565e+07 4.00785e+07 3.92488e+07 3.76406e+07 3.75272e+07 3.61e+07
          3.74066e+07 3.89206e+07 3.84041e+07 3.74201e+07 3.78689e+07 3.7109e+07 4.04857e+07 4.01523e+07 3.9607e+07 3.85778e+07 3.76329e+07 3.87113e+07
          3.87072e+07 3.84142e+07 3.71982e+07 3.70858e+07 3.67486e+07 3.78917e+07 3.71129e+07 3.62188e+07 3.62517e+07 3.55065e+07 3.46953e+07 3.85221e+07
          3.77865e+07 3.6835e+07 3.65038e+07 3.72345e+07 3.68146e+07 3.80711e+07 3.7718e+07 3.77171e+07 3.75444e+07 3.72771e+07 3.64818e+07 3.66555e+07
          3.69203e+07 3.57898e+07 3.62133e+07 3.48914e+07 3.46487e+07 3.51014e+07 3.44733e+07 3.46917e+07 3.62467e+07 3.54932e+07 3.5647e+07 3.56265e+07
          3.47878e+07 3.48273e+07 3.42193e+07 3.41203e+07 3.72217e+07 3.68246e+07 3.57296e+07 3.57318e+07 3.46349e+07 3.61796e+07 3.55079e+07 3.49335e+07
          3.45774e+07 3.43662e+07 3.36072e+07 3.35945e+07 3.45942e+07 3.47051e+07 3.46484e+07 3.40939e+07 3.38183e+07 3.33501e+07 3.34359e+07 3.35507e+07
          3.3424e+07 3.25483e+07 3.23917e+07 3.31181e+07 3.27924e+07 3.26013e+07 3.21944e+07 3.19831e+07 3.4542e+07 3.41488e+07 3.37685e+07 3.32267e+07
          3.35214e+07 3.28981e+07 3.32329e+07 3.28248e+07 3.4323e+07 3.44608e+07 3.39745e+07 3.36488e+07 3.34078e+07 3.30724e+07 3.27125e+07 3.25292e+07
          3.21474e+07 3.17628e+07 3.24332e+07 3.20571e+07 3.13953e+07 3.07209e+07 3.10424e+07 3.16863e+07 3.23371e+07 3.1971e+07 3.16062e+07 3.13325e+07
          3.0964e+07 3.1278e+07 3.09529e+07 3.41233e+07 3.38645e+07 3.41579e+07 3.36741e+07 3.25494e+07 3.33634e+07 3.2802e+07 3.24761e+07 3.40419e+07
          3.43727e+07 3.38676e+07 3.30241e+07 3.34454e+07 3.24532e+07 3.2231e+07 3.18798e+07 3.14952e+07 3.11257e+07 3.0579e+07 3.08063e+07 3.21535e+07
          3.18121e+07 3.20908e+07 3.17849e+07 3.14161e+07 3.09619e+07 3.04976e+07 3.06072e+07 3.02921e+07 3.05798e+07 3.00285e+07 2.92684e+07 2.9702e+07
          2.88565e+07 3.0109e+07 2.97957e+07 3.03271e+07 2.93131e+07 2.88822e+07 2.94042e+07 2.8426e+07 2.80056e+07 2.75965e+07 2.71966e+07 2.68326e+07
          2.79744e+07 2.8398e+07 2.75899e+07 2.72637e+07 2.72238e+07 2.70047e+07 2.99637e+07 3.02349e+07 2.89835e+07 2.9501e+07 2.90798e+07 2.99767e+07
          2.95106e+07 3.03151e+07 2.87611e+07 2.9109e+07 2.87669e+07 2.82901e+07 2.78988e+07 2.86307e+07 2.78149e+07 2.75338e+07 2.67508e+07 2.74446e+07
          2.70809e+07 2.84814e+07 2.81778e+07 2.81048e+07 2.84348e+07 2.77368e+07 2.73527e+07 2.6953e+07 3.419e+07 3.34425e+07 3.36923e+07 3.28786e+07
          3.22313e+07 3.3939e+07 3.27846e+07 3.30234e+07 3.26012e+07 3.20612e+07 3.14416e+07 3.19907e+07 3.17821e+07 3.1591e+07 3.10035e+07 3.05922e+07
          3.18632e+07 3.17106e+07 3.10612e+07 3.11038e+07 3.05152e+07 3.004e+07 3.32067e+07 3.21883e+07 3.19595e+07 3.16679e+07 3.2401e+07 3.1809e+07
          3.15644e+07 3.13237e+07 3.1155e+07 3.09195e+07 3.1321e+07 3.06825e+07 3.03712e+07 2.9934e+07 3.00753e+07 2.96454e+07 3.05844e+07 3.01309e+07
          2.96266e+07 2.89999e+07 2.92453e+07 3.02351e+07 2.94204e+07 2.98511e+07 2.90919e+07 2.8748e+07 2.99022e+07 2.95336e+07 2.92236e+07 2.91e+07
          2.92272e+07 2.90987e+07 2.87584e+07 2.90239e+07 2.86398e+07 2.76753e+07 2.83967e+07 2.80525e+07 2.72872e+07 2.68934e+07 2.66889e+07 2.63851e+07
          2.83061e+07 2.79094e+07 2.75105e+07 2.7245e+07 2.71126e+07 2.68678e+07 2.62933e+07 2.64791e+07 2.9443e+07 2.96339e+07 2.89684e+07 2.90359e+07
          2.92948e+07 2.87297e+07 2.88632e+07 2.86881e+07 2.81071e+07 2.83548e+07 2.79219e+07 2.89169e+07 2.85475e+07 2.87188e+07 2.82116e+07 2.85032e+07
          2.82272e+07 2.79662e+07 2.78593e+07 2.74771e+07 2.76391e+07 2.72774e+07 2.70026e+07 2.66454e+07 2.6274e+07 2.59567e+07 2.74082e+07 2.68734e+07
          2.64204e+07 2.69065e+07 2.60526e+07 2.57846e+07 2.72231e+07 2.68271e+07 2.64126e+07 2.60652e+07 2.55144e+07 2.57652e+07 2.56457e+07 2.69093e+07
          2.65834e+07 2.59113e+07 2.61203e+07 2.5857e+07 2.55493e+07 2.52968e+07 2.50273e+07 2.46991e+07 2.53873e+07 2.50932e+07 2.40584e+07 2.37392e+07
          2.43801e+07 2.36242e+07 2.47671e+07 2.51668e+07 2.48135e+07 2.42342e+07 2.45039e+07 2.39502e+07 2.41874e+07 2.38588e+07 2.69666e+07 2.62629e+07
          2.66858e+07 2.69563e+07 2.64493e+07 2.66806e+07 2.59035e+07 2.55478e+07 2.62672e+07 2.68848e+07 2.65729e+07 2.5922e+07 2.55653e+07 2.51895e+07
          2.48365e+07 2.45074e+07 2.4509e+07 2.41585e+07 2.37994e+07 2.52175e+07 2.48593e+07 2.44983e+07 2.37451e+07 2.41231e+07 2.34789e+07 2.32679e+07
          2.2995e+07 2.33506e+07 2.30242e+07 2.26643e+07 2.26719e+07 2.23398e+07 2.2015e+07 2.23163e+07 2.19922e+07 2.17175e+07 2.30503e+07 2.34894e+07
          2.26537e+07 2.16902e+07 2.22813e+07 2.1945e+07 2.17294e+07 2.14702e+07 2.12076e+07 2.09318e+07 2.14586e+07 2.11929e+07 2.0872e+07 2.06354e+07
          2.03388e+07 2.05295e+07 2.0041e+07 2.14621e+07 2.11984e+07 2.1566e+07 2.08445e+07 2.02988e+07 2.04807e+07 2.00338e+07 2.34171e+07 2.30077e+07
          2.26041e+07 2.22095e+07 2.18357e+07 2.21111e+07 2.17017e+07 2.33549e+07 2.29572e+07 2.29139e+07 2.25361e+07 2.24613e+07 2.19669e+07 2.12567e+07
          2.08817e+07 2.13098e+07 2.09755e+07 2.04985e+07 2.02294e+07 2.00432e+07 2.12164e+07 2.0664e+07 2.15526e+07 2.03386e+07 2.00593e+07 2.67585e+07
          2.64535e+07 2.7082e+07 2.61622e+07 2.58807e+07 2.5574e+07 2.58256e+07 2.60423e+07 2.55961e+07 2.53397e+07 2.69374e+07 2.66215e+07 2.63112e+07
          2.61314e+07 2.64824e+07 2.58747e+07 2.56908e+07 2.54751e+07 2.56538e+07 2.52546e+07 2.48956e+07 2.44883e+07 2.40938e+07 2.37101e+07 2.5026e+07
          2.51974e+07 2.44134e+07 2.4749e+07 2.40405e+07 2.36673e+07 2.36374e+07 2.68352e+07 2.67784e+07 2.63858e+07 2.60122e+07 2.58664e+07 2.5408e+07
          2.5616e+07 2.52391e+07 2.59584e+07 2.67112e+07 2.63046e+07 2.57569e+07 2.55543e+07 2.54356e+07 2.5213e+07 2.57175e+07 2.52833e+07 2.4906e+07
          2.46248e+07 2.43313e+07 2.49244e+07 2.39935e+07 2.39466e+07 2.32488e+07 2.36063e+07 2.45987e+07 2.42762e+07 2.49273e+07 2.45875e+07 2.42188e+07
          2.35863e+07 2.32476e+07 2.38997e+07 2.33153e+07 2.32816e+07 2.2898e+07 2.24753e+07 2.17546e+07 2.32633e+07 2.2894e+07 2.25123e+07 2.20671e+07
          2.21837e+07 2.18854e+07 2.13545e+07 2.09857e+07 2.07021e+07 2.03672e+07 1.97822e+07 2.00625e+07 2.11402e+07 2.15566e+07 2.03245e+07 1.97775e+07
          1.99717e+07 2.28908e+07 2.25226e+07 2.21798e+07 2.1825e+07 2.28933e+07 2.25246e+07 2.21534e+07 2.21649e+07 2.179e+07 2.14057e+07 2.1775e+07
          2.13955e+07 2.14505e+07 2.10078e+07 2.04975e+07 1.96994e+07 2.00835e+07 1.97346e+07 2.09885e+07 2.05586e+07 2.09993e+07 2.01392e+07 1.97238e+07
          1.97625e+07 1.94641e+07 1.95355e+07 1.91359e+07 1.87801e+07 1.84437e+07 1.84269e+07 1.97676e+07 1.91647e+07 1.95762e+07 1.91628e+07 1.87736e+07
          1.87455e+07 1.83896e+07 1.80752e+07 1.81562e+07 1.78665e+07 1.75936e+07 1.73044e+07 1.81198e+07 1.78265e+07 1.75532e+07 1.7271e+07 1.69872e+07
          1.66607e+07 1.63413e+07 1.69664e+07 1.6643e+07 1.63309e+07 1.77915e+07 1.75177e+07 1.7233e+07 1.63071e+07 1.69343e+07 1.66199e+07 1.98434e+07
          1.95621e+07 1.91161e+07 1.80271e+07 1.83385e+07 1.86922e+07 1.79689e+07 1.97502e+07 1.94456e+07 1.90195e+07 1.8605e+07 1.82584e+07 1.78952e+07
          1.81385e+07 1.77489e+07 1.7481e+07 1.72065e+07 1.77191e+07 1.74654e+07 1.71877e+07 1.69087e+07 1.65842e+07 1.62398e+07 1.68828e+07 1.65497e+07
          1.61756e+07 1.76934e+07 1.74698e+07 1.77493e+07 1.71986e+07 1.68854e+07 1.65364e+07 1.6144e+07 1.60417e+07 1.57607e+07 1.54597e+07 1.60472e+07
          1.57726e+07 1.5125e+07 1.47418e+07 1.6042e+07 1.54814e+07 1.5804e+07 1.59426e+07 1.55449e+07 1.51083e+07 1.46518e+07 1.43448e+07 1.4e+07
          1.38686e+07 1.36984e+07 1.3448e+07 1.3231e+07 1.42288e+07 1.41013e+07 1.37137e+07 1.36144e+07 1.33438e+07 1.28254e+07 1.30706e+07 1.56761e+07
          1.57938e+07 1.53433e+07 1.51874e+07 1.44958e+07 1.48202e+07 1.54991e+07 1.57483e+07 1.52479e+07 1.50374e+07 1.4546e+07 1.47077e+07 1.43182e+07
          1.39839e+07 1.36381e+07 1.3447e+07 1.27338e+07 1.32102e+07 1.29147e+07 1.42558e+07 1.39171e+07 1.35451e+07 1.33849e+07 1.26721e+07 1.30911e+07
          1.28414e+07 1.88661e+07 1.95266e+07 1.92161e+07 1.84902e+07 1.79121e+07 1.83955e+07 1.87265e+07 1.80639e+07 1.93201e+07 1.90354e+07 1.95624e+07
          1.88675e+07 1.91359e+07 1.83328e+07 1.86032e+07 1.80806e+07 1.78479e+07 1.82743e+07 1.84876e+07 1.80268e+07 1.77219e+07 1.75274e+07 1.72366e+07
          1.76487e+07 1.73105e+07 1.69065e+07 1.65552e+07 1.61681e+07 1.69539e+07 1.73502e+07 1.69962e+07 1.66094e+07 1.62574e+07 1.94328e+07 1.86912e+07
          1.94139e+07 1.89134e+07 1.86682e+07 1.83065e+07 1.80054e+07 1.76775e+07 1.8475e+07 1.79757e+07 1.90897e+07 1.94253e+07 1.88175e+07 1.91872e+07
          1.93239e+07 1.89515e+07 1.82713e+07 1.8441e+07 1.82057e+07 1.85461e+07 1.79374e+07 1.73467e+07 1.702e+07 1.66733e+07 1.63519e+07 1.67334e+07
          1.60332e+07 1.76497e+07 1.73332e+07 1.70185e+07 1.76191e+07 1.67682e+07 1.645e+07 1.6167e+07 1.65409e+07 1.5501e+07 1.57508e+07 1.51881e+07