<?xml version="1.0"?>
<VTKFile type="PolyData" version="0.1" byte_order="LittleEndian">
  <PolyData>
    <Piece NumberOfLines="100" NumberOfPoints="101">
      <PointData Scalars="p">
        <DataArray type="Float32" Name="p" NumberOfComponents="1" format="ascii">
          1 1.00276 1.00512 1.00717 1.00899 1.01062 1.0121 1.01345 1.0147 1.01585 1.01693 1.01794
          1.01889 1.01979 1.02064 1.02144 1.02221 1.02294 1.02364 1.02431 1.02495 1.02557 1.02617 1.02674
          1.0273 1.02783 1.02835 1.02885 1.02934 1.02981 1.03026 1.03071 1.03114 1.03156 1.03198 1.03238
          1.03277 1.03315 1.03352 1.03388 1.03424 1.03459 1.03493 1.03526 1.03559 1.03591 1.03622 1.03653
          1.03683 1.03713 1.03742 1.0377 1.03798 1.03826 1.03853 1.0388 1.03906 1.03932 1.03957 1.03982
          1.04007 1.04031 1.04055 1.04078 1.04101 1.04124 1.04147 1.04169 1.04191 1.04212 1.04234 1.04255
          1.04275 1.04296 1.04316 1.04336 1.04356 1.04375 1.04395 1.04414 1.04432 1.04451 1.04469 1.04487
          1.04505 1.04523 1.04541 1.04558 1.04575 1.04592 1.04609 1.04626 1.04642 1.04658 1.04674 1.0469
          1.04706 1.04722 1.04737 1.04753 1.04768
        </DataArray>
        <DataArray type="Float32" Name="pExact" NumberOfComponents="1" format="ascii">
          1 1.00277 1.00513 1.00718 1.009 1.01063 1.01211 1.01346 1.01471 1.01587 1.01695 1.01796
          1.01891 1.0198 1.02065 1.02146 1.02222 1.02295 1.02365 1.02432 1.02497 1.02558 1.02618 1.02675
          1.0273 1.02784 1.02836 1.02886 1.02934 1.02982 1.03027 1.03072 1.03115 1.03157 1.03198 1.03238
          1.03277 1.03315 1.03353 1.03389 1.03425 1.03459 1.03493 1.03527 1.03559 1.03591 1.03623 1.03654
          1.03684 1.03713 1.03742 1.03771 1.03799 1.03826 1.03854 1.0388 1.03906 1.03932 1.03957 1.03982
          1.04007 1.04031 1.04055 1.04079 1.04102 1.04125 1.04147 1.04169 1.04191 1.04213 1.04234 1.04255
          1.04276 1.04296 1.04316 1.04336 1.04356 1.04375 1.04395 1.04414 1.04432 1.04451 1.04469 1.04488
          1.04505 1.04523 1.04541 1.04558 1.04575 1.04592 1.04609 1.04626 1.04642 1.04658 1.04674 1.0469
          1.04706 1.04722 1.04737 1.04753 1.04768
        </DataArray>
      </PointData>
      <CellData Scalars="process rank">
        <DataArray type="Float32" Name="process rank" NumberOfComponents="1" format="ascii">
          0 0 0 0 0 0 0 0 0 0 0 0
          0 0 0 0 0 0 0 0 0 0 0 0
          0 0 0 0 0 0 0 0 0 0 0 0
          0 0 0 0 0 0 0 0 0 0 0 0
          0 0 0 0 0 0 0 0 0 0 0 0
          0 0 0 0 0 0 0 0 0 0 0 0
          0 0 0 0 0 0 0 0 0 0 0 0
          0 0 0 0 0 0 0 0 0 0 0 0
          0 0 0 0
        </DataArray>
      </CellData>
      <Points>
        <DataArray type="Float32" Name="Coordinates" NumberOfComponents="3" format="ascii">
          0.05 0 0 0.0595 0 0 0.069 0 0 0.0785 0 0
          0.088 0 0 0.0975 0 0 0.107 0 0 0.1165 0 0
          0.126 0 0 0.1355 0 0 0.145 0 0 0.1545 0 0
          0.164 0 0 0.1735 0 0 0.183 0 0 0.1925 0 0
          0.202 0 0 0.2115 0 0 0.221 0 0 0.2305 0 0
          0.24 0 0 0.2495 0 0 0.259 0 0 0.2685 0 0
          0.278 0 0 0.2875 0 0 0.297 0 0 0.3065 0 0
          0.316 0 0 0.3255 0 0 0.335 0 0 0.3445 0 0
          0.354 0 0 0.3635 0 0 0.373 0 0 0.3825 0 0
          0.392 0 0 0.4015 0 0 0.411 0 0 0.4205 0 0
          0.43 0 0 0.4395 0 0 0.449 0 0 0.4585 0 0
          0.468 0 0 0.4775 0 0 0.487 0 0 0.4965 0 0
          0.506 0 0 0.5155 0 0 0.525 0 0 0.5345 0 0
          0.544 0 0 0.5535 0 0 0.563 0 0 0.5725 0 0
          0.582 0 0 0.5915 0 0 0.601 0 0 0.6105 0 0
          0.62 0 0 0.6295 0 0 0.639 0 0 0.6485 0 0
          0.658 0 0 0.6675 0 0 0.677 0 0 0.6865 0 0
          0.696 0 0 0.7055 0 0 0.715 0 0 0.7245 0 0
          0.734 0 0 0.7435 0 0 0.753 0 0 0.7625 0 0
          0.772 0 0 0.7815 0 0 0.791 0 0 0.8005 0 0
          0.81 0 0 0.8195 0 0 0.829 0 0 0.8385 0 0
          0.848 0 0 0.8575 0 0 0.867 0 0 0.8765 0 0
          0.886 0 0 0.8955 0 0 0.905 0 0 0.9145 0 0
          0.924 0 0 0.9335 0 0 0.943 0 0 0.9525 0 0
          0.962 0 0 0.9715 0 0 0.981 0 0 0.9905 0 0
          1 0 0
        </DataArray>
      </Points>
      <Lines>
        <DataArray type="Int32" Name="connectivity" NumberOfComponents="1" format="ascii">
          0 1 1 2 2 3 3 4 4 5 5 6
          6 7 7 8 8 9 9 10 10 11 11 12
          12 13 13 14 14 15 15 16 16 17 17 18
          18 19 19 20 20 21 21 22 22 23 23 24
          24 25 25 26 26 27 27 28 28 29 29 30
          30 31 31 32 32 33 33 34 34 35 35 36
          36 37 37 38 38 39 39 40 40 41 41 42
          42 43 43 44 44 45 45 46 46 47 47 48
          48 49 49 50 50 51 51 52 52 53 53 54
          54 55 55 56 56 57 57 58 58 59 59 60
          60 61 61 62 62 63 63 64 64 65 65 66
          66 67 67 68 68 69 69 70 70 71 71 72
          72 73 73 74 74 75 75 76 76 77 77 78
          78 79 79 80 80 81 81 82 82 83 83 84
          84 85 85 86 86 87 87 88 88 89 89 90
          90 91 91 92 92 93 93 94 94 95 95 96
          96 97 97 98 98 99 99 100
        </DataArray>
        <DataArray type="Int32" Name="offsets" NumberOfComponents="1" format="ascii">
          2 4 6 8 10 12 14 16 18 20 22 24
          26 28 30 32 34 36 38 40 42 44 46 48
          50 52 54 56 58 60 62 64 66 68 70 72
          74 76 78 80 82 84 86 88 90 92 94 96
          98 100 102 104 106 108 110 112 114 116 118 120
          122 124 126 128 130 132 134 136 138 140 142 144
          146 148 150 152 154 156 158 160 162 164 166 168
          170 172 174 176 178 180 182 184 186 188 190 192
          194 196 198 200
        </DataArray>
      </Lines>
    </Piece>
  </PolyData>
</VTKFile>
