<?xml version="1.0"?>
<VTKFile type="UnstructuredGrid" version="0.1" byte_order="LittleEndian">
  <UnstructuredGrid>
    <Piece NumberOfCells="1250" NumberOfPoints="1326">
      <CellData Scalars="S_liq">
        <DataArray type="Float32" Name="S_liq" NumberOfComponents="1" format="ascii">
          0.292374 0.176412 0.100278 0.100005 0.1 0.1 0.1 0.1 0.1 0.1 0.1 0.1
          0.1 0.1 0.1 0.1 0.1 0.1 0.1 0.1 0.1 0.1 0.1 0.1
          0.1 0.1 0.1 0.1 0.1 0.1 0.1 0.1 0.1 0.1 0.1 0.1
          0.1 0.1 0.1 0.1 0.1 0.1 0.1 0.1 0.1 0.1 0.1 0.1
          0.1 0.1 0.290462 0.114579 0.100045 0.100003 0.1 0.1 0.1 0.1 0.1 0.1
          0.1 0.1 0.1 0.1 0.1 0.1 0.1 0.1 0.1 0.1 0.1 0.1
          0.1 0.1 0.1 0.1 0.1 0.1 0.1 0.1 0.1 0.1 0.1 0.1
          0.1 0.1 0.1 0.1 0.1 0.1 0.1 0.1 0.1 0.1 0.1 0.1
          0.1 0.1 0.1 0.1 0.250977 0.107524 0.100035 0.100002 0.1 0.1 0.1 0.1
          0.1 0.1 0.1 0.1 0.1 0.1 0.1 0.1 0.1 0.1 0.1 0.1
          0.1 0.1 0.1 0.1 0.1 0.1 0.1 0.1 0.1 0.1 0.1 0.1
          0.1 0.1 0.1 0.1 0.1 0.1 0.1 0.1 0.1 0.1 0.1 0.1
          0.1 0.1 0.1 0.1 0.1 0.1 0.249675 0.107286 0.100034 0.100002 0.1 0.1
          0.1 0.1 0.1 0.1 0.1 0.1 0.1 0.1 0.1 0.1 0.1 0.1
          0.1 0.1 0.1 0.1 0.1 0.1 0.1 0.1 0.1 0.1 0.1 0.1
          0.1 0.1 0.1 0.1 0.1 0.1 0.1 0.1 0.1 0.1 0.1 0.1
          0.1 0.1 0.1 0.1 0.1 0.1 0.1 0.1 0.249643 0.107255 0.100033 0.100002
          0.1 0.1 0.1 0.1 0.1 0.1 0.1 0.1 0.1 0.1 0.1 0.1
          0.1 0.1 0.1 0.1 0.1 0.1 0.1 0.1 0.1 0.1 0.1 0.1
          0.1 0.1 0.1 0.1 0.1 0.1 0.1 0.1 0.1 0.1 0.1 0.1
          0.1 0.1 0.1 0.1 0.1 0.1 0.1 0.1 0.1 0.1 0.24964 0.107246
          0.100033 0.100002 0.1 0.1 0.1 0.1 0.1 0.1 0.1 0.1 0.1 0.1
          0.1 0.1 0.1 0.1 0.1 0.1 0.1 0.1 0.1 0.1 0.1 0.1
          0.1 0.1 0.1 0.1 0.1 0.1 0.1 0.1 0.1 0.1 0.1 0.1
          0.1 0.1 0.1 0.1 0.1 0.1 0.1 0.1 0.1 0.1 0.1 0.1
          0.249639 0.107242 0.100033 0.100002 0.1 0.1 0.1 0.1 0.1 0.1 0.1 0.1
          0.1 0.1 0.1 0.1 0.1 0.1 0.1 0.1 0.1 0.1 0.1 0.1
          0.1 0.1 0.1 0.1 0.1 0.1 0.1 0.1 0.1 0.1 0.1 0.1
          0.1 0.1 0.1 0.1 0.1 0.1 0.1 0.1 0.1 0.1 0.1 0.1
          0.1 0.1 0.249639 0.107241 0.100033 0.100002 0.1 0.1 0.1 0.1 0.1 0.1
          0.1 0.1 0.1 0.1 0.1 0.1 0.1 0.1 0.1 0.1 0.1 0.1
          0.1 0.1 0.1 0.1 0.1 0.1 0.1 0.1 0.1 0.1 0.1 0.1
          0.1 0.1 0.1 0.1 0.1 0.1 0.1 0.1 0.1 0.1 0.1 0.1
          0.1 0.1 0.1 0.1 0.249639 0.10724 0.100033 0.100002 0.1 0.1 0.1 0.1
          0.1 0.1 0.1 0.1 0.1 0.1 0.1 0.1 0.1 0.1 0.1 0.1
          0.1 0.1 0.1 0.1 0.1 0.1 0.1 0.1 0.1 0.1 0.1 0.1
          0.1 0.1 0.1 0.1 0.1 0.1 0.1 0.1 0.1 0.1 0.1 0.1
          0.1 0.1 0.1 0.1 0.1 0.1 0.249639 0.107239 0.100033 0.100002 0.1 0.1
          0.1 0.1 0.1 0.1 0.1 0.1 0.1 0.1 0.1 0.1 0.1 0.1
          0.1 0.1 0.1 0.1 0.1 0.1 0.1 0.1 0.1 0.1 0.1 0.1
          0.1 0.1 0.1 0.1 0.1 0.1 0.1 0.1 0.1 0.1 0.1 0.1
          0.1 0.1 0.1 0.1 0.1 0.1 0.1 0.1 0.249639 0.107239 0.100033 0.100002
          0.1 0.1 0.1 0.1 0.1 0.1 0.1 0.1 0.1 0.1 0.1 0.1
          0.1 0.1 0.1 0.1 0.1 0.1 0.1 0.1 0.1 0.1 0.1 0.1
          0.1 0.1 0.1 0.1 0.1 0.1 0.1 0.1 0.1 0.1 0.1 0.1
          0.1 0.1 0.1 0.1 0.1 0.1 0.1 0.1 0.1 0.1 0.249639 0.107239
          0.100033 0.100002 0.1 0.1 0.1 0.1 0.1 0.1 0.1 0.1 0.1 0.1
          0.1 0.1 0.1 0.1 0.1 0.1 0.1 0.1 0.1 0.1 0.1 0.1
          0.1 0.1 0.1 0.1 0.1 0.1 0.1 0.1 0.1 0.1 0.1 0.1
          0.1 0.1 0.1 0.1 0.1 0.1 0.1 0.1 0.1 0.1 0.1 0.1
          0.249639 0.107239 0.100033 0.100002 0.1 0.1 0.1 0.1 0.1 0.1 0.1 0.1
          0.1 0.1 0.1 0.1 0.1 0.1 0.1 0.1 0.1 0.1 0.1 0.1
          0.1 0.1 0.1 0.1 0.1 0.1 0.1 0.1 0.1 0.1 0.1 0.1
          0.1 0.1 0.1 0.1 0.1 0.1 0.1 0.1 0.1 0.1 0.1 0.1
          0.1 0.1 0.249639 0.107239 0.100033 0.100002 0.1 0.1 0.1 0.1 0.1 0.1
          0.1 0.1 0.1 0.1 0.1 0.1 0.1 0.1 0.1 0.1 0.1 0.1
          0.1 0.1 0.1 0.1 0.1 0.1 0.1 0.1 0.1 0.1 0.1 0.1
          0.1 0.1 0.1 0.1 0.1 0.1 0.1 0.1 0.1 0.1 0.1 0.1
          0.1 0.1 0.1 0.1 0.249639 0.107239 0.100033 0.100002 0.1 0.1 0.1 0.1
          0.1 0.1 0.1 0.1 0.1 0.1 0.1 0.1 0.1 0.1 0.1 0.1
          0.1 0.1 0.1 0.1 0.1 0.1 0.1 0.1 0.1 0.1 0.1 0.1
          0.1 0.1 0.1 0.1 0.1 0.1 0.1 0.1 0.1 0.1 0.1 0.1
          0.1 0.1 0.1 0.1 0.1 0.1 0.249639 0.107239 0.100033 0.100002 0.1 0.1
          0.1 0.1 0.1 0.1 0.1 0.1 0.1 0.1 0.1 0.1 0.1 0.1
          0.1 0.1 0.1 0.1 0.1 0.1 0.1 0.1 0.1 0.1 0.1 0.1
          0.1 0.1 0.1 0.1 0.1 0.1 0.1 0.1 0.1 0.1 0.1 0.1
          0.1 0.1 0.1 0.1 0.1 0.1 0.1 0.1 0.249639 0.10724 0.100033 0.100002
          0.1 0.1 0.1 0.1 0.1 0.1 0.1 0.1 0.1 0.1 0.1 0.1
          0.1 0.1 0.1 0.1 0.1 0.1 0.1 0.1 0.1 0.1 0.1 0.1
          0.1 0.1 0.1 0.1 0.1 0.1 0.1 0.1 0.1 0.1 0.1 0.1
          0.1 0.1 0.1 0.1 0.1 0.1 0.1 0.1 0.1 0.1 0.249639 0.107241
          0.100033 0.100002 0.1 0.1 0.1 0.1 0.1 0.1 0.1 0.1 0.1 0.1
          0.1 0.1 0.1 0.1 0.1 0.1 0.1 0.1 0.1 0.1 0.1 0.1
          0.1 0.1 0.1 0.1 0.1 0.1 0.1 0.1 0.1 0.1 0.1 0.1
          0.1 0.1 0.1 0.1 0.1 0.1 0.1 0.1 0.1 0.1 0.1 0.1
          0.249639 0.107242 0.100033 0.100002 0.1 0.1 0.1 0.1 0.1 0.1 0.1 0.1
          0.1 0.1 0.1 0.1 0.1 0.1 0.1 0.1 0.1 0.1 0.1 0.1
          0.1 0.1 0.1 0.1 0.1 0.1 0.1 0.1 0.1 0.1 0.1 0.1
          0.1 0.1 0.1 0.1 0.1 0.1 0.1 0.1 0.1 0.1 0.1 0.1
          0.1 0.1 0.24964 0.107246 0.100033 0.100002 0.1 0.1 0.1 0.1 0.1 0.1
          0.1 0.1 0.1 0.1 0.1 0.1 0.1 0.1 0.1 0.1 0.1 0.1
          0.1 0.1 0.1 0.1 0.1 0.1 0.1 0.1 0.1 0.1 0.1 0.1
          0.1 0.1 0.1 0.1 0.1 0.1 0.1 0.1 0.1 0.1 0.1 0.1
          0.1 0.1 0.1 0.1 0.249645 0.107256 0.100033 0.100002 0.1 0.1 0.1 0.1
          0.1 0.1 0.1 0.1 0.1 0.1 0.1 0.1 0.1 0.1 0.1 0.1
          0.1 0.1 0.1 0.1 0.1 0.1 0.1 0.1 0.1 0.1 0.1 0.1
          0.1 0.1 0.1 0.1 0.1 0.1 0.1 0.1 0.1 0.1 0.1 0.1
          0.1 0.1 0.1 0.1 0.1 0.1 0.249735 0.107291 0.100034 0.100002 0.1 0.1
          0.1 0.1 0.1 0.1 0.1 0.1 0.1 0.1 0.1 0.1 0.1 0.1
          0.1 0.1 0.1 0.1 0.1 0.1 0.1 0.1 0.1 0.1 0.1 0.1
          0.1 0.1 0.1 0.1 0.1 0.1 0.1 0.1 0.1 0.1 0.1 0.1
          0.1 0.1 0.1 0.1 0.1 0.1 0.1 0.1 0.253086 0.10768 0.100035 0.100002
          0.1 0.1 0.1 0.1 0.1 0.1 0.1 0.1 0.1 0.1 0.1 0.1
          0.1 0.1 0.1 0.1 0.1 0.1 0.1 0.1 0.1 0.1 0.1 0.1
          0.1 0.1 0.1 0.1 0.1 0.1 0.1 0.1 0.1 0.1 0.1 0.1
          0.1 0.1 0.1 0.1 0.1 0.1 0.1 0.1 0.1 0.1 0.297095 0.116036
          0.100045 0.100003 0.1 0.1 0.1 0.1 0.1 0.1 0.1 0.1 0.1 0.1
          0.1 0.1 0.1 0.1 0.1 0.1 0.1 0.1 0.1 0.1 0.1 0.1
          0.1 0.1 0.1 0.1 0.1 0.1 0.1 0.1 0.1 0.1 0.1 0.1
          0.1 0.1 0.1 0.1 0.1 0.1 0.1 0.1 0.1 0.1 0.1 0.1
          0.283204 0.173156 0.100252 0.100005 0.1 0.1 0.1 0.1 0.1 0.1 0.1 0.1
          0.1 0.1 0.1 0.1 0.1 0.1 0.1 0.1 0.1 0.1 0.1 0.1
          0.1 0.1 0.1 0.1 0.1 0.1 0.1 0.1 0.1 0.1 0.1 0.1
          0.1 0.1 0.1 0.1 0.1 0.1 0.1 0.1 0.1 0.1 0.1 0.1
          0.1 0.1
        </DataArray>
        <DataArray type="Float32" Name="p_liq" NumberOfComponents="1" format="ascii">
          100240 99715 98572.2 98556.2 98554.9 98553.7 98552.6 98551.4 98550.3 98549.1 98547.9 98546.8
          98545.6 98544.4 98543.3 98542.1 98540.9 98539.8 98538.6 98537.4 98536.3 98535.1 98533.9 98532.8
          98531.6 98530.4 98529.3 98528.1 98526.9 98525.8 98524.6 98523.4 98522.2 98521 98519.8 98518.6
          98517.4 98516.2 98515 98513.8 98512.6 98511.3 98510.1 98508.8 98507.5 98506.2 98504.9 98503.5
          98502.1 98500.4 99892.2 99272.9 98559.6 98556 98554.8 98553.6 98552.4 98551.3 98550.1 98548.9
          98547.8 98546.6 98545.4 98544.2 98543.1 98541.9 98540.8 98539.6 98538.4 98537.3 98536.1 98534.9
          98533.8 98532.6 98531.4 98530.3 98529.1 98527.9 98526.7 98525.6 98524.4 98523.2 98522 98520.8
          98519.7 98518.5 98517.3 98516.1 98514.9 98513.6 98512.4 98511.2 98509.9 98508.7 98507.4 98506.1
          98504.8 98503.4 98502 98500.6 99828.8 98977.1 98559.2 98556 98554.6 98553.4 98552.3 98551.1
          98549.9 98548.7 98547.6 98546.4 98545.2 98544.1 98542.9 98541.7 98540.6 98539.4 98538.2 98537.1
          98535.9 98534.7 98533.6 98532.4 98531.2 98530.1 98528.9 98527.7 98526.6 98525.4 98524.2 98523
          98521.9 98520.7 98519.5 98518.3 98517.1 98515.9 98514.7 98513.5 98512.2 98511 98509.8 98508.5
          98507.2 98506 98504.6 98503.3 98502 98500.6 99824.3 98963.6 98559 98555.9 98554.5 98553.3
          98552.1 98550.9 98549.7 98548.6 98547.4 98546.2 98545 98543.9 98542.7 98541.6 98540.4 98539.2
          98538.1 98536.9 98535.7 98534.6 98533.4 98532.2 98531.1 98529.9 98528.7 98527.6 98526.4 98525.2
          98524 98522.9 98521.7 98520.5 98519.3 98518.1 98516.9 98515.7 98514.5 98513.3 98512.1 98510.9
          98509.6 98508.4 98507.1 98505.8 98504.6 98503.3 98502 98500.6 99822.8 98961.4 98558.7 98555.7
          98554.3 98553.1 98551.9 98550.7 98549.5 98548.4 98547.2 98546 98544.9 98543.7 98542.5 98541.4
          98540.2 98539 98537.9 98536.7 98535.5 98534.4 98533.2 98532 98530.9 98529.7 98528.5 98527.4
          98526.2 98525 98523.9 98522.7 98521.5 98520.3 98519.1 98518 98516.8 98515.6 98514.4 98513.2
          98511.9 98510.7 98509.5 98508.3 98507 98505.8 98504.5 98503.2 98501.9 98500.6 99822 98960.5
          98558.4 98555.4 98554.1 98552.9 98551.7 98550.5 98549.4 98548.2 98547 98545.8 98544.7 98543.5
          98542.4 98541.2 98540 98538.9 98537.7 98536.5 98535.4 98534.2 98533 98531.9 98530.7 98529.5
          98528.4 98527.2 98526 98524.9 98523.7 98522.5 98521.3 98520.2 98519 98517.8 98516.6 98515.4
          98514.2 98513 98511.8 98510.6 98509.4 98508.1 98506.9 98505.7 98504.4 98503.2 98501.9 98500.6
          99821.5 98959.9 98558.1 98555.2 98553.9 98552.7 98551.5 98550.3 98549.2 98548 98546.8 98545.7
          98544.5 98543.3 98542.2 98541 98539.8 98538.7 98537.5 98536.3 98535.2 98534 98532.9 98531.7
          98530.5 98529.4 98528.2 98527 98525.9 98524.7 98523.5 98522.3 98521.2 98520 98518.8 98517.6
          98516.4 98515.3 98514.1 98512.9 98511.7 98510.5 98509.3 98508 98506.8 98505.6 98504.4 98503.1
          98501.9 98500.6 99821.1 98959.5 98557.8 98554.9 98553.6 98552.5 98551.3 98550.1 98549 98547.8
          98546.6 98545.5 98544.3 98543.1 98542 98540.8 98539.7 98538.5 98537.3 98536.2 98535 98533.8
          98532.7 98531.5 98530.3 98529.2 98528 98526.9 98525.7 98524.5 98523.3 98522.2 98521 98519.8
          98518.7 98517.5 98516.3 98515.1 98513.9 98512.7 98511.5 98510.4 98509.1 98507.9 98506.7 98505.5
          98504.3 98503.1 98501.8 98500.6 99820.8 98959.2 98557.5 98554.7 98553.4 98552.2 98551.1 98549.9
          98548.8 98547.6 98546.4 98545.3 98544.1 98543 98541.8 98540.6 98539.5 98538.3 98537.1 98536
          98534.8 98533.7 98532.5 98531.3 98530.2 98529 98527.8 98526.7 98525.5 98524.3 98523.2 98522
          98520.8 98519.7 98518.5 98517.3 98516.1 98515 98513.8 98512.6 98511.4 98510.2 98509 98507.8
          98506.6 98505.4 98504.2 98503 98501.8 98500.6 99820.5 98958.9 98557.3 98554.4 98553.2 98552
          98550.9 98549.7 98548.6 98547.4 98546.3 98545.1 98543.9 98542.8 98541.6 98540.5 98539.3 98538.1
          98537 98535.8 98534.6 98533.5 98532.3 98531.2 98530 98528.8 98527.7 98526.5 98525.3 98524.2
          98523 98521.8 98520.7 98519.5 98518.3 98517.2 98516 98514.8 98513.7 98512.5 98511.3 98510.1
          98508.9 98507.8 98506.6 98505.4 98504.2 98503 98501.8 98500.6 99820.3 98958.7 98557.1 98554.2
          98553 98551.8 98550.7 98549.5 98548.4 98547.2 98546.1 98544.9 98543.8 98542.6 98541.4 98540.3
          98539.1 98537.9 98536.8 98535.6 98534.5 98533.3 98532.1 98531 98529.8 98528.7 98527.5 98526.3
          98525.2 98524 98522.8 98521.7 98520.5 98519.4 98518.2 98517 98515.9 98514.7 98513.5 98512.4
          98511.2 98510 98508.8 98507.7 98506.5 98505.3 98504.1 98503 98501.8 98500.6 99820.1 98958.4
          98556.9 98554 98552.8 98551.6 98550.5 98549.3 98548.2 98547 98545.9 98544.7 98543.6 98542.4
          98541.2 98540.1 98538.9 98537.8 98536.6 98535.4 98534.3 98533.1 98532 98530.8 98529.6 98528.5
          98527.3 98526.2 98525 98523.8 98522.7 98521.5 98520.4 98519.2 98518 98516.9 98515.7 98514.6
          98513.4 98512.2 98511.1 98509.9 98508.7 98507.6 98506.4 98505.2 98504.1 98502.9 98501.8 98500.6
          99819.9 98958.2 98556.7 98553.8 98552.6 98551.5 98550.3 98549.2 98548 98546.9 98545.7 98544.5
          98543.4 98542.2 98541.1 98539.9 98538.7 98537.6 98536.4 98535.3 98534.1 98532.9 98531.8 98530.6
          98529.5 98528.3 98527.1 98526 98524.8 98523.7 98522.5 98521.4 98520.2 98519 98517.9 98516.7
          98515.6 98514.4 98513.3 98512.1 98511 98509.8 98508.6 98507.5 98506.3 98505.2 98504 98502.9
          98501.7 98500.6 99819.7 98958.1 98556.5 98553.6 98552.4 98551.3 98550.1 98549 98547.8 98546.7
          98545.5 98544.4 98543.2 98542 98540.9 98539.7 98538.6 98537.4 98536.2 98535.1 98533.9 98532.8
          98531.6 98530.5 98529.3 98528.1 98527 98525.8 98524.7 98523.5 98522.4 98521.2 98520 98518.9
          98517.7 98516.6 98515.4 98514.3 98513.1 98512 98510.8 98509.7 98508.5 98507.4 98506.3 98505.1
          98504 98502.8 98501.7 98500.6 99819.5 98957.9 98556.3 98553.5 98552.2 98551.1 98550 98548.8
          98547.7 98546.5 98545.3 98544.2 98543 98541.9 98540.7 98539.5 98538.4 98537.2 98536.1 98534.9
          98533.7 98532.6 98531.4 98530.3 98529.1 98528 98526.8 98525.6 98524.5 98523.3 98522.2 98521
          98519.9 98518.7 98517.6 98516.4 98515.3 98514.1 98513 98511.9 98510.7 98509.6 98508.5 98507.3
          98506.2 98505.1 98503.9 98502.8 98501.7 98500.6 99819.4 98957.8 98556.2 98553.3 98552.1 98550.9
          98549.8 98548.6 98547.5 98546.3 98545.2 98544 98542.8 98541.7 98540.5 98539.4 98538.2 98537
          98535.9 98534.7 98533.6 98532.4 98531.2 98530.1 98528.9 98527.8 98526.6 98525.5 98524.3 98523.2
          98522 98520.9 98519.7 98518.6 98517.4 98516.3 98515.1 98514 98512.9 98511.7 98510.6 98509.5
          98508.4 98507.2 98506.1 98505 98503.9 98502.8 98501.7 98500.6 99819.3 98957.7 98556.1 98553.2
          98551.9 98550.8 98549.6 98548.5 98547.3 98546.1 98545 98543.8 98542.7 98541.5 98540.3 98539.2
          98538 98536.9 98535.7 98534.5 98533.4 98532.2 98531.1 98529.9 98528.8 98527.6 98526.5 98525.3
          98524.2 98523 98521.9 98520.7 98519.6 98518.4 98517.3 98516.1 98515 98513.9 98512.7 98511.6
          98510.5 98509.4 98508.2 98507.1 98506 98504.9 98503.8 98502.7 98501.6 98500.5 99819.3 98957.7
          98556 98553.1 98551.8 98550.6 98549.5 98548.3 98547.1 98546 98544.8 98543.6 98542.5 98541.3
          98540.2 98539 98537.8 98536.7 98535.5 98534.4 98533.2 98532.1 98530.9 98529.7 98528.6 98527.4
          98526.3 98525.1 98524 98522.8 98521.7 98520.5 98519.4 98518.3 98517.1 98516 98514.9 98513.7
          98512.6 98511.5 98510.4 98509.2 98508.1 98507 98505.9 98504.9 98503.8 98502.7 98501.6 98500.5
          99819.3 98957.7 98555.9 98553 98551.7 98550.5 98549.3 98548.1 98547 98545.8 98544.6 98543.5
          98542.3 98541.1 98540 98538.8 98537.7 98536.5 98535.3 98534.2 98533 98531.9 98530.7 98529.6
          98528.4 98527.3 98526.1 98525 98523.8 98522.7 98521.5 98520.4 98519.2 98518.1 98517 98515.8
          98514.7 98513.6 98512.5 98511.3 98510.2 98509.1 98508 98506.9 98505.9 98504.8 98503.7 98502.6
          98501.6 98500.5 99819.4 98957.9 98555.8 98552.9 98551.5 98550.3 98549.1 98548 98546.8 98545.6
          98544.5 98543.3 98542.1 98541 98539.8 98538.6 98537.5 98536.3 98535.2 98534 98532.9 98531.7
          98530.5 98529.4 98528.2 98527.1 98525.9 98524.8 98523.6 98522.5 98521.4 98520.2 98519.1 98517.9
          98516.8 98515.7 98514.5 98513.4 98512.3 98511.2 98510.1 98509 98507.9 98506.8 98505.8 98504.7
          98503.6 98502.6 98501.5 98500.5 99819.9 98958.5 98555.8 98552.7 98551.4 98550.2 98549 98547.8
          98546.6 98545.4 98544.3 98543.1 98541.9 98540.8 98539.6 98538.5 98537.3 98536.1 98535 98533.8
          98532.7 98531.5 98530.4 98529.2 98528.1 98526.9 98525.8 98524.6 98523.5 98522.3 98521.2 98520
          98518.9 98517.8 98516.6 98515.5 98514.4 98513.3 98512.2 98511.1 98510 98508.9 98507.8 98506.7
          98505.6 98504.6 98503.5 98502.5 98501.5 98500.5 99821.1 98960.6 98555.7 98552.6 98551.2 98550
          98548.8 98547.6 98546.4 98545.3 98544.1 98542.9 98541.8 98540.6 98539.4 98538.3 98537.1 98536
          98534.8 98533.6 98532.5 98531.3 98530.2 98529 98527.9 98526.7 98525.6 98524.4 98523.3 98522.1
          98521 98519.9 98518.7 98517.6 98516.5 98515.3 98514.2 98513.1 98512 98510.9 98509.8 98508.7
          98507.6 98506.6 98505.5 98504.5 98503.5 98502.4 98501.5 98500.5 99827 98982.1 98555.5 98552.3
          98551 98549.8 98548.6 98547.4 98546.2 98545.1 98543.9 98542.7 98541.6 98540.4 98539.2 98538.1
          98536.9 98535.8 98534.6 98533.5 98532.3 98531.1 98530 98528.8 98527.7 98526.5 98525.4 98524.2
          98523.1 98522 98520.8 98519.7 98518.6 98517.4 98516.3 98515.2 98514.1 98512.9 98511.8 98510.7
          98509.6 98508.6 98507.5 98506.4 98505.4 98504.4 98503.3 98502.4 98501.4 98500.5 99892.6 99305.4
          98555.6 98552 98550.7 98549.6 98548.4 98547.2 98546.1 98544.9 98543.7 98542.6 98541.4 98540.2
          98539.1 98537.9 98536.8 98535.6 98534.4 98533.3 98532.1 98531 98529.8 98528.7 98527.5 98526.4
          98525.2 98524.1 98522.9 98521.8 98520.6 98519.5 98518.4 98517.2 98516.1 98515 98513.9 98512.8
          98511.7 98510.6 98509.5 98508.4 98507.3 98506.3 98505.2 98504.2 98503.2 98502.2 98501.3 98500.4
          100220 99703 98566.4 98551.8 98550.5 98549.3 98548.2 98547 98545.9 98544.7 98543.5 98542.4
          98541.2 98540 98538.9 98537.7 98536.6 98535.4 98534.2 98533.1 98531.9 98530.8 98529.6 98528.5
          98527.3 98526.2 98525 98523.9 98522.7 98521.6 98520.5 98519.3 98518.2 98517.1 98515.9 98514.8
          98513.7 98512.6 98511.5 98510.4 98509.3 98508.2 98507.2 98506.1 98505.1 98504.1 98503.1 98502.1
          98501.2 98500.3
        </DataArray>
        <DataArray type="Float32" Name="rho_liq" NumberOfComponents="1" format="ascii">
          958.717 988.193 997.756 998.174 998.198 998.199 998.199 998.199 998.199 998.199 998.199 998.199
          998.199 998.199 998.199 998.199 998.199 998.199 998.199 998.199 998.199 998.199 998.199 998.199
          998.199 998.199 998.199 998.199 998.199 998.199 998.199 998.199 998.199 998.199 998.199 998.199
          998.199 998.199 998.199 998.199 998.199 998.199 998.199 998.199 998.199 998.199 998.199 998.199
          998.199 998.199 961.725 995.28 998.013 998.186 998.198 998.199 998.199 998.199 998.199 998.199
          998.199 998.199 998.199 998.199 998.199 998.199 998.199 998.199 998.199 998.199 998.199 998.199
          998.199 998.199 998.199 998.199 998.199 998.199 998.199 998.199 998.199 998.199 998.199 998.199
          998.199 998.199 998.199 998.199 998.199 998.199 998.199 998.199 998.199 998.199 998.199 998.199
          998.199 998.199 998.199 998.199 971.323 996.164 998.052 998.188 998.198 998.199 998.199 998.199
          998.199 998.199 998.199 998.199 998.199 998.199 998.199 998.199 998.199 998.199 998.199 998.199
          998.199 998.199 998.199 998.199 998.199 998.199 998.199 998.199 998.199 998.199 998.199 998.199
          998.199 998.199 998.199 998.199 998.199 998.199 998.199 998.199 998.199 998.199 998.199 998.199
          998.199 998.199 998.199 998.199 998.199 998.199 972.127 996.23 998.056 998.188 998.198 998.199
          998.199 998.199 998.199 998.199 998.199 998.199 998.199 998.199 998.199 998.199 998.199 998.199
          998.199 998.199 998.199 998.199 998.199 998.199 998.199 998.199 998.199 998.199 998.199 998.199
          998.199 998.199 998.199 998.199 998.199 998.199 998.199 998.199 998.199 998.199 998.199 998.199
          998.199 998.199 998.199 998.199 998.199 998.199 998.199 998.199 972.17 996.237 998.056 998.188
          998.198 998.199 998.199 998.199 998.199 998.199 998.199 998.199 998.199 998.199 998.199 998.199
          998.199 998.199 998.199 998.199 998.199 998.199 998.199 998.199 998.199 998.199 998.199 998.199
          998.199 998.199 998.199 998.199 998.199 998.199 998.199 998.199 998.199 998.199 998.199 998.199
          998.199 998.199 998.199 998.199 998.199 998.199 998.199 998.199 998.199 998.199 972.173 996.239
          998.056 998.188 998.198 998.199 998.199 998.199 998.199 998.199 998.199 998.199 998.199 998.199
          998.199 998.199 998.199 998.199 998.199 998.199 998.199 998.199 998.199 998.199 998.199 998.199
          998.199 998.199 998.199 998.199 998.199 998.199 998.199 998.199 998.199 998.199 998.199 998.199
          998.199 998.199 998.199 998.199 998.199 998.199 998.199 998.199 998.199 998.199 998.199 998.199
          972.173 996.239 998.056 998.188 998.198 998.199 998.199 998.199 998.199 998.199 998.199 998.199
          998.199 998.199 998.199 998.199 998.199 998.199 998.199 998.199 998.199 998.199 998.199 998.199
          998.199 998.199 998.199 998.199 998.199 998.199 998.199 998.199 998.199 998.199 998.199 998.199
          998.199 998.199 998.199 998.199 998.199 998.199 998.199 998.199 998.199 998.199 998.199 998.199
          998.199 998.199 972.173 996.239 998.056 998.188 998.198 998.199 998.199 998.199 998.199 998.199
          998.199 998.199 998.199 998.199 998.199 998.199 998.199 998.199 998.199 998.199 998.199 998.199
          998.199 998.199 998.199 998.199 998.199 998.199 998.199 998.199 998.199 998.199 998.199 998.199
          998.199 998.199 998.199 998.199 998.199 998.199 998.199 998.199 998.199 998.199 998.199 998.199
          998.199 998.199 998.199 998.199 972.173 996.239 998.056 998.188 998.198 998.199 998.199 998.199
          998.199 998.199 998.199 998.199 998.199 998.199 998.199 998.199 998.199 998.199 998.199 998.199
          998.199 998.199 998.199 998.199 998.199 998.199 998.199 998.199 998.199 998.199 998.199 998.199
          998.199 998.199 998.199 998.199 998.199 998.199 998.199 998.199 998.199 998.199 998.199 998.199
          998.199 998.199 998.199 998.199 998.199 998.199 972.173 996.239 998.056 998.188 998.198 998.199
          998.199 998.199 998.199 998.199 998.199 998.199 998.199 998.199 998.199 998.199 998.199 998.199
          998.199 998.199 998.199 998.199 998.199 998.199 998.199 998.199 998.199 998.199 998.199 998.199
          998.199 998.199 998.199 998.199 998.199 998.199 998.199 998.199 998.199 998.199 998.199 998.199
          998.199 998.199 998.199 998.199 998.199 998.199 998.199 998.199 972.173 996.239 998.056 998.188
          998.198 998.199 998.199 998.199 998.199 998.199 998.199 998.199 998.199 998.199 998.199 998.199
          998.199 998.199 998.199 998.199 998.199 998.199 998.199 998.199 998.199 998.199 998.199 998.199
          998.199 998.199 998.199 998.199 998.199 998.199 998.199 998.199 998.199 998.199 998.199 998.199
          998.199 998.199 998.199 998.199 998.199 998.199 998.199 998.199 998.199 998.199 972.173 996.239
          998.056 998.188 998.198 998.199 998.199 998.199 998.199 998.199 998.199 998.199 998.199 998.199
          998.199 998.199 998.199 998.199 998.199 998.199 998.199 998.199 998.199 998.199 998.199 998.199
          998.199 998.199 998.199 998.199 998.199 998.199 998.199 998.199 998.199 998.199 998.199 998.199
          998.199 998.199 998.199 998.199 998.199 998.199 998.199 998.199 998.199 998.199 998.199 998.199
          972.173 996.239 998.056 998.188 998.198 998.199 998.199 998.199 998.199 998.199 998.199 998.199
          998.199 998.199 998.199 998.199 998.199 998.199 998.199 998.199 998.199 998.199 998.199 998.199
          998.199 998.199 998.199 998.199 998.199 998.199 998.199 998.199 998.199 998.199 998.199 998.199
          998.199 998.199 998.199 998.199 998.199 998.199 998.199 998.199 998.199 998.199 998.199 998.199
          998.199 998.199 972.173 996.239 998.056 998.188 998.198 998.199 998.199 998.199 998.199 998.199
          998.199 998.199 998.199 998.199 998.199 998.199 998.199 998.199 998.199 998.199 998.199 998.199
          998.199 998.199 998.199 998.199 998.199 998.199 998.199 998.199 998.199 998.199 998.199 998.199
          998.199 998.199 998.199 998.199 998.199 998.199 998.199 998.199 998.199 998.199 998.199 998.199
          998.199 998.199 998.199 998.199 972.173 996.239 998.056 998.188 998.198 998.199 998.199 998.199
          998.199 998.199 998.199 998.199 998.199 998.199 998.199 998.199 998.199 998.199 998.199 998.199
          998.199 998.199 998.199 998.199 998.199 998.199 998.199 998.199 998.199 998.199 998.199 998.199
          998.199 998.199 998.199 998.199 998.199 998.199 998.199 998.199 998.199 998.199 998.199 998.199
          998.199 998.199 998.199 998.199 998.199 998.199 972.173 996.239 998.056 998.188 998.198 998.199
          998.199 998.199 998.199 998.199 998.199 998.199 998.199 998.199 998.199 998.199 998.199 998.199
          998.199 998.199 998.199 998.199 998.199 998.199 998.199 998.199 998.199 998.199 998.199 998.199
          998.199 998.199 998.199 998.199 998.199 998.199 998.199 998.199 998.199 998.199 998.199 998.199
          998.199 998.199 998.199 998.199 998.199 998.199 998.199 998.199 972.173 996.239 998.056 998.188
          998.198 998.199 998.199 998.199 998.199 998.199 998.199 998.199 998.199 998.199 998.199 998.199
          998.199 998.199 998.199 998.199 998.199 998.199 998.199 998.199 998.199 998.199 998.199 998.199
          998.199 998.199 998.199 998.199 998.199 998.199 998.199 998.199 998.199 998.199 998.199 998.199
          998.199 998.199 998.199 998.199 998.199 998.199 998.199 998.199 998.199 998.199 972.173 996.239
          998.056 998.188 998.198 998.199 998.199 998.199 998.199 998.199 998.199 998.199 998.199 998.199
          998.199 998.199 998.199 998.199 998.199 998.199 998.199 998.199 998.199 998.199 998.199 998.199
          998.199 998.199 998.199 998.199 998.199 998.199 998.199 998.199 998.199 998.199 998.199 998.199
          998.199 998.199 998.199 998.199 998.199 998.199 998.199 998.199 998.199 998.199 998.199 998.199
          972.173 996.239 998.056 998.188 998.198 998.199 998.199 998.199 998.199 998.199 998.199 998.199
          998.199 998.199 998.199 998.199 998.199 998.199 998.199 998.199 998.199 998.199 998.199 998.199
          998.199 998.199 998.199 998.199 998.199 998.199 998.199 998.199 998.199 998.199 998.199 998.199
          998.199 998.199 998.199 998.199 998.199 998.199 998.199 998.199 998.199 998.199 998.199 998.199
          998.199 998.199 972.173 996.239 998.056 998.188 998.198 998.199 998.199 998.199 998.199 998.199
          998.199 998.199 998.199 998.199 998.199 998.199 998.199 998.199 998.199 998.199 998.199 998.199
          998.199 998.199 998.199 998.199 998.199 998.199 998.199 998.199 998.199 998.199 998.199 998.199
          998.199 998.199 998.199 998.199 998.199 998.199 998.199 998.199 998.199 998.199 998.199 998.199
          998.199 998.199 998.199 998.199 972.17 996.237 998.056 998.188 998.198 998.199 998.199 998.199
          998.199 998.199 998.199 998.199 998.199 998.199 998.199 998.199 998.199 998.199 998.199 998.199
          998.199 998.199 998.199 998.199 998.199 998.199 998.199 998.199 998.199 998.199 998.199 998.199
          998.199 998.199 998.199 998.199 998.199 998.199 998.199 998.199 998.199 998.199 998.199 998.199
          998.199 998.199 998.199 998.199 998.199 998.199 972.126 996.23 998.056 998.188 998.198 998.199
          998.199 998.199 998.199 998.199 998.199 998.199 998.199 998.199 998.199 998.199 998.199 998.199
          998.199 998.199 998.199 998.199 998.199 998.199 998.199 998.199 998.199 998.199 998.199 998.199
          998.199 998.199 998.199 998.199 998.199 998.199 998.199 998.199 998.199 998.199 998.199 998.199
          998.199 998.199 998.199 998.199 998.199 998.199 998.199 998.199 971.306 996.16 998.051 998.188
          998.198 998.199 998.199 998.199 998.199 998.199 998.199 998.199 998.199 998.199 998.199 998.199
          998.199 998.199 998.199 998.199 998.199 998.199 998.199 998.199 998.199 998.199 998.199 998.199
          998.199 998.199 998.199 998.199 998.199 998.199 998.199 998.199 998.199 998.199 998.199 998.199
          998.199 998.199 998.199 998.199 998.199 998.199 998.199 998.199 998.199 998.199 961.719 995.26
          998.012 998.186 998.198 998.199 998.199 998.199 998.199 998.199 998.199 998.199 998.199 998.199
          998.199 998.199 998.199 998.199 998.199 998.199 998.199 998.199 998.199 998.199 998.199 998.199
          998.199 998.199 998.199 998.199 998.199 998.199 998.199 998.199 998.199 998.199 998.199 998.199
          998.199 998.199 998.199 998.199 998.199 998.199 998.199 998.199 998.199 998.199 998.199 998.199
          958.724 988.218 997.758 998.174 998.198 998.199 998.199 998.199 998.199 998.199 998.199 998.199
          998.199 998.199 998.199 998.199 998.199 998.199 998.199 998.199 998.199 998.199 998.199 998.199
          998.199 998.199 998.199 998.199 998.199 998.199 998.199 998.199 998.199 998.199 998.199 998.199
          998.199 998.199 998.199 998.199 998.199 998.199 998.199 998.199 998.199 998.199 998.199 998.199
          998.199 998.199
        </DataArray>
        <DataArray type="Float32" Name="mob_liq" NumberOfComponents="1" format="ascii">
          7.37236 0.0945569 9.48569e-12 1.2289e-18 1.47555e-23 5.44596e-28 6.29438e-30 3.62865e-30 3.2298e-30 2.93963e-30 2.6725e-30 2.42385e-30
          2.1928e-30 1.97857e-30 1.78036e-30 1.59737e-30 1.42882e-30 1.27392e-30 1.13193e-30 1.0021e-30 8.83717e-31 7.76089e-31 6.78541e-31 5.90425e-31
          5.11113e-31 4.4e-31 3.76503e-31 3.20063e-31 2.7014e-31 2.26218e-31 1.87802e-31 1.54421e-31 1.25622e-31 1.00975e-31 8.00719e-32 6.25243e-32
          4.79649e-32 3.60467e-32 2.64429e-32 1.88469e-32 1.29717e-32 8.54996e-33 5.33402e-33 3.09575e-33 1.62685e-33 7.39212e-34 2.65669e-34 6.11346e-35
          4.22559e-36 0 6.76859 8.85428e-05 6.48771e-15 9.61807e-20 1.97828e-24 1.60744e-28 4.91844e-30 3.25901e-30 2.91591e-30 2.64819e-30
          2.40129e-30 2.17196e-30 1.95935e-30 1.76266e-30 1.5811e-30 1.4139e-30 1.26029e-30 1.11951e-30 9.90822e-31 8.73519e-31 7.66906e-31 6.70312e-31