<?xml version="1.0"?>
<VTKFile type="UnstructuredGrid" version="0.1" byte_order="LittleEndian">
  <UnstructuredGrid>
    <Piece NumberOfCells="384" NumberOfPoints="425">
      <PointData Scalars="S_gas">
        <DataArray type="Float32" Name="S_gas" NumberOfComponents="1" format="ascii">
          0.2 0.133819 0.2 0.19564 0.131111 0.193806 0.130149 0.193145 0.129709 0.192847 0.129497 0.192706
          0.129389 0.192635 0.129318 0.19259 0.129236 0.192538 0.129078 0.192439 0.128721 0.192213 0.127896 0.191691
          0.126003 0.190516 0.121707 0.187977 0.112638 0.183074 0.0980953 0.176024 0.0845145 0.170236 0.082409 0.169419
          0.095501 0.174247 0.116996 0.183844 0.140809 0.197367 0.166352 0.214721 0.196399 0.237395 0.237907 0.27064
          0.318366 0.338521 0.2 0.199421 0.198954 0.198657 0.198489 0.198399 0.198351 0.198319 0.198281 0.198204
          0.198022 0.197587 0.19659 0.194444 0.190371 0.184526 0.179511 0.178581 0.182755 0.191377 0.203748 0.219982
          0.241708 0.274237 0.341482 0.2 0.199722 0.199491 0.199327 0.199224 0.199164 0.19913 0.199109 0.199083
          0.199028 0.198887 0.198527 0.197669 0.19577 0.192088 0.18655 0.181331 0.179791 0.183407 0.191719 0.204028
          0.220426 0.242599 0.276169 0.34547 0.2 0.199852 0.199737 0.199648 0.199589 0.199553 0.199533 0.199522
          0.199512 0.199487 0.199405 0.199163 0.198538 0.196968 0.193775 0.188555 0.182713 0.179554 0.181363 0.188209
          0.199395 0.214705 0.235271 0.265623 0.327562 0.199941 0.199916 0.199867 0.199824 0.199793 0.199774 0.199765
          0.199764 0.19977 0.199778 0.199772 0.199707 0.199731 0.198555 0.195918 0.191219 0.184903 0.179622 0.1785
          0.182591 0.191442 0.204412 0.221498 0.244657 0.284512 0.199964 0.199956 0.199939 0.19992 0.199905 0.199897
          0.199895 0.199902 0.19992 0.199954 0.200014 0.200202 0.204168 0.203477 0.201361 0.197318 0.190875 0.183113
          0.17735 0.176802 0.182177 0.193249 0.207181 0.224961 0.252842 0.199992 0.19999 0.199983 0.199976 0.19997
          0.199967 0.19997 0.19998 0.200003 0.200048 0.200131 0.200422 0.233968 0.234449 0.233237 0.230905 0.226936
          0.220565 0.211331 0.199967 0.18871 0.184524 0.193951 0.208018 0.228496 0.200025 0.200024 0.200022 0.200019
          0.200017 0.200017 0.200021 0.200031 0.200052 0.20009 0.200155 0.200276 0.200056 0.200057 0.200051 0.200038
          0.200016 0.19998 0.199925 0.199839 0.199478 0.169722 0.182666 0.194608 0.209567 0.200073 0.200073 0.200072
          0.200071 0.200071 0.200072 0.200076 0.200084 0.200098 0.200123 0.200155 0.20018 0.200001 0.2 0.2
          0.2 0.2 0.2 0.2 0.199999 0.199776 0.170333 0.17817 0.186078 0.195987 0.200157 0.200157
          0.200157 0.200157 0.200157 0.200158 0.200161 0.200166 0.200174 0.200186 0.200198 0.200201 0.200001 0.2
          0.2 0.2 0.2 0.2 0.2 0.2 0.199876 0.177261 0.180144 0.183595 0.188705 0.200311
          0.200311 0.200311 0.200311 0.200311 0.200312 0.200314 0.200316 0.20032 0.200324 0.200324 0.200318 0.200001
          0.2 0.2 0.2 0.2 0.2 0.2 0.2 0.199938 0.186111 0.186157 0.186643 0.188197
          0.200593 0.200593 0.200593 0.200593 0.200593 0.200593 0.200594 0.200596 0.200597 0.200596 0.200591 0.200577
          0.200002 0.2 0.2 0.2 0.2 0.2 0.2 0.2 0.199972 0.192869 0.192489 0.192162
          0.192268 0.201128 0.201128 0.201128 0.201128 0.201129 0.201129 0.20113 0.20113 0.201131 0.201129 0.201122
          0.201104 0.200004 0.2 0.2 0.2 0.2 0.2 0.2 0.2 0.19999 0.197188 0.196942
          0.196711 0.196638 0.202525 0.202525 0.202525 0.202525 0.202525 0.202526 0.202526 0.202527 0.202528 0.202528
          0.202525 0.202518 0.200009 0.2 0.2 0.2 0.2 0.2 0.2 0.2 0.200002 0.20058
          0.200446 0.200336 0.200293 0.209733 0.209733 0.209733 0.209733 0.209733 0.209733 0.209734 0.209735 0.209736
          0.209738 0.209734 0.209792 0.200016 0.2 0.2 0.2 0.2 0.2 0.2 0.2 0.200013
          0.208756 0.208605 0.208553 0.208532 0.263502 0.263502 0.263502 0.263502 0.263502 0.263502 0.263502 0.263503
          0.263503 0.263502 0.263487 0.26374 0.200114 0.200093 0.200093 0.200093 0.200093 0.200093 0.200093 0.200093
          0.200112 0.263245 0.262928 0.262915 0.262906
        </DataArray>
        <DataArray type="Float32" Name="S_liq" NumberOfComponents="1" format="ascii">
          0.8 0.866181 0.8 0.80436 0.868889 0.806194 0.869851 0.806855 0.870291 0.807153 0.870503 0.807294
          0.870611 0.807365 0.870682 0.80741 0.870764 0.807462 0.870922 0.807561 0.871279 0.807787 0.872104 0.808309
          0.873997 0.809484 0.878293 0.812023 0.887362 0.816926 0.901905 0.823976 0.915486 0.829764 0.917591 0.830581
          0.904499 0.825753 0.883004 0.816156 0.859191 0.802633 0.833648 0.785279 0.803601 0.762605 0.762093 0.72936
          0.681634 0.661479 0.8 0.800579 0.801046 0.801343 0.801511 0.801601 0.801649 0.801681 0.801719 0.801796
          0.801978 0.802413 0.80341 0.805556 0.809629 0.815474 0.820489 0.821419 0.817245 0.808623 0.796252 0.780018
          0.758292 0.725763 0.658518 0.8 0.800278 0.800509 0.800673 0.800776 0.800836 0.80087 0.800891 0.800917
          0.800972 0.801113 0.801473 0.802331 0.80423 0.807912 0.81345 0.818669 0.820209 0.816593 0.808281 0.795972
          0.779574 0.757401 0.723831 0.65453 0.8 0.800148 0.800263 0.800352 0.800411 0.800447 0.800467 0.800478
          0.800488 0.800513 0.800595 0.800837 0.801462 0.803032 0.806225 0.811445 0.817287 0.820446 0.818637 0.811791
          0.800605 0.785295 0.764729 0.734377 0.672438 0.800059 0.800084 0.800133 0.800176 0.800207 0.800226 0.800235
          0.800236 0.80023 0.800222 0.800228 0.800293 0.800269 0.801445 0.804082 0.808781 0.815097 0.820378 0.8215
          0.817409 0.808558 0.795588 0.778502 0.755343 0.715488 0.800036 0.800044 0.800061 0.80008 0.800095 0.800103
          0.800105 0.800098 0.80008 0.800046 0.799986 0.799798 0.795833 0.796523 0.798639 0.802682 0.809125 0.816887
          0.82265 0.823198 0.817823 0.806751 0.792819 0.775039 0.747158 0.800008 0.80001 0.800017 0.800024 0.80003
          0.800033 0.80003 0.80002 0.799997 0.799952 0.799869 0.799578 0.766032 0.765551 0.766763 0.769095 0.773064
          0.779435 0.788669 0.800033 0.81129 0.815476 0.806049 0.791982 0.771504 0.799975 0.799976 0.799978 0.799981
          0.799983 0.799983 0.799979 0.799969 0.799948 0.79991 0.799845 0.799724 0.799944 0.799944 0.799949 0.799962
          0.799984 0.80002 0.800075 0.800161 0.800522 0.830278 0.817334 0.805392 0.790433 0.799927 0.799927 0.799928
          0.799929 0.799929 0.799928 0.799924 0.799917 0.799902 0.799877 0.799845 0.79982 0.799999 0.8 0.8
          0.8 0.8 0.8 0.8 0.800001 0.800224 0.829667 0.821829 0.813922 0.804013 0.799843 0.799843
          0.799843 0.799843 0.799843 0.799842 0.799839 0.799834 0.799826 0.799814 0.799802 0.799799 0.799999 0.8
          0.8 0.8 0.8 0.8 0.8 0.8 0.800124 0.822739 0.819856 0.816405 0.811295 0.799689
          0.799689 0.799689 0.799689 0.799689 0.799688 0.799686 0.799684 0.79968 0.799676 0.799676 0.799682 0.799999
          0.8 0.8 0.8 0.8 0.8 0.8 0.8 0.800062 0.813889 0.813843 0.813357 0.811803
          0.799407 0.799407 0.799407 0.799407 0.799407 0.799407 0.799406 0.799405 0.799403 0.799404 0.799409 0.799423
          0.799998 0.8 0.8 0.8 0.8 0.8 0.8 0.8 0.800028 0.807131 0.807511 0.807838
          0.807732 0.798872 0.798872 0.798872 0.798872 0.798871 0.798871 0.79887 0.79887 0.798869 0.798871 0.798878
          0.798896 0.799996 0.8 0.8 0.8 0.8 0.8 0.8 0.8 0.80001 0.802812 0.803058
          0.803289 0.803362 0.797475 0.797475 0.797475 0.797475 0.797475 0.797474 0.797474 0.797473 0.797472 0.797472
          0.797475 0.797482 0.799991 0.8 0.8 0.8 0.8 0.8 0.8 0.8 0.799998 0.79942
          0.799554 0.799664 0.799707 0.790267 0.790267 0.790267 0.790267 0.790267 0.790267 0.790266 0.790265 0.790264
          0.790262 0.790266 0.790208 0.799984 0.8 0.8 0.8 0.8 0.8 0.8 0.8 0.799987
          0.791244 0.791395 0.791447 0.791468 0.736498 0.736498 0.736498 0.736498 0.736498 0.736498 0.736498 0.736497
          0.736497 0.736498 0.736513 0.73626 0.799886 0.799907 0.799907 0.799907 0.799907 0.799907 0.799907 0.799907
          0.799888 0.736755 0.737072 0.737085 0.737094
        </DataArray>
        <DataArray type="Float32" Name="p_gas" NumberOfComponents="1" format="ascii">
          100000 109654 100000 102761 113070 104819 114556 105929 115254 106496 115589 106782
          115759 106930 115867 107027 115990 107141 116226 107362 116763 107872 118003 109062
          120813 111782 126989 117801 140025 130516 165527 155330 208669 197660 270090 258345
          345486 332383 426737 412417 506728 492017 581434 566823 648240 633882 703988 689963
          741291 727855 100000 101416 102542 103280 103699 103924 104045 104126 104222 104416
          104878 105984 108553 114299 126495 150264 190697 248738 319848 397079 474245 546970
          612219 666968 704500 100000 100729 101336 101768 102038 102193 102279 102336 102403
          102547 102916 103847 106089 111192 122092 143448 180247 234051 301056 374595 448378
          517810 579718 631337 667913 100000 100382 100685 100915 101071 101164 101216 101245
          101274 101346 101571 102232 103981 108170 117268 135254 166886 214664 276046 344772
          414214 479281 536331 581950 610580 100150 100215 100343 100455 100535 100585 100609
          100613 100602 100590 100630 100909 101991 105141 112351 126763 152536 192917 247052
          309489 373176 432483 483500 521996 539949 100095 100115 100160 100209 100246 100268
          100273 100258 100216 100134 99996.6 99797.5 99900.9 102035 107704 119171 139637 172361
          218315 273594 329458 379930 423637 456235 470208 100026 100032 100049 100069 100084
          100091 100085 100060 100004 99890.5 99676.4 99259.8 97769.5 99325.2 104184 114132 131539
          158574 196386 244307 298633 318894 361676 387849 399219 99949.6 99952 99958.2 99965.3
          99970.2 99970 99960.6 99935.3 99882.4 99783 99611.6 99359.6 99954.9 99955.4 99972.4 100018
          100111 100284 100571 100992 102238 290845 300346 318964 328122 99842 99842.9 99845
          99847.2 99848 99845.4 99836.4 99816.4 99778.3 99714.4 99625.6 99556.4 99997.4 99999.9 99999.9
          100000 100000 100000 100001 100002 100623 229049 239927 252918 260045 99657.8 99658.1
          99658.7 99659.1 99658.6 99655.8 99649.2 99636.2 99614.3 99583.2 99550.8 99537.7 99998 100000
          100000 100000 100000 100000 100000 100001 100323 178256 186363 195412 200389 99323.8
          99323.8 99323.9 99323.8 99323 99321 99316.9 99310 99300.2 99290.1 99286.3 99299 99997
          100000 100000 100000 100000 100000 100000 100000 100158 142647 147281 152355 155083
          98724.9 98724.9 98724.8 98724.6 98724 98722.7 98720.4 98717.3 98714.5 98715.5 98727 98758.1
          99994.5 100000 100000 100000 100000 100000 100000 100000 100071 120816 122954 125186
          126288 97692.6 97692.6 97692.5 97692.3 97691.8 97690.9 97689.6 97688 97687.3 97691.3 97708.5
          97754.1 99989.1 100000 100000 100000 100000 100000 100000 100000 100024 108332 109216
          110059 110429 96017.1 96017.1 96017 96016.8 96016.4 96015.6 96014.4 96012.4 96009.9 96008.5
          96016 96058 99979 100000 100000 100000 100000 100000 100000 100000 99994.6 100981
          101327 101638 101765 93607.6 93607.6 93607.5 93607.3 93606.8 93606 93604.3 93601 93594.4
          93581.1 93556.5 93531.1 99961.8 99999.8 99999.9 99999.9 99999.9 99999.9 99999.9 99999.8 99969.4
          95940 96132.6 96279.6 96333.8 91463.7 91463.7 91463.6 91463.4 91462.9 91461.9 91459.9 91455.5
          91445.6 91422.8 91366.8 91207.1 99906.2 99957.8 99957.9 99957.9 99957.9 99957.9 99957.9 99957.8
          99911.6 92864.8 93114.1 93236.5 93275.6
        </DataArray>
        <DataArray type="Float32" Name="p_liq" NumberOfComponents="1" format="ascii">
          88453 98695.2 88453 91256.1 102134 93331.6 103628 94447 104329 95017.4 104666 95304.4
          104837 95453.7 104945 95551.1 105069 95664.7 105307 95886.9 105846 96398.8 107093 97593.7
          109918 100325 116128 106368 129237 119128 154852 144007 198095 186389 259532 247082
          334830 321076 415914 401022 495712 480495 570198 555132 636727 621958 692058 677670
          728402 714689 88453 89874.9 91005.4 91745.4 92166.8 92392.4 92514 92594.9 92691.3 92886.4
          93350.5 94460 97038.2 102805 115039 138863 179343 237392 308463 385614 462661 535226
          600248 654633 691291 88453 89184.4 89793.8 90227.3 90498.7 90654.1 90740.5 90797.3 90864.5
          91009.3 91379.4 92314.3 94564.2 99685.4 110620 132029 168875 222693 289666 363127 436792
          506061 567738 618979 654646 88453 88836.5 89140.4 89371.9 89527.6 89621.6 89673.6 89702.8
          89731.9 89804.2 90030.2 90692.8 92448.5 96652.5 105780 123815 155502 203309 264674 333337
          402672 467589 524429 569714 597567 88603.8 88669 88797.5 88909.5 88990.3 89040.1 89064.1
          89067.9 89056.9 89045.3 89084.8 89365.2 90446.6 93608 100843 115299 141132 181561 235707
          298106 361710 420893 471741 509993 527491 88548.3 88568 88614 88662.8 88700.3 88722.4
          88727.4 88712.3 88669.6 88587 88449.5 88248.6 88313.6 90453.9 96143.8 107649 128176 160973
          206980 262264 318079 368447 412020 444440 458116 88478.7 88485.5 88502.4 88521.8 88537.1
          88544 88538.4 88513.6 88456.6 88343.1 88128.1 87708.7 85881 87431.8 92303.6 102276 119724
          146824 184728 232760 287193 307493 350187 376224 387388 88402.4 88404.8 88410.9 88418.1
          88423.1 88422.8 88413.3 88388 88334.9 88235.1 88063.1 87809.9 88407.4 88407.9 88424.9 88470.9
          88564.2 88736.8 89024.6 89446.6 90695.8 279579 288962 307469 316482 88294.3 88295.2 88297.3
          88299.5 88300.3 88297.7 88288.6 88268.5 88230.3 88166.2 88077.1 88007.6 88450.4 88452.9 88452.9
          88453 88453.1 88453.4 88453.8 88455.4 89078.1 217778 228584 241503 248537 88109.3 88109.5
          88110.1 88110.6 88110 88107.3 88100.6 88087.6 88065.7 88034.4 88001.9 87988.8 88450.9 88453
          88453 88453 88453 88453 88453 88453.5 88777.5 166922 175002 184020 188949 87773.8
          87773.8 87773.9 87773.8 87773 87771 87766.9 87759.9 87750.2 87740 87736.2 87748.9 88450
          88453 88453 88453 88453 88453 88453 88453.3 88612 131232 135865 140934 143648
          87172.2 87172.2 87172.1 87171.9 87171.3 87170 87167.7 87164.6 87161.8 87162.7 87174.3 87205.5
          88447.4 88453 88453 88453 88453 88453 88453 88453.1 88523.8 109337 111478 113713
          114815 86134.7 86134.7 86134.6 86134.4 86133.9 86133 86131.7 86130.1 86129.4 86133.4 86150.7
          86196.5 88442.1 88453 88453 88453 88453 88453 88453 88453 88476.9 96812.5 97698.7
          98543.4 98914.6 84445.7 84445.7 84445.6 84445.4 84445 84444.3 84443 84441 84438.5 84437.1
          84444.6 84486.7 88431.9 88452.9 88453 88453 88453 88453 88453 88453 88447.6 89428.8
          89775.7 90087.8 90215.2 81965.8 81965.7 81965.7 81965.5 81965 81964.2 81962.5 81959.2 81952.5
          81939.3 81914.7 81888.8 88414.6 88452.8 88452.9 88452.9 88452.9 88452.9 88452.9 88452.8 88422.3
          84307.8 84501.9 84649.4 84703.8 79252.4 79252.4 79252.3 79252.1 79251.6 79250.7 79248.6 79244.2
          79234.3 79211.5 79155.7 78993.2 88358.1 88409.9 88410 88410 88410 88410 88410 88409.9
          88363.5 80656.4 80909.4 81031.9 81071.1
        </DataArray>
        <DataArray type="Float32" Name="rho_liq" NumberOfComponents="1" format="ascii">
          997.042 997.047 997.042 997.044 997.049 997.045 997.049 997.045 997.05 997.045 997.05 997.046
          997.05 997.046 997.05 997.046 997.05 997.046 997.05 997.046 997.05 997.046 997.051 997.047
          997.052 997.048 997.055 997.051 997.061 997.056 997.072 997.068 997.092 997.087 997.12 997.114
          997.153 997.147 997.19 997.183 997.226 997.219 997.259 997.253 997.289 997.283 997.314 997.308
          997.331 997.324 997.042 997.043 997.044 997.044 997.044 997.044 997.044 997.044 997.044 997.044
          997.045 997.045 997.046 997.049 997.054 997.065 997.083 997.109 997.142 997.176 997.211 997.244
          997.273 997.297 997.314 997.042 997.043 997.043 997.043 997.043 997.043 997.044 997.044 997.044
          997.044 997.044 997.044 997.045 997.048 997.052 997.062 997.079 997.103 997.133 997.166 997.199
          997.23 997.258 997.281 997.297 997.042 997.043 997.043 997.043 997.043 997.043 997.043 997.043
          997.043 997.043 997.043 997.043 997.044 997.046 997.05 997.058 997.073 997.094 997.122 997.153
          997.184 997.213 997.239 997.259 997.272 997.043 997.043 997.043 997.043 997.043 997.043 997.043
          997.043 997.043 997.043 997.043 997.043 997.043 997.045 997.048 997.055 997.066 997.084 997.109
          997.137 997.165 997.192 997.215 997.232 997.24 997.043 997.043 997.043 997.043 997.043 997.043
          997.043 997.043 997.043 997.043 997.042 997.042 997.042 997.043 997.046 997.051 997.06 997.075
          997.096 997.121 997.146 997.169 997.188 997.203 997.209 997.042 997.042 997.042 997.042 997.042
          997.043 997.042 997.042 997.042 997.042 997.042 997.042 997.041 997.042 997.044 997.049 997.057
          997.069 997.086 997.107 997.132 997.141 997.16 997.172 997.177 997.042 997.042 997.042 997.042
          997.042 997.042 997.042 997.042 997.042 997.042 997.042 997.042 997.042 997.042 997.042 997.042
          997.043 997.043 997.043 997.043 997.043 997.129 997.133 997.141 997.145 997.042 997.042 997.042
          997.042 997.042 997.042 997.042 997.042 997.042 997.042 997.042 997.042 997.042 997.042 997.042
          997.042 997.042 997.042 997.042 997.042 997.043 997.101 997.106 997.111 997.115 997.042 997.042
          997.042 997.042 997.042 997.042 997.042 997.042 997.042 997.042 997.042 997.042 997.042 997.042
          997.042 997.042 997.042 997.042 997.042 997.042 997.043 997.078 997.081 997.086 997.088 997.042
          997.042 997.042 997.042 997.042 997.042 997.042 997.042 997.042 997.042 997.042 997.042 997.042
          997.042 997.042 997.042 997.042 997.042 997.042 997.042 997.043 997.062 997.064 997.066 997.067
          997.042 997.042 997.042 997.042 997.042 997.042 997.042 997.042 997.042 997.042 997.042 997.042
          997.042 997.042 997.042 997.042 997.042 997.042 997.042 997.042 997.042 997.052 997.053 997.054
          997.054 997.041 997.041 997.041 997.041 997.041 997.041 997.041 997.041 997.041 997.041 997.041
          997.041 997.042 997.042 997.042 997.042 997.042 997.042 997.042 997.042 997.042 997.046 997.047
          997.047 997.047 997.041 997.041 997.041 997.041 997.041 997.041 997.041 997.041 997.041 997.041
          997.041 997.041 997.042 997.042 997.042 997.042 997.042 997.042 997.042 997.042 997.042 997.043
          997.043 997.043 997.043 997.04 997.04 997.04 997.04 997.04 997.04 997.04 997.04 997.04
          997.04 997.04 997.039 997.042 997.042 997.042 997.042 997.042 997.042 997.042 997.042 997.042
          997.041 997.041 997.041 997.041 997.038 997.038 997.038 997.038 997.038 997.038 997.038 997.038
          997.038 997.038 997.038 997.038 997.042 997.042 997.042 997.042 997.042 997.042 997.042 997.042
          997.042 997.039 997.039 997.039 997.039
        </DataArray>
        <DataArray type="Float32" Name="rho_gas" NumberOfComponents="1" format="ascii">
          1.11726 1.22635 1.11726 1.14847 1.26496 1.17172 1.28175 1.18426 1.28963 1.19067 1.29343 1.1939
          1.29535 1.19558 1.29657 1.19668 1.29796 1.19795 1.30063 1.20045 1.30669 1.20621 1.32071 1.21966
          1.35246 1.2504 1.42225 1.31842 1.56956 1.4621 1.85775 1.74252 2.34527 2.22087 3.03936 2.90664
          3.89137 3.74329 4.80954 4.64772 5.71348 5.54724 6.55769 6.39258 7.31263 7.15038 7.94261 7.78412
          8.36415 8.21232 1.11726 1.13327 1.14599 1.15432 1.15907 1.16161 1.16298 1.16389 1.16497 1.16717
          1.17239 1.18488 1.21391 1.27884 1.41667 1.68527 2.14219 2.79807 3.60164 4.47439 5.3464 6.16824
          6.90557 7.52427 7.94839 1.11726 1.1255 1.13236 1.13724 1.1403 1.14204 1.14302 1.14366 1.14441
          1.14604 1.15021 1.16074 1.18607 1.24374 1.36691 1.60825 2.02409 2.6321 3.38929 4.22032 5.05409
          5.83871 6.53831 7.12162 7.53494 1.11726 1.12158 1.125 1.12761 1.12936 1.13042 1.131 1.13133
          1.13166 1.13248 1.13502 1.14248 1.16225 1.20959 1.3124 1.51565 1.8731 2.41302 3.10667 3.8833
          4.66802 5.40331 6.04801 6.56352 6.88705 1.11896 1.11969 1.12114 1.1224 1.12331 1.12387 1.12414
          1.12419 1.12406 1.12393 1.12438 1.12754 1.13976 1.17536 1.25683 1.41969 1.71095 2.16727 2.77902
          3.48458 4.20427 4.87447 5.451 5.88601 6.08889 1.11834 1.11856 1.11908 1.11962 1.12005 1.1203
          1.12035 1.12018 1.1197 1.11877 1.11722 1.11497 1.11614 1.14025 1.20432 1.3339 1.56517 1.93497
          2.45427 3.07895 3.71025 4.2806 4.77451 5.14289 5.30078 1.11755 1.11763 1.11782 1.11804 1.11821
          1.11829 1.11822 1.11795 1.1173 1.11603 1.11361 1.1089 1.09206 1.10964 1.16455 1.27696 1.47367
          1.77918 2.20646 2.74799 3.36191 3.59087 4.07433 4.37009 4.49858 1.11669 1.11672 1.11679 1.11687
          1.11693 1.11692 1.11682 1.11653 1.11593 1.11481 1.11287 1.11003 1.11675 1.11676 1.11695 1.11747
          1.11852 1.12047 1.12371 1.12847 1.14255 3.2739 3.38126 3.59166 3.69515 1.11548 1.11549 1.11551
          1.11554 1.11554 1.11551 1.11541 1.11519 1.11476 1.11403 1.11303 1.11225 1.11723 1.11726 1.11726
          1.11726 1.11726 1.11727 1.11727 1.11729 1.1243 2.57558 2.6985 2.84531 2.92585 1.1134 1.1134
          1.11341 1.11341 1.1134 1.11337 1.1133 1.11315 1.1129 1.11255 1.11219 1.11204 1.11724 1.11726
          1.11726 1.11726 1.11726 1.11726 1.11726 1.11727 1.12092 2.00159 2.0932 2.19547 2.2517 1.10962
          1.10962 1.10962 1.10962 1.10961 1.10959 1.10954 1.10947 1.10935 1.10924 1.1092 1.10934 1.11723
          1.11726 1.11726 1.11726 1.11726 1.11726 1.11726 1.11727 1.11905 1.5992 1.65156 1.7089 1.73973
          1.10285 1.10285 1.10285 1.10285 1.10284 1.10283 1.1028 1.10277 1.10274 1.10275 1.10288 1.10323
          1.1172 1.11726 1.11726 1.11726 1.11726 1.11726 1.11726 1.11726 1.11806 1.3525 1.37665 1.40187
          1.41433 1.09119 1.09119 1.09119 1.09118 1.09118 1.09117 1.09115 1.09114 1.09113 1.09117 1.09137
          1.09188 1.11714 1.11726 1.11726 1.11726 1.11726 1.11726 1.11726 1.11726 1.11753 1.21142 1.22141
          1.23093 1.23512 1.07225 1.07225 1.07225 1.07225 1.07225 1.07224 1.07222 1.0722 1.07217 1.07216
          1.07224 1.07272 1.11702 1.11726 1.11726 1.11726 1.11726 1.11726 1.11726 1.11726 1.1172 1.12835
          1.13226 1.13577 1.13721 1.04502 1.04502 1.04502 1.04502 1.04502 1.04501 1.04499 1.04495 1.04488
          1.04473 1.04445 1.04416 1.11683 1.11726 1.11726 1.11726 1.11726 1.11726 1.11726 1.11726 1.11692
          1.07138 1.07356 1.07522 1.07583 1.0208 1.0208 1.0208 1.02079 1.02079 1.02078 1.02076 1.0207
          1.02059 1.02034 1.0197 1.0179 1.1162 1.11678 1.11679 1.11679 1.11679 1.11679 1.11679 1.11679
          1.11626 1.03663 1.03945 1.04083 1.04127
        </DataArray>
        <DataArray type="Float32" Name="mob_liq" NumberOfComponents="1" format="ascii">
          355.503 540.266 355.503 365.95 549.104 370.412 552.271 372.029 553.722 372.761 554.423 373.108
          554.782 373.283 555.016 373.394 555.288 373.521 555.811 373.766 556.996 374.322 559.74 375.608
          566.07 378.519 580.645 384.866 612.328 397.351 665.818 415.829 718.868 431.477 727.374 433.723
          675.735 420.597 596.973 395.386 517.978 361.806 442.244 321.901 364.147 274.846 273.849 215.419
          147.621 124.419 355.503 356.877 357.988 358.697 359.098 359.312 359.427 359.504 359.595 359.778
          360.216 361.258 363.654 368.857 378.881 393.624 406.612 409.06 398.183 376.401 346.723 310.481
          266.514 209.622 121.257 355.503 356.163 356.71 357.1 357.347 357.489 357.569 357.62 357.681
          357.812 358.15 359.007 361.059 365.635 374.629 388.471 401.861 405.882 396.502 375.555 346.071
          309.529 264.814 206.557 117.092 355.503 355.854 356.128 356.337 356.479 356.565 356.612 356.638
          356.661 356.721 356.915 357.491 358.981 362.743 370.489 383.417 398.284 406.503 401.786 384.298
          356.956 321.932 279.016 223.697 136.663 355.643 355.702 355.818 355.919 355.993 356.038 356.06
          356.062 356.048 356.029 356.044 356.197 356.141 358.939 365.278 376.778 392.661 406.323 409.272
          398.607 376.24 345.18 307.243 260.923 193.706 355.589 355.607 355.648 355.693 355.727 355.747
          355.751 355.736 355.693 355.611 355.471 355.025 345.728 347.335 352.288 361.903 377.629 397.25
          412.308 413.766 399.678 371.791 338.805 299.951 245.875 355.521 355.527 355.542 355.56 355.574
          355.58 355.574 355.551 355.497 355.39 355.193 354.504 281.58 280.625 283.038 287.726 295.837
          309.216 329.404 355.589 383.038 393.638 370.074 336.893 292.641 355.443 355.445 355.451 355.458
          355.462 355.462 355.453 355.429 355.38 355.289 355.137 354.849 355.369 355.369 355.382 355.412
          355.466 355.549 355.682 355.884 356.741 432.891 398.413 368.468 333.377 355.329 355.33 355.332
          355.334 355.335 355.332 355.324 355.305 355.27 355.213 355.135 355.076 355.501 355.503 355.503
          355.503 355.503 355.503 355.504 355.505 356.035 431.213 410.141 389.674 365.12 355.131 355.131
          355.131 355.132 355.131 355.129 355.122 355.111 355.091 355.063 355.035 355.026 355.501 355.503
          355.503 355.503 355.503 355.503 355.503 355.504 355.796 412.541 404.955 396.013 383.044 354.766
          354.767 354.767 354.766 354.766 354.764 354.76 354.754 354.745 354.736 354.735 354.75 355.5
          355.503 355.503 355.503 355.503 355.503 355.503 355.503 355.65 389.584 389.467 388.236 384.316
          354.101 354.101 354.101 354.1 354.1 354.099 354.097 354.094 354.091 354.092 354.105 354.138
          355.498 355.503 355.503 355.503 355.503 355.503 355.503 355.503 355.57 372.709 373.643 374.448
          374.188 352.836 352.836 352.836 352.836 352.835 352.835 352.833 352.832 352.831 352.834 352.851
          352.894 355.492 355.503 355.503 355.503 355.503 355.503 355.503 355.503 355.526 362.216 362.806
          363.363 363.54 349.556 349.556 349.556 349.556 349.555 349.555 349.553 349.552 349.549 349.548
          349.556 349.572 355.483 355.503 355.503 355.503 355.503 355.503 355.503 355.503 355.498 354.13
          354.448 354.707 354.809 332.992 332.992 332.992 332.991 332.991 332.99 332.989 332.987 332.983
          332.979 332.989 332.858 355.465 355.503 355.503 355.503 355.503 355.503 355.503 355.503 355.473
          335.201 335.544 335.66 335.709 227.254 227.254 227.254 227.253 227.253 227.253 227.253 227.252
          227.252 227.254 227.278 226.85 355.232 355.284 355.284 355.284 355.284 355.284 355.284 355.284
          355.237 227.688 228.227 228.25 228.265
        </DataArray>
        <DataArray type="Float32" Name="mob_gas" NumberOfComponents="1" format="ascii">
          1551.67 486.768 1551.67 1456.9 458.658 1418.17 448.928 1404.38 444.526 1398.18 442.414 1395.25
          441.335 1393.77 440.633 1392.84 439.819 1391.77 438.256 1389.71 434.733 1385.05 426.665 1374.32
          408.531 1350.32 369.218 1299.39 294.475 1204.5 196.412 1075.96 126.744 977.228 117.668 963.783
          181.55 1045.01 329.028 1219.11 564.395 1494 914.345 1899.94 1473.13 2525.6 2541.04 3650.89
          5729.63 6779.82 1551.67 1538.87 1528.59 1522.08 1518.4 1516.44 1515.39 1514.69 1513.86 1512.18
          1508.2 1498.75 1477.24 1431.56 1347.37 1232.12 1138.39 1121.52 1198.5 1367.88 1636.16 2035.29
          2657.33 3788.12 6942.93 1551.67 1545.51 1540.42 1536.8 1534.52 1533.2 1532.47 1531.99 1531.43
          1530.22 1527.11 1519.24 1500.55 1459.68 1382.48 1271.3 1171.88 1143.5 1210.81 1374.88 1642.59
          2046.99 2685.09 3863.11 7166.28 1551.67 1548.39 1545.84 1543.89 1542.57 1541.77 1541.33 1541.09
          1540.87 1540.31 1538.52 1533.19 1519.48 1485.38 1417.51 1310.86 1197.69 1139.17 1172.45 1303.98
          1538.3 1899.53 2462.24 3464.64 6195.81 1550.36 1549.81 1548.73 1547.78 1547.09 1546.67 1546.47
          1546.45 1546.58 1546.76 1546.61 1545.19 1545.72 1519.85 1462.83 1364.63 1239.36 1140.41 1120.07
          1195.4 1369.2 1651.42 2075.39 2749.82 4197.29 1550.87 1550.7 1550.31 1549.89 1549.57 1549.39
          1549.35 1549.49 1549.89 1550.66 1551.97 1556.15 1645.79 1629.94 1582.03 1492.94 1357.62 1205.25
          1099.44 1089.7 1187.63 1406.53 1716.02 2168.8 3016.81 1551.5 1551.44 1551.3 1551.13 1551
          1550.95 1551 1551.22 1551.73 1552.72 1554.57 1561.04 2423.88 2437.99 2402.52 2335.15 2223.23
          2050.64 1815.81 1550.94 1313.95 1232.09 1421.2 1735.87 2266.8 1552.23 1552.21 1552.15 1552.09
          1552.05 1552.06 1552.14 1552.36 1552.82 1553.67 1555.1 1557.8 1552.92 1552.92 1552.8 1552.52
          1552.02 1551.23 1550 1548.11 1540.13 968.764 1196.81 1435.03 1772.97 1553.29 1553.29 1553.27
          1553.25 1553.24 1553.27 1553.35 1553.52 1553.85 1554.39 1555.12 1555.67 1551.69 1551.67 1551.67
          1551.67 1551.67 1551.67 1551.66 1551.65 1546.7 978.837 1114.13 1262.09 1464.3 1555.16 1555.15
          1555.15 1555.14 1555.15 1555.17 1555.23 1555.34 1555.53 1555.79 1556.05 1556.14 1551.69 1551.67
          1551.67 1551.67 1551.67 1551.67 1551.67 1551.66 1548.93 1097.86 1149.97 1214.37 1313.85 1558.57
          1558.57 1558.57 1558.57 1558.58 1558.6 1558.63 1558.69 1558.77 1558.85 1558.87 1558.73 1551.7
          1551.67 1551.67 1551.67 1551.67 1551.67 1551.67 1551.67 1550.29 1262.73 1263.63 1273.11 1303.74
          1564.84 1564.84 1564.84 1564.84 1564.85 1564.86 1564.88 1564.9 1564.93 1564.92 1564.8 1564.49
          1551.72 1551.67 1551.67 1551.67 1551.67 1551.67 1551.67 1551.67 1551.05 1398.62 1390.75 1384
          1386.18 1576.81 1576.81 1576.81 1576.81 1576.81 1576.82 1576.83 1576.85 1576.86 1576.82 1576.67
          1576.26 1551.77 1551.67 1551.67 1551.67 1551.67 1551.67 1551.67 1551.67 1551.46 1490.12 1484.82