<?xml version="1.0"?>
<VTKFile type="PolyData" version="0.1" byte_order="LittleEndian">
  <PolyData>
    <Piece NumberOfLines="1" NumberOfPoints="2">
      <PointData Scalars="p">
        <DataArray type="Float32" Name="p" NumberOfComponents="1" format="ascii">
          110000 100000
        </DataArray>
        <DataArray type="Float32" Name="poreInscribedRadius" NumberOfComponents="1" format="ascii">
          0.0001 0.0001
        </DataArray>
        <DataArray type="Float32" Name="T" NumberOfComponents="1" format="ascii">
          298.15 298.42
        </DataArray>
        <DataArray type="Float32" Name="coordinationNumber" NumberOfComponents="1" format="ascii">
          1 1
        </DataArray>
        <DataArray type="Float32" Name="poreLabel" NumberOfComponents="1" format="ascii">
          2 3
        </DataArray>
      </PointData>
      <CellData Scalars="process rank" Vectors="velocity_liq (m/s)">
        <DataArray type="Float32" Name="velocity_liq (m/s)" NumberOfComponents="3" format="ascii">
          0 7.82472 0
        </DataArray>
        <DataArray type="Float32" Name="process rank" NumberOfComponents="1" format="ascii">
          0
        </DataArray>
        <DataArray type="Float32" Name="throatLabel" NumberOfComponents="1" format="ascii">
          2
        </DataArray>
        <DataArray type="Float32" Name="throatInscribedRadius" NumberOfComponents="1" format="ascii">
          0.0001
        </DataArray>
        <DataArray type="Float32" Name="throatLength" NumberOfComponents="1" format="ascii">
          0.0018
        </DataArray>
        <DataArray type="Float32" Name="transmissibility" NumberOfComponents="1" format="ascii">
          3.12989e-14
        </DataArray>
        <DataArray type="Float32" Name="volumeFlux" NumberOfComponents="1" format="ascii">
          3.12989e-07
        </DataArray>
      </CellData>
      <Points>
        <DataArray type="Float32" Name="Coordinates" NumberOfComponents="3" format="ascii">
          0.0025 0 0 0.0025 0.002 0
        </DataArray>
      </Points>
      <Lines>
        <DataArray type="Int32" Name="connectivity" NumberOfComponents="1" format="ascii">
          0 1
        </DataArray>
        <DataArray type="Int32" Name="offsets" NumberOfComponents="1" format="ascii">
          2
        </DataArray>
      </Lines>
    </Piece>
  </PolyData>
</VTKFile>
