<?xml version="1.0"?>
<VTKFile type="UnstructuredGrid" version="0.1" byte_order="LittleEndian">
  <UnstructuredGrid>
    <Piece NumberOfCells="1000" NumberOfPoints="1331">
      <CellData Scalars="wetting pressure">
        <DataArray type="Float32" Name="wetting pressure" NumberOfComponents="1" format="ascii">
          265530 270705 272246 271267 268262 263397 256620 247680 236056 220665 265535 270720
          272275 271317 268339 263510 256758 247818 236162 220705 265542 270742 272319 271392
          268458 263704 257009 248084 236377 220788 265546 270758 272352 271450 268530 263904
          257287 248431 236699 220914 265545 270755 272352 271459 268534 263856 257305 248727
          237097 221052 265535 270727 272302 271386 268459 263842 257225 248376 236661 220901
          265520 270678 272217 271260 268307 263548 256859 247958 236292 220758 265502 270623
          272118 271109 268095 263249 256507 247607 236020 220655 265487 270576 272034 270982
          267918 263022 256252 247366 235844 220590 265478 270549 271987 270911 267821 262902
          256121 247246 235758 220558 261982 264516 264928 263437 260236 255390 248837 240417
          229910 217132 261987 264535 264966 263504 260342 255545 249026 240601 230048 217184
          261996 264564 265025 263608 260514 255832 249405 240976 230346 217299 262002 264587
          265074 263696 260592 256136 249966 241527 230870 217518 262001 264587 265086 263752
          260826 256277 250079 241889 231707 217967 261991 264554 265022 263630 260519 256070
          249914 241478 230833 217504 261973 264497 264918 263471 260361 255673 249252 240846
          230258 217268 261953 264432 264800 263283 260083 255268 248759 240375 229896 217130
          261935 264378 264701 263129 259864 254982 248436 240076 229679 217050 261925 264347
          264646 263045 259747 254836 248278 239931 229577 217013 260233 260432 259476 257252
          253749 248934 242732 235059 225898 215410 260241 260459 259531 257351 253915 249170
          243012 235319 226085 215479 260253 260500 259619 257521 254228 249651 243624 235892
          226508 215637 260262 260534 259699 257684 254483 250185 244578 236909 227303 215951
          260263 260540 259728 257801 254965 250633 244841 237411 228536 216613 260250 260499
          259644 257617 254415 250121 244515 236872 227268 215937 260228 260427 259503 257375
          254072 249488 243465 235755 226413 215603 260202 260345 259347 257108 253630 248864
          242714 235067 225915 215419 260181 260277 259219 256902 253324 248466 242271 234666
          225633 215316 260169 260239 259150 256792 253169 248273 242063 234481 225504 215270
          259122 257478 255238 252245 248409 243631 237820 230929 223025 214328 259132 257513
          255313 252386 248649 243963 238199 231266 223258 214412 259148 257570 255438 252638
          249145 244689 239066 232020 223783 214602 259162 257619 255555 252892 249643 245571
          240453 233374 224752 214961 259163 257630 255598 253046 250205 246088 240744 233995
          226143 215643 259148 257580 255495 252820 249576 245507 240392 233337 224714 214946
          259120 257489 255310 252478 248982 244517 238895 231868 223677 214564 259088 257384
          255105 252111 248327 243616 237860 230978 223064 214344 259062 257298 254941 251838
          247912 243082 237280 230471 222717 214220 259047 257250 254852 251697 247710 242832
          237015 230239 222559 214164 258264 255083 251677 247942 243770 239029 233611 227477
          220712 213501 258278 255129 251773 248122 244075 239443 234067 227870 220977 213594
          258298 255201 251933 248445 244715 240350 235106 228737 221561 213799 258315 255264
          252082 248771 245374 241438 236707 230237 222593 214158 258318 255280 252137 248945
          245951 241965 237021 230937 224050 214746 258301 255221 252016 248692 245301 241369
          236640 230193 222548 214141 258267 255110 251791 248272 244549 240164 234915 228564
          221440 213755 258228 254982 251537 247811 243714 239048 233680 227540 220755 213516
          258195 254876 251333 247469 243192 238389 232981 226944 220356 213376 258177 254817
          251222 247292 242939 238081 232661 226669 220172 213311 257481 252869 248351 243894
          239395 234694 229661 224262 218582 212748 257497 252924 248467 244110 239755 235171
          230177 224697 218869 212847 257522 253012 248658 244492 240493 236198 231318 225628
          219478 213055 257544 253088 248836 244869 241238 237389 233011 227164 220500 213388
          257547 253107 248898 245056 241820 237919 233352 227947 221987 213834 257527 253040
          248763 244783 241151 237311 232934 227110 220448 213368 257487 252910 248502 244314
          240380 236004 231105 225431 219340 213005 257441 252757 248199 243761 239359 234726
          229734 224319 218614 212758 257401 252629 247953 243348 238728 233952 228932 223648
          218173 212605 257379 252558 247819 243133 238422 233585 228557 223332 217964 212532
          256634 250506 244847 239675 234865 230211 225562 220894 216320 211938 256653 250573
          244986 239931 235287 230764 226146 221378 216631 212043 256683 250677 245212 240375
          236121 231906 227387 222372 217258 212252 256709 250768 245418 240801 236932 233171
          229140 223920 218213 212546 256714 250790 245489 241004 237529 233713 229518 224832
          219526 212827 256690 250714 245337 240704 236818 233084 229052 223855 218152 212522
          256644 250563 245039 240183 236022 231698 227149 222150 217102 212195 256589 250384
          244682 239538 234843 230260 225642 220947 216341 211941 256543 250232 244389 239045
          234093 229353 224719 220187 215851 211774 256516 250146 244229 238786 233725 228915
          224278 219821 215613 211692 255540 247609 240716 234838 229757 225173 220897 216951
          213557 210891 255564 247689 240886 235156 230286 225861 221611 217528 213916 211011
          255599 247815 241160 235692 231278 227209 223046 218663 214605 211236 255630 247923
          241404 236191 232198 228591 224890 220265 215517 211517 255636 247951 241488 236420
          232842 229169 225319 221223 216349 211716 255609 247864 241314 236078 232054 228500
          224796 220191 215450 211492 255556 247688 240964 235461 231070 226986 222785 218419
          214432 211174 255492 247478 240546 234711 229780 225296 221045 217044 213590 210896
          255437 247299 240196 234116 228867 224181 219923 216137 213020 210704 255406 247197
          240002 233800 228410 223635 219380 215694 212738 210608 253812 243593 235399 228885
          223624 219140 215187 211879 209705 209220 253840 243690 235612 229306 224375 220126
          216190 212653 210164 209368 253882 243840 235949 229991 225658 221939 218114 214163
          211043 209647 253918 243970 236247 230609 226810 223551 220132 216037 212152 209986
          253926 244005 236352 230897 227628 224231 220669 217025 212992 210201 253896 243906
          236151 230495 226707 223458 220040 215959 212084 209959 253836 243704 235738 229737
          225429 221715 217846 213912 210861 209581 253763 243461 235243 228829 223851 219526
          215580 212125 209808 209243 253700 243252 234823 228080 222622 218011 214076 210955
          209100 209010 253664 243133 234591 227685 222025 217291 213368 210396 208754 208895
          250278 237454 228188 221262 215963 211594 207830 204900 203707 205731 250309 237565
          228444 221819 217180 213250 209450 205992 204299 205915 250357 237737 228846 222711
          219186 216054 212777 208470 205524 206277 250397 237884 229198 223496 220891 218075
          214785 211251 207342 206759 250406 237926 229325 223855 221959 219009 215600 212070
          208835 207135 250374 237819 229099 223383 220795 217983 214699 211179 207287 206734
          250308 237596 228628 222451 218945 215810 212531 208262 205348 206210 250229 237327
          228063 221349 216803 212705 208866 205454 203927 205784 250160 237094 227578 220406
          214902 210369 206620 203896 203053 205506 250120 236963 227313 219928 214116 209417
          205701 203207 202645 205372
        </DataArray>
        <DataArray type="Float32" Name="nonwetting pressure" NumberOfComponents="1" format="ascii">
          265530 270705 272246 271267 268262 263397 256620 247680 236056 220665 265535 270720
          272275 271317 268339 263510 256758 247818 236162 220705 265542 270742 272319 271392
          268458 263704 257009 248084 236377 220788 265546 270758 272352 271450 268544 263904
          257287 248431 236699 220914 265545 270755 272352 271459 268938 263998 257367 248756
          237097 221052 265535 270727 272302 271386 268475 263842 257225 248376 236661 220901
          265520 270678 272217 271260 268307 263548 256859 247958 236292 220758 265502 270623
          272118 271109 268095 263249 256507 247607 236020 220655 265487 270576 272034 270982
          267918 263022 256252 247366 235844 220590 265478 270549 271987 270911 267821 262902
          256121 247246 235758 220558 261982 264516 264928 263437 260236 255390 248837 240417
          229910 217132 261987 264535 264966 263504 260342 255545 249026 240601 230048 217184
          261996 264564 265025 263608 260514 255832 249405 240976 230346 217299 262002 264587
          265074 263696 260661 256178 249966 241527 230870 217518 262001 264587 265086 263752
          261511 256619 250264 241998 231763 217967 261991 264554 265022 263630 260594 256116
          249914 241478 230833 217504 261973 264497 264918 263471 260361 255673 249252 240846
          230258 217268 261953 264432 264800 263283 260083 255268 248759 240375 229896 217130
          261935 264378 264701 263129 259864 254982 248436 240076 229679 217050 261925 264347
          264646 263045 259747 254836 248278 239931 229577 217013 260233 260432 259476 257252
          253749 248934 242732 235059 225898 215410 260241 260459 259531 257351 253915 249170
          243012 235319 226085 215479 260253 260500 259619 257521 254228 249651 243624 235892
          226508 215637 260262 260534 259699 257684 254628 250299 244636 236909 227303 215951
          260263 260540 259728 257801 255768 251087 245119 237589 228631 216613 260250 260499
          259644 257617 254568 250242 244578 236872 227268 215937 260228 260427 259503 257375
          254072 249488 243465 235755 226413 215603 260202 260345 259347 257108 253630 248864
          242714 235067 225915 215419 260181 260277 259219 256902 253324 248466 242271 234666
          225633 215316 260169 260239 259150 256792 253169 248273 242063 234481 225504 215270
          259122 257478 255238 252245 248409 243631 237820 230929 223025 214328 259132 257513
          255313 252386 248649 243963 238199 231266 223258 214412 259148 257570 255438 252638
          249145 244689 239066 232020 223783 214602 259162 257619 255555 252892 249830 245728
          240542 233374 224752 214961 259163 257630 255598 253046 251038 246573 241051 234194
          226245 215643 259148 257580 255495 252820 249770 245670 240486 233337 224714 214946
          259120 257489 255310 252478 248982 244517 238895 231868 223677 214564 259088 257384
          255105 252111 248327 243616 237860 230978 223064 214344 259062 257298 254941 251838
          247912 243082 237280 230471 222717 214220 259047 257250 254852 251697 247710 242832
          237015 230239 222559 214164 258264 255083 251677 247942 243770 239029 233611 227477
          220712 213501 258278 255129 251773 248122 244075 239443 234067 227870 220977 213594
          258298 255201 251933 248445 244715 240350 235106 228737 221561 213799 258315 255264
          252082 248771 245572 241609 236804 230237 222593 214158 258318 255280 252137 248945
          246784 242454 237329 231132 224136 214746 258301 255221 252016 248692 245506 241546
          236743 230193 222548 214141 258267 255110 251791 248272 244549 240164 234915 228564
          221440 213755 258228 254982 251537 247811 243714 239048 233680 227540 220755 213516
          258195 254876 251333 247469 243192 238389 232981 226944 220356 213376 258177 254817
          251222 247292 242939 238081 232661 226669 220172 213311 257481 252869 248351 243894
          239395 234694 229661 224262 218582 212748 257497 252924 248467 244110 239755 235171
          230177 224697 218869 212847 257522 253012 248658 244492 240493 236198 231318 225628
          219478 213055 257544 253088 248836 244869 241433 237561 233107 227164 220500 213388
          257547 253107 248898 245056 242647 238405 233653 228127 222042 213834 257527 253040
          248763 244783 241354 237490 233036 227110 220448 213368 257487 252910 248502 244314
          240380 236004 231105 225431 219340 213005 257441 252757 248199 243761 239359 234726
          229734 224319 218614 212758 257401 252629 247953 243348 238728 233952 228932 223648
          218173 212605 257379 252558 247819 243133 238422 233585 228557 223332 217964 212532
          256634 250506 244847 239675 234865 230211 225562 220894 216320 211938 256653 250573
          244986 239931 235287 230764 226146 221378 216631 212043 256683 250677 245212 240375
          236121 231906 227387 222372 217258 212252 256709 250768 245418 240801 237122 233342
          229232 223920 218213 212546 256714 250790 245489 241004 238349 234197 229812 224989
          219534 212827 256690 250714 245337 240704 237017 233262 229151 223855 218152 212522
          256644 250563 245039 240183 236026 231698 227149 222150 217102 212195 256589 250384
          244682 239538 234843 230260 225642 220947 216341 211941 256543 250232 244389 239045
          234093 229353 224719 220187 215851 211774 256516 250146 244229 238786 233725 228915
          224278 219821 215613 211692 255540 247609 240716 234838 229757 225173 220897 216951
          213557 210891 255564 247689 240886 235156 230286 225861 221611 217528 213916 211011
          255599 247815 241160 235692 231278 227209 223046 218663 214605 211236 255630 247923
          241404 236191 232387 228763 224979 220265 215517 211517 255636 247951 241488 236420
          233665 229653 225606 221364 216349 211716 255609 247864 241314 236078 232255 228679
          224892 220191 215450 211492 255556 247688 240964 235461 231083 226986 222785 218419
          214432 211174 255492 247478 240546 234711 229780 225296 221045 217044 213590 210896
          255437 247299 240196 234116 228867 224181 219923 216137 213020 210704 255406 247197
          240002 233800 228410 223635 219380 215694 212738 210608 253812 243593 235399 228885
          223624 219140 215187 211879 209705 209220 253840 243690 235612 229306 224375 220126
          216190 212653 210164 209368 253882 243840 235949 229991 225679 221939 218114 214163
          211043 209647 253918 243970 236247 230609 227026 223737 220227 216037 212152 209986
          253926 244005 236352 230897 228491 224733 220962 217161 212992 210201 253896 243906
          236151 230495 226933 223652 220142 215959 212084 209959 253836 243704 235738 229737
          225458 221715 217846 213912 210861 209581 253763 243461 235243 228829 223851 219526
          215580 212125 209808 209243 253700 243252 234823 228080 222622 218011 214076 210955
          209100 209010 253664 243133 234591 227685 222025 217291 213368 210396 208754 208895
          250278 237454 228188 221262 215963 211594 207830 204900 203707 205731 250309 237565
          228444 221819 217180 213250 209450 205992 204299 205915 250357 237737 228846 222711
          219400 216289 212910 208470 205524 206277 250397 237884 229198 223496 221520 218634
          215169 211423 207342 206759 250406 237926 229325 223855 223362 219974 216267 212472
          208953 207135 250374 237819 229099 223383 221437 218552 215092 211357 207287 206734
          250308 237596 228628 222451 219176 216060 212677 208262 205348 206210 250229 237327
          228063 221349 216804 212705 208866 205454 203927 205784 250160 237094 227578 220406
          214902 210369 206620 203896 203053 205506 250120 236963 227313 219928 214116 209417
          205701 203207 202645 205372
        </DataArray>
        <DataArray type="Float32" Name="wetting saturation" NumberOfComponents="1" format="ascii">
          1 1 1 1 1 1 1 1 1 1 1 1
          1 1 1 1 1 1 1 1 1 1 1 1
          1 1 1 1 1 1 1 1 1 1 0.99867 1
          1 1 1 1 1 1 1 1 0.959571 0.98578 0.993857 0.997126
          1 1 1 1 1 1 0.998433 1 1 1 1 1
          1 1 1 1 1 1 1 1 1 1 1 1
          1 1 1 1 1 1 1 1 1 1 1 1
          1 1 1 1 1 1 1 1 1 1 1 1
          1 1 1 1 1 1 1 1 1 1 1 1
          1 1 1 1 1 1 1 1 1 1 1 1
          1 1 1 1 1 1 1 1 1 1 1 1
          1 1 0.993058 0.9958 1 1 1 1 1 1 1 1
          0.931511 0.965804 0.981502 0.989113 0.99447 1 1 1 1 1 0.992472 0.995407
          1 1 1 1 1 1 1 1 1 1 1 1
          1 1 1 1 1 1 1 1 1 1 1 1
          1 1 1 1 1 1 1 1 1 1 1 1
          1 1 1 1 1 1 1 1 1 1 1 1
          1 1 1 1 1 1 1 1 1 1 1 1
          1 1 1 1 1 1 1 1 1 1 1 1
          1 1 1 1 1 1 0.985511 0.988586 0.994195 1 1 1
          1 1 1 1 0.919722 0.95464 0.97217 0.982126 0.990493 1 1 1
          1 1 0.984773 0.987961 0.993751 1 1 1 1 1 1 1
          1 1 1 1 1 1 1 1 1 1 1 1
          1 1 1 1 1 1 1 1 1 1 1 1
          1 1 1 1 1 1 1 1 1 1 1 1
          1 1 1 1 1 1 1 1 1 1 1 1
          1 1 1 1 1 1 1 1 1 1 1 1
          1 1 1 1 1 1 1 1 1 1 0.981265 0.984306
          0.991175 1 1 1 1 1 1 1 0.916734 0.951512 0.969319 0.980062
          0.9898 1 1 1 1 1 0.980532 0.983668 0.990601 1 1 1
          1 1 1 1 1 1 1 1 1 1 1 1
          1 1 1 1 1 1 1 1 1 1 1 1
          1 1 1 1 1 1 1 1 1 1 1 1
          1 1 1 1 1 1 1 1 1 1 1 1
          1 1 1 1 1 1 1 1 1 1 1 1
          1 1 1 1 1 1 1 1 1 1 1 1
          1 1 0.980233 0.982926 0.990288 1 1 1 1 1 1 1
          0.916655 0.951155 0.969212 0.980483 0.991435 1 1 1 1 1 0.979491 0.982282
          0.989705 1 1 1 1 1 1 1 1 1 1 1
          1 1 1 1 1 1 1 1 1 1 1 1
          1 1 1 1 1 1 1 1 1 1 1 1
          1 1 1 1 1 1 1 1 1 1 1 1
          1 1 1 1 1 1 1 1 1 1 1 1
          1 1 1 1 1 1 1 1 1 1 1 1
          1 1 1 1 1 1 0.980544 0.982762 0.990388 1 1 1
          1 1 1 1 0.917322 0.951386 0.969866 0.981985 0.994426 1 1 1
          1 1 0.979722 0.98208 0.989765 1 1 1 1 1 1 1
          0.999955 1 1 1 1 1 1 1 1 1 1 1
          1 1 1 1 1 1 1 1 1 1 1 1
          1 1 1 1 1 1 1 1 1 1 1 1
          1 1 1 1 1 1 1 1 1 1 1 1
          1 1 1 1 1 1 1 1 1 1 1 1
          1 1 1 1 1 1 1 1 1 1 0.981074 0.982888
          0.990794 1 1 1 1 1 1 1 0.917953 0.951634 0.970646 0.984299
          0.999176 1 1 1 1 1 0.980116 0.982159 0.990123 1 1 1
          1 1 1 1 0.999674 1 1 1 1 1 1 1
          1 1 1 1 1 1 1 1 1 1 1 1
          1 1 1 1 1 1 1 1 1 1 1 1
          1 1 1 1 1 1 1 1 1 1 1 1
          1 1 1 1 1 1 1 1 1 1 1 1
          1 1 1 1 1 1 1 1 1 1 1 1
          1 1 0.981107 0.98283 0.991098 1 1 1 1 1 1 1
          0.917746 0.951648 0.971309 0.985863 1 1 1 1 1 1 0.979856 0.982066
          0.990401 1 1 1 1 1 1 1 0.998662 1 1 1
          1 1 1 1 1 1 1 1 1 1 1 1
          1 1 1 1 1 1 1 1 1 1 1 1
          1 1 1 1 1 1 1 1 1 1 1 1
          1 1 1 1 1 1 1 1 1 1 1 1
          1 1 1 1 1 1 1 1 0.997859 1 1 1
          1 1 1 1 1 1 0.978406 0.981421 0.990497 1 1 1
          1 1 1 1 0.913678 0.949748 0.970652 0.986429 1 1 1 1
          1 1 0.977386 0.980624 0.989821 1 1 1 1 1 1 1
          0.997108 1 1 1 1 1 1 1 1 1 1 1
          1 1 1 1 1 1 1 1 1 1 1 1
          1 1 1 1 1 1 1 1 1 1 1 1
          1 1 1 1 1 1 1 1 1 1 1 1
          1 1 1 1 1 1 1 1 1 1 1 1
          0.978608 0.976555 0.986738 1 1 1 1 1 1 1 0.937184 0.944176
          0.961595 0.982785 1 1 1 1 1 1 0.859638 0.903521 0.933244 0.959762
          0.988148 1 1 1 1 1 0.93583 0.94308 0.960701 0.98219 1 1
          1 1 1 1 0.976843 0.975053 0.985345 1 1 1 1 1
          1 1 0.999897 1 1 1 1 1 1 1 1 1
          1 1 1 1 1 1 1 1 1 1 1 1
          1 1 1 1
        </DataArray>
        <DataArray type="Float32" Name="C^w from cellData" NumberOfComponents="1" format="ascii">
          199.956 199.956 199.957 199.956 199.956 199.956 199.955 199.954 199.953 199.952 199.956 199.956
          199.957 199.956 199.956 199.956 199.955 199.954 199.953 199.952 199.956 199.956 199.957 199.956
          199.937 199.956 199.955 199.954 199.953 199.952 199.956 199.956 199.957 199.939 199.394 199.639
          199.912 199.95 199.953 199.952 199.956 199.956 199.957 199.838 191.917 196.939 198.452 198.936
          199.796 199.952 199.956 199.956 199.957 199.937 199.333 199.615 199.901 199.949 199.953 199.952
          199.956 199.956 199.957 199.956 199.925 199.956 199.955 199.954 199.953 199.952 199.956 199.956
          199.957 199.956 199.956 199.956 199.955 199.954 199.953 199.952 199.956 199.956 199.957 199.956
          199.956 199.956 199.955 199.954 199.953 199.952 199.956 199.956 199.957 199.956 199.956 199.956
          199.955 199.954 199.953 199.952 199.956 199.956 199.956 199.956 199.955 199.955 199.954 199.954
          199.953 199.951 199.956 199.956 199.956 199.956 199.955 199.955 199.954 199.954 199.953 199.951
          199.956 199.956 199.956 199.956 199.78 199.912 199.954 199.954 199.953 199.951 199.956 199.956
          199.956 199.934 198.356 198.656 199.448 199.87 199.941 199.951 199.956 199.956 199.956 199.772
          186.609 193.218 196.013 197.444 198.331 199.78 199.956 199.956 199.956 199.934 198.231 198.557
          199.421 199.862 199.941 199.951 199.956 199.956 199.956 199.956 199.752 199.894 199.954 199.954
          199.953 199.951 199.956 199.956 199.956 199.956 199.955 199.955 199.954 199.954 199.953 199.951
          199.956 199.956 199.956 199.956 199.955 199.955 199.954 199.954 199.953 199.951 199.956 199.956
          199.956 199.956 199.955 199.955 199.954 199.954 199.953 199.951 199.956 199.955 199.955 199.955
          199.955 199.954 199.954 199.953 199.952 199.951 199.956 199.955 199.955 199.955 199.955 199.954
          199.954 199.953 199.952 199.951 199.956 199.955 199.955 199.955 199.664 199.748 199.916 199.953
          199.952 199.951 199.956 199.955 199.955 199.934 196.796 197.379 198.266 199.476 199.897 199.951
          199.956 199.955 199.955 199.771 184.246 191.075 194.294 196.046 197.228 199.429 199.956 199.955
          199.955 199.934 196.63 197.249 198.149 199.424 199.895 199.951 199.956 199.955 199.955 199.955
          199.641 199.711 199.903 199.953 199.952 199.951 199.956 199.955 199.955 199.955 199.955 199.954
          199.954 199.953 199.952 199.951 199.956 199.955 199.955 199.955 199.955 199.954 199.954 199.953
          199.952 199.951 199.956 199.955 199.955 199.955 199.955 199.954 199.954 199.953 199.952 199.951
          199.955 199.955 199.955 199.955 199.954 199.954 199.953 199.953 199.952 199.951 199.955 199.955
          199.955 199.955 199.954 199.954 199.953 199.953 199.952 199.951 199.955 199.955 199.955 199.955
          199.59 199.624 199.857 199.953 199.952 199.951 199.955 199.955 199.955 199.933 195.882 196.477
          197.551 199.301 199.893 199.951 199.955 199.955 199.955 199.784 183.62 190.44 193.739 195.553
          197.143 199.532 199.955 199.955 199.955 199.933 195.712 196.335 197.402 199.256 199.891 199.951
          199.955 199.955 199.955 199.955 199.565 199.589 199.833 199.953 199.952 199.951 199.955 199.955
          199.955 199.955 199.954 199.954 199.953 199.953 199.952 199.951 199.955 199.955 199.955 199.955
          199.954 199.954 199.953 199.953 199.952 199.951 199.955 199.955 199.955 199.955 199.954 199.954
          199.953 199.953 199.952 199.951 199.955 199.955 199.955 199.954 199.954 199.953 199.953 199.952
          199.952 199.951 199.955 199.955 199.955 199.954 199.954 199.953 199.953 199.952 199.952 199.951
          199.955 199.955 199.955 199.954 199.557 199.573 199.831 199.952 199.952 199.951 199.955 199.955
          199.955 199.93 195.642 196.168 197.356 199.301 199.918 199.951 199.955 199.955 199.955 199.826
          183.585 190.351 193.699 195.599 197.636 199.741 199.955 199.955 199.955 199.929 195.469 196.02
          197.206 199.257 199.917 199.951 199.955 199.955 199.955 199.954 199.529 199.538 199.803 199.952
          199.952 199.951 199.955 199.955 199.955 199.954 199.954 199.953 199.953 199.952 199.952 199.951
          199.955 199.955 199.955 199.954 199.954 199.953 199.953 199.952 199.952 199.951 199.955 199.955
          199.955 199.954 199.954 199.953 199.953 199.952 199.952 199.951 199.955 199.955 199.954 199.954
          199.953 199.953 199.953 199.952 199.952 199.951 199.955 199.955 199.954 199.954 199.953 199.953
          199.953 199.952 199.952 199.951 199.955 199.955 199.954 199.954 199.547 199.555 199.833 199.952
          199.952 199.951 199.955 199.955 199.954 199.926 195.695 196.12 197.41 199.372 199.942 199.951
          199.955 199.955 199.954 199.9 183.721 190.39 193.808 195.808 198.327 199.898 199.955 199.955
          199.954 199.926 195.516 195.961 197.249 199.322 199.942 199.951 199.955 199.955 199.954 199.954
          199.498 199.518 199.802 199.952 199.952 199.951 199.955 199.955 199.954 199.954 199.953 199.953
          199.953 199.952 199.952 199.951 199.955 199.955 199.954 199.954 199.953 199.953 199.952 199.952
          199.951 199.951 199.955 199.955 199.954 199.954 199.953 199.953 199.952 199.952 199.951 199.951
          199.955 199.955 199.954 199.953 199.953 199.953 199.952 199.952 199.951 199.951 199.955 199.955
          199.954 199.953 199.953 199.953 199.952 199.952 199.951 199.951 199.955 199.955 199.954 199.954
          199.542 199.545 199.841 199.952 199.951 199.951 199.955 199.955 199.954 199.923 195.798 196.137
          197.538 199.459 199.951 199.951 199.955 199.955 199.954 199.897 183.878 190.451 193.946 196.02
          199.058 199.95 199.955 199.955 199.954 199.923 195.617 195.967 197.365 199.407 199.951 199.951
          199.955 199.955 199.954 199.952 199.46 199.505 199.81 199.952 199.951 199.951 199.955 199.955
          199.954 199.953 199.953 199.953 199.952 199.952 199.951 199.951 199.955 199.955 199.954 199.953
          199.953 199.952 199.952 199.952 199.951 199.951 199.955 199.955 199.954 199.953 199.953 199.952
          199.952 199.952 199.951 199.951 199.955 199.954 199.954 199.953 199.953 199.952 199.952 199.951
          199.951 199.951 199.955 199.954 199.954 199.953 199.953 199.952 199.952 199.951 199.951 199.951
          199.955 199.954 199.954 199.953 199.522 199.523 199.842 199.951 199.951 199.951 199.955 199.954
          199.954 199.92 195.795 196.112 197.634 199.532 199.951 199.951 199.955 199.954 199.954 199.898
          183.874 190.488 194.07 196.366 199.34 199.951 199.955 199.954 199.954 199.92 195.639 195.933
          197.457 199.48 199.951 199.951 199.955 199.954 199.954 199.952 199.336 199.474 199.808 199.951
          199.951 199.951 199.955 199.954 199.954 199.953 199.949 199.952 199.952 199.951 199.951 199.951
          199.955 199.954 199.954 199.953 199.952 199.952 199.952 199.951 199.951 199.951 199.955 199.954
          199.954 199.953 199.952 199.952 199.952 199.951 199.951 199.951 199.955 199.954 199.953 199.952
          199.952 199.952 199.951 199.951 199.951 199.951 199.955 199.954 199.953 199.952 199.94 199.952
          199.951 199.951 199.951 199.951 199.955 199.954 199.953 199.948 199.189 199.427 199.798 199.951
          199.951 199.951 199.955 199.954 199.953 199.921 195.408 195.791 197.502 199.515 199.951 199.951
          199.955 199.954 199.953 199.907 183.085 190.166 193.954 196.55 199.453 199.951 199.955 199.954
          199.953 199.921 195.247 195.604 197.333 199.47 199.951 199.951 199.955 199.954 199.953 199.945
          199.024 199.356 199.759 199.951 199.951 199.951 199.955 199.954 199.953 199.952 199.917 199.951
          199.951 199.951 199.951 199.951 199.955 199.954 199.953 199.952 199.952 199.951 199.951 199.951
          199.951 199.951 199.955 199.954 199.953 199.952 199.952 199.951 199.951 199.951 199.951 199.951
          199.955 199.953 199.952 199.952 199.951 199.951 199.95 199.95 199.95 199.95 199.955 199.953
          199.952 199.952 199.4 199.326 199.781 199.95 199.95 199.95 199.955 199.953 199.952 199.93
          195.14 194.638 196.659 199.468 199.95 199.95 199.955 199.953 199.952 199.928 187.328 188.699
          192.045 195.759 199.544 199.95 199.955 199.953 199.952 199.852 172.226 180.979 186.638 191.665
          197.12 199.9 199.955 199.953 199.952 199.929 187.074 188.492 191.875 195.608 199.514 199.95
          199.955 199.953 199.952 199.93 194.749 194.271 196.293 199.371 199.95 199.95 199.955 199.953
          199.952 199.952 199.29 199.231 199.709 199.95 199.95 199.95 199.955 199.953 199.952 199.952
          199.951 199.951 199.95 199.95 199.95 199.95 199.955 199.953 199.952 199.952 199.951 199.951
          199.95 199.95 199.95 199.95
        </DataArray>
        <DataArray type="Float32" Name="C^n from cellData" NumberOfComponents="1" format="ascii">
          0 0 0 2.09479e-15 1.04894e-10 7.12837e-12 2.71554e-13 5.93067e-15 2.25296e-17 0 0 0
          2.85056e-16 5.44444e-12 2.5818e-07 1.72531e-08 8.17046e-10 2.1703e-11 3.48038e-13 4.00696e-15 3.5913e-18 6.35885e-15 5.84229e-13 5.20246e-09
          0.000240847 1.57026e-05 9.85691e-07 3.77008e-08 6.91865e-10 9.00928e-12 1.97619e-13 9.80934e-12 7.3456e-10 2.70927e-06 0.0106878 0.00578805
          0.000612905 6.81873e-05 1.00971e-06 1.22898e-08 5.53229e-10 2.27664e-08 1.32707e-06 0.00121476 0.0360505 0.0186992 0.0132202 0.0108113
          0.00175603 1.47541e-05 3.77869e-13 2.01349e-11 1.54315e-09 3.76785e-06 0.0108375 0.0067681 0.000754089 7.98791e-05 1.1426e-06 1.39409e-08
          4.61076e-17 1.57198e-14 1.53207e-12 8.6867e-09 0.000373691 2.30511e-05 1.42372e-06 5.19528e-08 9.22284e-10 1.18487e-11 0 3.20948e-19
          1.03789e-15 1.23016e-11 5.63098e-07 3.39522e-08 1.52221e-09 3.8314e-11 5.89474e-13 6.91017e-15 0 0 0 8.85691e-15
          4.01137e-10 2.39341e-11 8.46766e-13 1.73148e-14 6.60043e-17 0 0 0 0 0 1.10029e-13 6.48174e-15