<?xml version="1.0"?>
<VTKFile type="UnstructuredGrid" version="0.1" byte_order="LittleEndian">
  <UnstructuredGrid>
    <Piece NumberOfCells="126" NumberOfPoints="154">
      <CellData Scalars="S_liq">
        <DataArray type="Float32" Name="S_liq" NumberOfComponents="1" format="ascii">
          0.30002 0.30002 0.30002 0.30002 0.30002 0.30002 0.30002 0.30002 0.30002 0.30002 0.30002 0.30002
          0.30002 0.30002 0.30002 0.30002 0.30002 0.30002 0.30002 0.30002 0.30002 0.300017 0.300017 0.300017
          0.300017 0.300017 0.300017 0.300017 0.300017 0.300017 0.300017 0.300017 0.300017 0.300017 0.300017 0.300017
          0.300017 0.300017 0.300017 0.300017 0.300017 0.300017 0.300013 0.300013 0.300013 0.300013 0.300013 0.300013
          0.300013 0.300013 0.300013 0.300013 0.300013 0.300013 0.300013 0.300013 0.300013 0.300013 0.300013 0.300013
          0.300013 0.300013 0.300013 0.300009 0.300009 0.300009 0.300009 0.300009 0.300009 0.300009 0.300009 0.300009
          0.300009 0.300009 0.300009 0.300009 0.300009 0.300009 0.300009 0.300009 0.300009 0.300009 0.300009 0.300009
          0.300006 0.300006 0.300006 0.300006 0.300006 0.300006 0.300006 0.300006 0.300006 0.300006 0.300006 0.300006
          0.300006 0.300006 0.300006 0.300006 0.300006 0.300006 0.300006 0.300006 0.300006 0.300002 0.300002 0.300002
          0.300002 0.300002 0.300002 0.300002 0.300002 0.300002 0.300002 0.300002 0.300002 0.300002 0.300002 0.300002
          0.300002 0.300002 0.300002 0.300002 0.300002 0.300002
        </DataArray>
        <DataArray type="Float32" Name="p_liq" NumberOfComponents="1" format="ascii">
          114005 114005 114005 114005 114005 114005 114005 114005 114005 114005 114005 114005
          114005 114005 114005 114005 114005 114005 114005 114005 114005 114005 114005 114005
          114005 114005 114005 114005 114005 114005 114005 114005 114005 114005 114005 114005
          114005 114005 114005 114005 114005 114005 114005 114005 114005 114005 114005 114005
          114005 114005 114005 114005 114005 114005 114005 114005 114005 114005 114005 114005
          114005 114005 114005 114005 114005 114005 114005 114005 114005 114005 114005 114005
          114005 114005 114005 114005 114005 114005 114005 114005 114005 114005 114005 114005
          114005 114005 114005 114005 114005 114005 114005 114005 114005 114005 114005 114005
          114005 114005 114005 114005 114005 114005 114005 114005 114005 114005 114005 114005
          114005 114005 114005 114005 114005 114005 114005 114005 114005 114005 114005 114005
          114005 114005 114005 114005 114005 114005
        </DataArray>
        <DataArray type="Float32" Name="rho_liq" NumberOfComponents="1" format="ascii">
          993.403 993.403 993.403 993.403 993.403 993.403 993.403 993.403 993.403 993.403 993.403 993.403
          993.403 993.403 993.403 993.403 993.403 993.403 993.403 993.403 993.403 993.403 993.403 993.403
          993.403 993.403 993.403 993.403 993.403 993.403 993.403 993.403 993.403 993.403 993.403 993.403
          993.403 993.403 993.403 993.403 993.403 993.403 993.404 993.404 993.404 993.404 993.404 993.404
          993.404 993.404 993.404 993.404 993.404 993.404 993.404 993.404 993.404 993.404 993.404 993.404
          993.404 993.404 993.404 993.404 993.404 993.404 993.404 993.404 993.404 993.404 993.404 993.404
          993.404 993.404 993.404 993.404 993.404 993.404 993.404 993.404 993.404 993.404 993.404 993.404
          993.404 993.404 993.404 993.404 993.404 993.404 993.404 993.404 993.404 993.404 993.404 993.404
          993.404 993.404 993.404 993.404 993.404 993.404 993.404 993.404 993.404 993.404 993.404 993.404
          993.404 993.404 993.404 993.404 993.404 993.404 993.404 993.404 993.404 993.404 993.404 993.404
          993.404 993.404 993.404 993.404 993.404 993.404
        </DataArray>
        <DataArray type="Float32" Name="mob_liq" NumberOfComponents="1" format="ascii">
          252.914 252.914 252.914 252.914 252.914 252.914 252.914 252.914 252.914 252.914 252.914 252.914
          252.914 252.914 252.914 252.914 252.914 252.914 252.914 252.914 252.914 252.909 252.909 252.909
          252.909 252.909 252.909 252.909 252.909 252.909 252.909 252.909 252.909 252.909 252.909 252.909
          252.909 252.909 252.909 252.909 252.909 252.909 252.903 252.903 252.903 252.903 252.903 252.903
          252.903 252.903 252.903 252.903 252.903 252.903 252.903 252.903 252.903 252.903 252.903 252.903
          252.903 252.903 252.903 252.897 252.897 252.897 252.897 252.897 252.897 252.897 252.897 252.897
          252.897 252.897 252.897 252.897 252.897 252.897 252.897 252.897 252.897 252.897 252.897 252.897
          252.891 252.891 252.891 252.891 252.891 252.891 252.891 252.891 252.891 252.891 252.891 252.891
          252.891 252.891 252.891 252.891 252.891 252.891 252.891 252.891 252.891 252.886 252.886 252.886
          252.886 252.886 252.886 252.886 252.886 252.886 252.886 252.886 252.886 252.886 252.886 252.886
          252.886 252.886 252.886 252.886 252.886 252.886
        </DataArray>
        <DataArray type="Float32" Name="S_gas" NumberOfComponents="1" format="ascii">
          0.69998 0.69998 0.69998 0.69998 0.69998 0.69998 0.69998 0.69998 0.69998 0.69998 0.69998 0.69998
          0.69998 0.69998 0.69998 0.69998 0.69998 0.69998 0.69998 0.69998 0.69998 0.699983 0.699983 0.699983
          0.699983 0.699983 0.699983 0.699983 0.699983 0.699983 0.699983 0.699983 0.699983 0.699983 0.699983 0.699983
          0.699983 0.699983 0.699983 0.699983 0.699983 0.699983 0.699987 0.699987 0.699987 0.699987 0.699987 0.699987
          0.699987 0.699987 0.699987 0.699987 0.699987 0.699987 0.699987 0.699987 0.699987 0.699987 0.699987 0.699987
          0.699987 0.699987 0.699987 0.699991 0.699991 0.699991 0.699991 0.699991 0.699991 0.699991 0.699991 0.699991
          0.699991 0.699991 0.699991 0.699991 0.699991 0.699991 0.699991 0.699991 0.699991 0.699991 0.699991 0.699991
          0.699994 0.699994 0.699994 0.699994 0.699994 0.699994 0.699994 0.699994 0.699994 0.699994 0.699994 0.699994
          0.699994 0.699994 0.699994 0.699994 0.699994 0.699994 0.699994 0.699994 0.699994 0.699998 0.699998 0.699998
          0.699998 0.699998 0.699998 0.699998 0.699998 0.699998 0.699998 0.699998 0.699998 0.699998 0.699998 0.699998
          0.699998 0.699998 0.699998 0.699998 0.699998 0.699998
        </DataArray>
        <DataArray type="Float32" Name="p_gas" NumberOfComponents="1" format="ascii">
          99999.6 99999.6 99999.6 99999.6 99999.6 99999.6 99999.6 99999.6 99999.6 99999.6 99999.6 99999.6
          99999.6 99999.6 99999.6 99999.6 99999.6 99999.6 99999.6 99999.6 99999.6 99999.7 99999.7 99999.7
          99999.7 99999.7 99999.7 99999.7 99999.7 99999.7 99999.7 99999.7 99999.7 99999.7 99999.7 99999.7
          99999.7 99999.7 99999.7 99999.7 99999.7 99999.7 99999.7 99999.7 99999.7 99999.7 99999.7 99999.7
          99999.7 99999.7 99999.7 99999.7 99999.7 99999.7 99999.7 99999.7 99999.7 99999.7 99999.7 99999.7
          99999.7 99999.7 99999.7 99999.8 99999.8 99999.8 99999.8 99999.8 99999.8 99999.8 99999.8 99999.8
          99999.8 99999.8 99999.8 99999.8 99999.8 99999.8 99999.8 99999.8 99999.8 99999.8 99999.8 99999.8
          99999.9 99999.9 99999.9 99999.9 99999.9 99999.9 99999.9 99999.9 99999.9 99999.9 99999.9 99999.9
          99999.9 99999.9 99999.9 99999.9 99999.9 99999.9 99999.9 99999.9 99999.9 100000 100000 100000
          100000 100000 100000 100000 100000 100000 100000 100000 100000 100000 100000 100000
          100000 100000 100000 100000 100000 100000
        </DataArray>
        <DataArray type="Float32" Name="rho_gas" NumberOfComponents="1" format="ascii">
          1.09926 1.09926 1.09926 1.09926 1.09926 1.09926 1.09926 1.09926 1.09926 1.09926 1.09926 1.09926
          1.09926 1.09926 1.09926 1.09926 1.09926 1.09926 1.09926 1.09926 1.09926 1.10316 1.10316 1.10316
          1.10316 1.10316 1.10316 1.10316 1.10316 1.10316 1.10316 1.10316 1.10316 1.10316 1.10316 1.10316
          1.10316 1.10316 1.10316 1.10316 1.10316 1.10316 1.10692 1.10692 1.10692 1.10692 1.10692 1.10692
          1.10692 1.10692 1.10692 1.10692 1.10692 1.10692 1.10692 1.10692 1.10692 1.10692 1.10692 1.10692
          1.10692 1.10692 1.10692 1.11055 1.11055 1.11055 1.11055 1.11055 1.11055 1.11055 1.11055 1.11055
          1.11055 1.11055 1.11055 1.11055 1.11055 1.11055 1.11055 1.11055 1.11055 1.11055 1.11055 1.11055
          1.11405 1.11405 1.11405 1.11405 1.11405 1.11405 1.11405 1.11405 1.11405 1.11405 1.11405 1.11405
          1.11405 1.11405 1.11405 1.11405 1.11405 1.11405 1.11405 1.11405 1.11405 1.11742 1.11742 1.11742
          1.11742 1.11742 1.11742 1.11742 1.11742 1.11742 1.11742 1.11742 1.11742 1.11742 1.11742 1.11742
          1.11742 1.11742 1.11742 1.11742 1.11742 1.11742
        </DataArray>
        <DataArray type="Float32" Name="mob_gas" NumberOfComponents="1" format="ascii">
          9056.39 9056.39 9056.39 9056.39 9056.39 9056.39 9056.39 9056.39 9056.39 9056.39 9056.39 9056.39
          9056.39 9056.39 9056.39 9056.39 9056.39 9056.39 9056.39 9056.39 9056.39 9020.24 9020.24 9020.24
          9020.24 9020.24 9020.24 9020.24 9020.24 9020.24 9020.24 9020.24 9020.24 9020.24 9020.24 9020.24
          9020.24 9020.24 9020.24 9020.24 9020.24 9020.24 8985.67 8985.67 8985.67 8985.67 8985.67 8985.67
          8985.67 8985.67 8985.67 8985.67 8985.67 8985.67 8985.67 8985.67 8985.67 8985.67 8985.67 8985.67
          8985.67 8985.67 8985.67 8952.59 8952.59 8952.59 8952.59 8952.59 8952.59 8952.59 8952.59 8952.59
          8952.59 8952.59 8952.59 8952.59 8952.59 8952.59 8952.59 8952.59 8952.59 8952.59 8952.59 8952.59
          8920.94 8920.94 8920.94 8920.94 8920.94 8920.94 8920.94 8920.94 8920.94 8920.94 8920.94 8920.94
          8920.94 8920.94 8920.94 8920.94 8920.94 8920.94 8920.94 8920.94 8920.94 8890.65 8890.65 8890.65
          8890.65 8890.65 8890.65 8890.65 8890.65 8890.65 8890.65 8890.65 8890.65 8890.65 8890.65 8890.65
          8890.65 8890.65 8890.65 8890.65 8890.65 8890.65
        </DataArray>
        <DataArray type="Float32" Name="pc" NumberOfComponents="1" format="ascii">
          14005.8 14005.8 14005.8 14005.8 14005.8 14005.8 14005.8 14005.8 14005.8 14005.8 14005.8 14005.8
          14005.8 14005.8 14005.8 14005.8 14005.8 14005.8 14005.8 14005.8 14005.8 14005.7 14005.7 14005.7
          14005.7 14005.7 14005.7 14005.7 14005.7 14005.7 14005.7 14005.7 14005.7 14005.7 14005.7 14005.7
          14005.7 14005.7 14005.7 14005.7 14005.7 14005.7 14005.6 14005.6 14005.6 14005.6 14005.6 14005.6
          14005.6 14005.6 14005.6 14005.6 14005.6 14005.6 14005.6 14005.6 14005.6 14005.6 14005.6 14005.6
          14005.6 14005.6 14005.6 14005.5 14005.5 14005.5 14005.5 14005.5 14005.5 14005.5 14005.5 14005.5
          14005.5 14005.5 14005.5 14005.5 14005.5 14005.5 14005.5 14005.5 14005.5 14005.5 14005.5 14005.5
          14005.5 14005.5 14005.5 14005.5 14005.5 14005.5 14005.5 14005.5 14005.5 14005.5 14005.5 14005.5
          14005.5 14005.5 14005.5 14005.5 14005.5 14005.5 14005.5 14005.5 14005.5 14005.4 14005.4 14005.4
          14005.4 14005.4 14005.4 14005.4 14005.4 14005.4 14005.4 14005.4 14005.4 14005.4 14005.4 14005.4
          14005.4 14005.4 14005.4 14005.4 14005.4 14005.4
        </DataArray>
        <DataArray type="Float32" Name="porosity" NumberOfComponents="1" format="ascii">
          0.2 0.2 0.2 0.2 0.2 0.2 0.2 0.2 0.2 0.2 0.2 0.2
          0.2 0.2 0.2 0.2 0.2 0.2 0.2 0.2 0.2 0.2 0.2 0.2
          0.2 0.2 0.2 0.2 0.2 0.2 0.2 0.2 0.2 0.2 0.2 0.2
          0.2 0.2 0.2 0.2 0.2 0.2 0.2 0.2 0.2 0.2 0.2 0.2
          0.2 0.2 0.2 0.2 0.2 0.2 0.2 0.2 0.2 0.2 0.2 0.2
          0.2 0.2 0.2 0.2 0.2 0.2 0.2 0.2 0.2 0.2 0.2 0.2
          0.2 0.2 0.2 0.2 0.2 0.2 0.2 0.2 0.2 0.2 0.2 0.2
          0.2 0.2 0.2 0.2 0.2 0.2 0.2 0.2 0.2 0.2 0.2 0.2
          0.2 0.2 0.2 0.2 0.2 0.2 0.2 0.2 0.2 0.2 0.2 0.2
          0.2 0.2 0.2 0.2 0.2 0.2 0.2 0.2 0.2 0.2 0.2 0.2
          0.2 0.2 0.2 0.2 0.2 0.2
        </DataArray>
        <DataArray type="Float32" Name="x^H2O_liq" NumberOfComponents="1" format="ascii">
          0.999988 0.999988 0.999988 0.999988 0.999988 0.999988 0.999988 0.999988 0.999988 0.999988 0.999988 0.999988
          0.999988 0.999988 0.999988 0.999988 0.999988 0.999988 0.999988 0.999988 0.999988 0.999988 0.999988 0.999988
          0.999988 0.999988 0.999988 0.999988 0.999988 0.999988 0.999988 0.999988 0.999988 0.999988 0.999988 0.999988
          0.999988 0.999988 0.999988 0.999988 0.999988 0.999988 0.999988 0.999988 0.999988 0.999988 0.999988 0.999988
          0.999988 0.999988 0.999988 0.999988 0.999988 0.999988 0.999988 0.999988 0.999988 0.999988 0.999988 0.999988
          0.999988 0.999988 0.999988 0.999988 0.999988 0.999988 0.999988 0.999988 0.999988 0.999988 0.999988 0.999988
          0.999988 0.999988 0.999988 0.999988 0.999988 0.999988 0.999988 0.999988 0.999988 0.999988 0.999988 0.999988
          0.999988 0.999988 0.999988 0.999988 0.999988 0.999988 0.999988 0.999988 0.999988 0.999988 0.999988 0.999988
          0.999988 0.999988 0.999988 0.999988 0.999988 0.999988 0.999988 0.999988 0.999988 0.999987 0.999987 0.999987
          0.999987 0.999987 0.999987 0.999987 0.999987 0.999987 0.999987 0.999987 0.999987 0.999987 0.999987 0.999987
          0.999987 0.999987 0.999987 0.999987 0.999987 0.999987
        </DataArray>
        <DataArray type="Float32" Name="x^N2_liq" NumberOfComponents="1" format="ascii">
          7.06026e-06 7.06026e-06 7.06026e-06 7.06026e-06 7.06026e-06 7.06026e-06 7.06026e-06 7.06026e-06 7.06026e-06 7.06026e-06 7.06026e-06 7.06026e-06
          7.06026e-06 7.06026e-06 7.06026e-06 7.06026e-06 7.06026e-06 7.06026e-06 7.06026e-06 7.06026e-06 7.06026e-06 6.80658e-06 6.80658e-06 6.80658e-06
          6.80658e-06 6.80658e-06 6.80658e-06 6.80658e-06 6.80658e-06 6.80658e-06 6.80658e-06 6.80658e-06 6.80658e-06 6.80658e-06 6.80658e-06 6.80658e-06
          6.80658e-06 6.80658e-06 6.80658e-06 6.80658e-06 6.80658e-06 6.80658e-06 6.56199e-06 6.56199e-06 6.56199e-06 6.56199e-06 6.56199e-06 6.56199e-06
          6.56199e-06 6.56199e-06 6.56199e-06 6.56199e-06 6.56199e-06 6.56199e-06 6.56199e-06 6.56199e-06 6.56199e-06 6.56199e-06 6.56199e-06 6.56199e-06
          6.56199e-06 6.56199e-06 6.56199e-06 6.32617e-06 6.32617e-06 6.32617e-06 6.32617e-06 6.32617e-06 6.32617e-06 6.32617e-06 6.32617e-06 6.32617e-06
          6.32617e-06 6.32617e-06 6.32617e-06 6.32617e-06 6.32617e-06 6.32617e-06 6.32617e-06 6.32617e-06 6.32617e-06 6.32617e-06 6.32617e-06 6.32617e-06
          6.09881e-06 6.09881e-06 6.09881e-06 6.09881e-06 6.09881e-06 6.09881e-06 6.09881e-06 6.09881e-06 6.09881e-06 6.09881e-06 6.09881e-06 6.09881e-06
          6.09881e-06 6.09881e-06 6.09881e-06 6.09881e-06 6.09881e-06 6.09881e-06 6.09881e-06 6.09881e-06 6.09881e-06 5.8796e-06 5.8796e-06 5.8796e-06
          5.8796e-06 5.8796e-06 5.8796e-06 5.8796e-06 5.8796e-06 5.8796e-06 5.8796e-06 5.8796e-06 5.8796e-06 5.8796e-06 5.8796e-06 5.8796e-06
          5.8796e-06 5.8796e-06 5.8796e-06 5.8796e-06 5.8796e-06 5.8796e-06
        </DataArray>
        <DataArray type="Float32" Name="x^O2_liq" NumberOfComponents="1" format="ascii">
          4.50541e-06 4.50541e-06 4.50541e-06 4.50541e-06 4.50541e-06 4.50541e-06 4.50541e-06 4.50541e-06 4.50541e-06 4.50541e-06 4.50541e-06 4.50541e-06
          4.50541e-06 4.50541e-06 4.50541e-06 4.50541e-06 4.50541e-06 4.50541e-06 4.50541e-06 4.50541e-06 4.50541e-06 4.98726e-06 4.98726e-06 4.98726e-06
          4.98726e-06 4.98726e-06 4.98726e-06 4.98726e-06 4.98726e-06 4.98726e-06 4.98726e-06 4.98726e-06 4.98726e-06 4.98726e-06 4.98726e-06 4.98726e-06
          4.98726e-06 4.98726e-06 4.98726e-06 4.98726e-06 4.98726e-06 4.98726e-06 5.45183e-06 5.45183e-06 5.45183e-06 5.45183e-06 5.45183e-06 5.45183e-06
          5.45183e-06 5.45183e-06 5.45183e-06 5.45183e-06 5.45183e-06 5.45183e-06 5.45183e-06 5.45183e-06 5.45183e-06 5.45183e-06 5.45183e-06 5.45183e-06
          5.45183e-06 5.45183e-06 5.45183e-06 5.89975e-06 5.89975e-06 5.89975e-06 5.89975e-06 5.89975e-06 5.89975e-06 5.89975e-06 5.89975e-06 5.89975e-06
          5.89975e-06 5.89975e-06 5.89975e-06 5.89975e-06 5.89975e-06 5.89975e-06 5.89975e-06 5.89975e-06 5.89975e-06 5.89975e-06 5.89975e-06 5.89975e-06
          6.3316e-06 6.3316e-06 6.3316e-06 6.3316e-06 6.3316e-06 6.3316e-06 6.3316e-06 6.3316e-06 6.3316e-06 6.3316e-06 6.3316e-06 6.3316e-06
          6.3316e-06 6.3316e-06 6.3316e-06 6.3316e-06 6.3316e-06 6.3316e-06 6.3316e-06 6.3316e-06 6.3316e-06 6.74796e-06 6.74796e-06 6.74796e-06
          6.74796e-06 6.74796e-06 6.74796e-06 6.74796e-06 6.74796e-06 6.74796e-06 6.74796e-06 6.74796e-06 6.74796e-06 6.74796e-06 6.74796e-06 6.74796e-06
          6.74796e-06 6.74796e-06 6.74796e-06 6.74796e-06 6.74796e-06 6.74796e-06
        </DataArray>
        <DataArray type="Float32" Name="rhoMolar_liq" NumberOfComponents="1" format="ascii">
          55142.1 55142.1 55142.1 55142.1 55142.1 55142.1 55142.1 55142.1 55142.1 55142.1 55142.1 55142.1
          55142.1 55142.1 55142.1 55142.1 55142.1 55142.1 55142.1 55142.1 55142.1 55142.1 55142.1 55142.1
          55142.1 55142.1 55142.1 55142.1 55142.1 55142.1 55142.1 55142.1 55142.1 55142.1 55142.1 55142.1
          55142.1 55142.1 55142.1 55142.1 55142.1 55142.1 55142.1 55142.1 55142.1 55142.1 55142.1 55142.1
          55142.1 55142.1 55142.1 55142.1 55142.1 55142.1 55142.1 55142.1 55142.1 55142.1 55142.1 55142.1
          55142.1 55142.1 55142.1 55142.1 55142.1 55142.1 55142.1 55142.1 55142.1 55142.1 55142.1 55142.1
          55142.1 55142.1 55142.1 55142.1 55142.1 55142.1 55142.1 55142.1 55142.1 55142.1 55142.1 55142.1
          55142.1 55142.1 55142.1 55142.1 55142.1 55142.1 55142.1 55142.1 55142.1 55142.1 55142.1 55142.1
          55142.1 55142.1 55142.1 55142.1 55142.1 55142.1 55142.1 55142.1 55142.1 55142.1 55142.1 55142.1
          55142.1 55142.1 55142.1 55142.1 55142.1 55142.1 55142.1 55142.1 55142.1 55142.1 55142.1 55142.1
          55142.1 55142.1 55142.1 55142.1 55142.1 55142.1
        </DataArray>
        <DataArray type="Float32" Name="x^H2O_gas" NumberOfComponents="1" format="ascii">
          0.0623063 0.0623063 0.0623063 0.0623063 0.0623063 0.0623063 0.0623063 0.0623063 0.0623063 0.0623063 0.0623063 0.0623063
          0.0623063 0.0623063 0.0623063 0.0623063 0.0623063 0.0623063 0.0623063 0.0623063 0.0623063 0.0623063 0.0623063 0.0623063
          0.0623063 0.0623063 0.0623063 0.0623063 0.0623063 0.0623063 0.0623063 0.0623063 0.0623063 0.0623063 0.0623063 0.0623063
          0.0623063 0.0623063 0.0623063 0.0623063 0.0623063 0.0623063 0.0623062 0.0623062 0.0623062 0.0623062 0.0623062 0.0623062
          0.0623062 0.0623062 0.0623062 0.0623062 0.0623062 0.0623062 0.0623062 0.0623062 0.0623062 0.0623062 0.0623062 0.0623062
          0.0623062 0.0623062 0.0623062 0.0623061 0.0623061 0.0623061 0.0623061 0.0623061 0.0623061 0.0623061 0.0623061 0.0623061
          0.0623061 0.0623061 0.0623061 0.0623061 0.0623061 0.0623061 0.0623061 0.0623061 0.0623061 0.0623061 0.0623061 0.0623061
          0.0623061 0.0623061 0.0623061 0.0623061 0.0623061 0.0623061 0.0623061 0.0623061 0.0623061 0.0623061 0.0623061 0.0623061
          0.0623061 0.0623061 0.0623061 0.0623061 0.0623061 0.0623061 0.0623061 0.0623061 0.0623061 0.062306 0.062306 0.062306
          0.062306 0.062306 0.062306 0.062306 0.062306 0.062306 0.062306 0.062306 0.062306 0.062306 0.062306 0.062306
          0.062306 0.062306 0.062306 0.062306 0.062306 0.062306
        </DataArray>
        <DataArray type="Float32" Name="x^N2_gas" NumberOfComponents="1" format="ascii">
          0.701878 0.701878 0.701878 0.701878 0.701878 0.701878 0.701878 0.701878 0.701878 0.701878 0.701878 0.701878
          0.701878 0.701878 0.701878 0.701878 0.701878 0.701878 0.701878 0.701878 0.701878 0.676658 0.676658 0.676658
          0.676658 0.676658 0.676658 0.676658 0.676658 0.676658 0.676658 0.676658 0.676658 0.676658 0.676658 0.676658
          0.676658 0.676658 0.676658 0.676658 0.676658 0.676658 0.652343 0.652343 0.652343 0.652343 0.652343 0.652343
          0.652343 0.652343 0.652343 0.652343 0.652343 0.652343 0.652343 0.652343 0.652343 0.652343 0.652343 0.652343
          0.652343 0.652343 0.652343 0.628899 0.628899 0.628899 0.628899 0.628899 0.628899 0.628899 0.628899 0.628899
          0.628899 0.628899 0.628899 0.628899 0.628899 0.628899 0.628899 0.628899 0.628899 0.628899 0.628899 0.628899
          0.606296 0.606296 0.606296 0.606296 0.606296 0.606296 0.606296 0.606296 0.606296 0.606296 0.606296 0.606296
          0.606296 0.606296 0.606296 0.606296 0.606296 0.606296 0.606296 0.606296 0.606296 0.584503 0.584503 0.584503
          0.584503 0.584503 0.584503 0.584503 0.584503 0.584503 0.584503 0.584503 0.584503 0.584503 0.584503 0.584503
          0.584503 0.584503 0.584503 0.584503 0.584503 0.584503
        </DataArray>
        <DataArray type="Float32" Name="x^O2_gas" NumberOfComponents="1" format="ascii">
          0.235815 0.235815 0.235815 0.235815 0.235815 0.235815 0.235815 0.235815 0.235815 0.235815 0.235815 0.235815
          0.235815 0.235815 0.235815 0.235815 0.235815 0.235815 0.235815 0.235815 0.235815 0.261035 0.261035 0.261035
          0.261035 0.261035 0.261035 0.261035 0.261035 0.261035 0.261035 0.261035 0.261035 0.261035 0.261035 0.261035
          0.261035 0.261035 0.261035 0.261035 0.261035 0.261035 0.285351 0.285351 0.285351 0.285351 0.285351 0.285351
          0.285351 0.285351 0.285351 0.285351 0.285351 0.285351 0.285351 0.285351 0.285351 0.285351 0.285351 0.285351
          0.285351 0.285351 0.285351 0.308795 0.308795 0.308795 0.308795 0.308795 0.308795 0.308795 0.308795 0.308795
          0.308795 0.308795 0.308795 0.308795 0.308795 0.308795 0.308795 0.308795 0.308795 0.308795 0.308795 0.308795
          0.331398 0.331398 0.331398 0.331398 0.331398 0.331398 0.331398 0.331398 0.331398 0.331398 0.331398 0.331398
          0.331398 0.331398 0.331398 0.331398 0.331398 0.331398 0.331398 0.331398 0.331398 0.35319 0.35319 0.35319
          0.35319 0.35319 0.35319 0.35319 0.35319 0.35319 0.35319 0.35319 0.35319 0.35319 0.35319 0.35319
          0.35319 0.35319 0.35319 0.35319 0.35319 0.35319
        </DataArray>
        <DataArray type="Float32" Name="rhoMolar_gas" NumberOfComponents="1" format="ascii">
          38.8034 38.8034 38.8034 38.8034 38.8034 38.8034 38.8034 38.8034 38.8034 38.8034 38.8034 38.8034
          38.8034 38.8034 38.8034 38.8034 38.8034 38.8034 38.8034 38.8034 38.8034 38.8034 38.8034 38.8034
          38.8034 38.8034 38.8034 38.8034 38.8034 38.8034 38.8034 38.8034 38.8034 38.8034 38.8034 38.8034
          38.8034 38.8034 38.8034 38.8034 38.8034 38.8034 38.8035 38.8035 38.8035 38.8035 38.8035 38.8035
          38.8035 38.8035 38.8035 38.8035 38.8035 38.8035 38.8035 38.8035 38.8035 38.8035 38.8035 38.8035
          38.8035 38.8035 38.8035 38.8035 38.8035 38.8035 38.8035 38.8035 38.8035 38.8035 38.8035 38.8035
          38.8035 38.8035 38.8035 38.8035 38.8035 38.8035 38.8035 38.8035 38.8035 38.8035 38.8035 38.8035
          38.8035 38.8035 38.8035 38.8035 38.8035 38.8035 38.8035 38.8035 38.8035 38.8035 38.8035 38.8035
          38.8035 38.8035 38.8035 38.8035 38.8035 38.8035 38.8035 38.8035 38.8035 38.8036 38.8036 38.8036
          38.8036 38.8036 38.8036 38.8036 38.8036 38.8036 38.8036 38.8036 38.8036 38.8036 38.8036 38.8036
          38.8036 38.8036 38.8036 38.8036 38.8036 38.8036
        </DataArray>
        <DataArray type="Float32" Name="phase presence" NumberOfComponents="1" format="ascii">
          3 3 3 3 3 3 3 3 3 3 3 3
          3 3 3 3 3 3 3 3 3 3 3 3
          3 3 3 3 3 3 3 3 3 3 3 3
          3 3 3 3 3 3 3 3 3 3 3 3
          3 3 3 3 3 3 3 3 3 3 3 3
          3 3 3 3 3 3 3 3 3 3 3 3
          3 3 3 3 3 3 3 3 3 3 3 3
          3 3 3 3 3 3 3 3 3 3 3 3
          3 3 3 3 3 3 3 3 3 3 3 3
          3 3 3 3 3 3 3 3 3 3 3 3
          3 3 3 3 3 3
        </DataArray>
        <DataArray type="Float32" Name="process rank" NumberOfComponents="1" format="ascii">
          0 0 0 0 0 0 0 0 0 0 0 0
          0 0 0 0 0 0 0 0 0 0 0 0
          0 0 0 0 0 0 0 0 0 0 0 0
          0 0 0 0 0 0 0 0 0 0 0 0
          0 0 0 0 0 0 0 0 0 0 0 0
          0 0 0 0 0 0 0 0 0 0 0 0
          0 0 0 0 0 0 0 0 0 0 0 0
          0 0 0 0 0 0 0 0 0 0 0 0
          0 0 0 0 0 0 0 0 0 0 0 0
          0 0 0 0 0 0 0 0 0 0 0 0
          0 0 0 0 0 0
        </DataArray>
        <DataArray type="Float32" Name="currentDensity [A/cm^2]" NumberOfComponents="1" format="ascii">
          0.458086 0.458086 0.458086 0.458086 0.458086 0.458086 0.458086 0.458086 0.458086 0.458086 0.458086 0.458086
          0.458086 0.458086 0.458086 0.458086 0.458086 0.458086 0.458086 0.458086 0.458086 0 0 0
          0 0 0 0 0 0 0 0 0 0 0 0
          0 0 0 0 0 0 0 0 0 0 0 0
          0 0 0 0 0 0 0 0 0 0 0 0
          0 0 0 0 0 0 0 0 0 0 0 0
          0 0 0 0 0 0 0 0 0 0 0 0
          0 0 0 0 0 0 0 0 0 0 0 0
          0 0 0 0 0 0 0 0 0 0 0 0
          0 0 0 0 0 0 0 0 0 0 0 0
          0 0 0 0 0 0
        </DataArray>
        <DataArray type="Float32" Name="reactionSourceH2O [mol/(sm^2)]" NumberOfComponents="1" format="ascii">
          379.49 379.49 379.49 379.49 379.49 379.49 379.49 379.49 379.49 379.49 379.49 379.49
          379.49 379.49 379.49 379.49 379.49 379.49 379.49 379.49 379.49 0 0 0
          0 0 0 0 0 0 0 0 0 0 0 0
          0 0 0 0 0 0 0 0 0 0 0 0
          0 0 0 0 0 0 0 0 0 0 0 0
          0 0 0 0 0 0 0 0 0 0 0 0
          0 0 0 0 0 0 0 0 0 0 0 0
          0 0 0 0 0 0 0 0 0 0 0 0
          0 0 0 0 0 0 0 0 0 0 0 0
          0 0 0 0 0 0 0 0 0 0 0 0
          0 0 0 0 0 0
        </DataArray>
        <DataArray type="Float32" Name="reactionSourceO2 [mol/(sm^2)]" NumberOfComponents="1" format="ascii">
          -129.483 -129.483 -129.483 -129.483 -129.483 -129.483 -129.483 -129.483 -129.483 -129.483 -129.483 -129.483
          -129.483 -129.483 -129.483 -129.483 -129.483 -129.483 -129.483 -129.483 -129.483 0 0 0
          0 0 0 0 0 0 0 0 0 0 0 0
          0 0 0 0 0 0 0 0 0 0 0 0
          0 0 0 0 0 0 0 0 0 0 0 0
          0 0 0 0 0 0 0 0 0 0 0 0
          0 0 0 0 0 0 0 0 0 0 0 0
          0 0 0 0 0 0 0 0 0 0 0 0
          0 0 0 0 0 0 0 0 0 0 0 0
          0 0 0 0 0 0 0 0 0 0 0 0
          0 0 0 0 0 0
        </DataArray>
        <DataArray type="Float32" Name="Kxx" NumberOfComponents="1" format="ascii">
          5e-11 5e-11 5e-11 5e-11 5e-11 5e-11 5e-11 5e-11 5e-11 5e-11 5e-11 5e-11
          5e-11 5e-11 5e-11 5e-11 5e-11 5e-11 5e-11 5e-11 5e-11 5e-11 5e-11 5e-11
          5e-11 5e-11 5e-11 5e-11 5e-11 5e-11 5e-11 5e-11 5e-11 5e-11 5e-11 5e-11
          5e-11 5e-11 5e-11 5e-11 5e-11 5e-11 5e-11 5e-11 5e-11 5e-11 5e-11 5e-11
          5e-11 5e-11 5e-11 5e-11 5e-11 5e-11 5e-11 5e-11 5e-11 5e-11 5e-11 5e-11
          5e-11 5e-11 5e-11 5e-11 5e-11 5e-11 5e-11 5e-11 5e-11 5e-11 5e-11 5e-11
          5e-11 5e-11 5e-11 5e-11 5e-11 5e-11 5e-11 5e-11 5e-11 5e-11 5e-11 5e-11
          5e-11 5e-11 5e-11 5e-11 5e-11 5e-11 5e-11 5e-11 5e-11 5e-11 5e-11 5e-11
          5e-11 5e-11 5e-11 5e-11 5e-11 5e-11 5e-11 5e-11 5e-11 5e-11 5e-11 5e-11
          5e-11 5e-11 5e-11 5e-11 5e-11 5e-11 5e-11 5e-11 5e-11 5e-11 5e-11 5e-11
          5e-11 5e-11 5e-11 5e-11 5e-11 5e-11
        </DataArray>
        <DataArray type="Float32" Name="Kyy" NumberOfComponents="1" format="ascii">
          5e-11 5e-11 5e-11 5e-11 5e-11 5e-11 5e-11 5e-11 5e-11 5e-11 5e-11 5e-11
          5e-11 5e-11 5e-11 5e-11 5e-11 5e-11 5e-11 5e-11 5e-11 5e-11 5e-11 5e-11
          5e-11 5e-11 5e-11 5e-11 5e-11 5e-11 5e-11 5e-11 5e-11 5e-11 5e-11 5e-11
          5e-11 5e-11 5e-11 5e-11 5e-11 5e-11 5e-11 5e-11 5e-11 5e-11 5e-11 5e-11
          5e-11 5e-11 5e-11 5e-11 5e-11 5e-11 5e-11 5e-11 5e-11 5e-11 5e-11 5e-11
          5e-11 5e-11 5e-11 5e-11 5e-11 5e-11 5e-11 5e-11 5e-11 5e-11 5e-11 5e-11
          5e-11 5e-11 5e-11 5e-11 5e-11 5e-11 5e-11 5e-11 5e-11 5e-11 5e-11 5e-11
          5e-11 5e-11 5e-11 5e-11 5e-11 5e-11 5e-11 5e-11 5e-11 5e-11 5e-11 5e-11
          5e-11 5e-11 5e-11 5e-11 5e-11 5e-11 5e-11 5e-11 5e-11 5e-11 5e-11 5e-11
          5e-11 5e-11 5e-11 5e-11 5e-11 5e-11 5e-11 5e-11 5e-11 5e-11 5e-11 5e-11
          5e-11 5e-11 5e-11 5e-11 5e-11 5e-11
        </DataArray>
      </CellData>
      <Points>
        <DataArray type="Float32" Name="Coordinates" NumberOfComponents="3" format="ascii">
          0 0 0 9.52381e-05 0 0 0 9.16667e-05 0 9.52381e-05 9.16667e-05 0
          0.000190476 0 0 0.000190476 9.16667e-05 0 0.000285714 0 0 0.000285714 9.16667e-05 0
          0.000380952 0 0 0.000380952 9.16667e-05 0 0.00047619 0 0 0.00047619 9.16667e-05 0
          0.000571429 0 0 0.000571429 9.16667e-05 0 0.000666667 0 0 0.000666667 9.16667e-05 0
          0.000761905 0 0 0.000761905 9.16667e-05 0 0.000857143 0 0 0.000857143 9.16667e-05 0
          0.000952381 0 0 0.000952381 9.16667e-05 0 0.00104762 0 0 0.00104762 9.16667e-05 0
          0.00114286 0 0 0.00114286 9.16667e-05 0 0.0012381 0 0 0.0012381 9.16667e-05 0
          0.00133333 0 0 0.00133333 9.16667e-05 0 0.00142857 0 0 0.00142857 9.16667e-05 0
          0.00152381 0 0 0.00152381 9.16667e-05 0 0.00161905 0 0 0.00161905 9.16667e-05 0
          0.00171429 0 0 0.00171429 9.16667e-05 0 0.00180952 0 0 0.00180952 9.16667e-05 0
          0.00190476 0 0 0.00190476 9.16667e-05 0 0.002 0 0 0.002 9.16667e-05 0
          0 0.000183333 0 9.52381e-05 0.000183333 0 0.000190476 0.000183333 0 0.000285714 0.000183333 0
          0.000380952 0.000183333 0 0.00047619 0.000183333 0 0.000571429 0.000183333 0 0.000666667 0.000183333 0
          0.000761905 0.000183333 0 0.000857143 0.000183333 0 0.000952381 0.000183333 0 0.00104762 0.000183333 0
          0.00114286 0.000183333 0 0.0012381 0.000183333 0 0.00133333 0.000183333 0 0.00142857 0.000183333 0
          0.00152381 0.000183333 0 0.00161905 0.000183333 0 0.00171429 0.000183333 0 0.00180952 0.000183333 0
          0.00190476 0.000183333 0 0.002 0.000183333 0 0 0.000275 0 9.52381e-05 0.000275 0