<?xml version="1.0"?>
<VTKFile type="UnstructuredGrid" version="0.1" byte_order="LittleEndian">
  <UnstructuredGrid>
    <Piece NumberOfCells="200" NumberOfPoints="402">
      <PointData Scalars="p" Vectors="velocity_liq (m/s)">
        <DataArray type="Float32" Name="p" NumberOfComponents="1" format="ascii">
          100000 100000 100000 100000 100000 100000 100000 100000 100000 100000 100000 100000
          100000 100000 100000 100000 100000 100000 100000 100000 100000 100000 100000 100000
          100000 100000 100000 100000 100000 100000 100000 100000 100000 100000 100000 100000
          100000 100000 100000 100000 100000 100000 100000 100000 100000 100000 100000 100000
          100000 100000 100000 100000 100000 100000 100000 100000 100000 100000 100000 100000
          100000 100000 100000 100000 100000 100000 100000 100000 100000 100000 100000 100000
          100000 100000 100000 100000 100000 100000 100000 100000 100000 100000 100000 100000
          100000 100000 100000 100000 100000 100000 100000 100000 100000 100000 100000 100000
          100000 100000 100000 100000 100000 100000 100000 100000 100000 100000 100000 100000
          100000 100000 100000 100000 100000 100000 100000 100000 100000 100000 100000 100000
          100000 100000 100000 100000 100000 100000 100000 100000 100000 100000 100000 100000
          100000 100000 100000 100000 100000 100000 100000 100000 100000 100000 100000 100000
          100000 100000 100000 100000 100000 100000 100000 100000 100000 100000 100000 100000
          100000 100000 100000 100000 100000 100000 100000 100000 100000 100000 100000 100000
          100000 100000 100000 100000 100000 100000 100000 100000 100000 100000 100000 100000
          100000 100000 100000 100000 100000 100000 100000 100000 100000 100000 100000 100000
          100000 100000 100000 100000 100000 100000 100000 100000 100000 100000 100000 100000
          100000 100000 100000 100000 100000 100000 100000 100000 100000 100000 100000 100000
          100000 100000 100000 100000 100000 100000 100000 100000 100000 100000 100000 100000
          100000 100000 100000 100000 100000 100000 100000 100000 100000 100000 100000 100000
          100000 100000 100000 100000 100000 100000 100000 100000 100000 100000 100000 100000
          100000 100000 100000 100000 100000 100000 100000 100000 100000 100000 100000 100000
          100000 100000 100000 100000 100000 100000 100000 100000 100000 100000 100000 100000
          100000 100000 100000 100000 100000 100000 100000 100000 100000 100000 100000 100000
          100000 100000 100000 100000 100000 100000 100000 100000 100000 100000 100000 100000
          100000 100000 100000 100000 100000 100000 100000 100000 100000 100000 100000 100000
          100000 100000 100000 100000 100000 100000 100000 100000 100000 100000 100000 100000
          100000 100000 100000 100000 100000 100000 100000 100000 100000 100000 100000 100000
          100000 100000 100000 100000 100000 100000 100000 100000 100000 100000 100000 100000
          100000 100000 100000 100000 100000 100000 100000 100000 100000 100000 100000 100000
          100000 100000 100000 100000 100000 100000 100000 100000 100000 100000 100000 100000
          100000 100000 100000 100000 100000 100000 100000 100000 100000 100000 100000 100000
          100000 100000 100000 100000 100000 100000 100000 100000 100000 100000 100000 100000
          100000 100000 100000 100000 100000 100000
        </DataArray>
        <DataArray type="Float32" Name="delp" NumberOfComponents="1" format="ascii">
          0 0.000252475 0 0.000252475 0.000505874 0.000505874 0.000757786 0.000757786 0.00100598 0.00100598 0.00124949 0.00124949
          0.00148633 0.00148633 0.00171465 0.00171465 0.0019328 0.0019328 0.00213933 0.00213933 0.00233303 0.00233303 0.00251371 0.00251371
          0.00268258 0.00268258 0.00283919 0.00283919 0.00298327 0.00298327 0.00311475 0.00311475 0.00323373 0.00323373 0.00334044 0.00334044
          0.00343524 0.00343524 0.0035186 0.0035186 0.00359104 0.00359104 0.00365318 0.00365318 0.00370563 0.00370563 0.00374907 0.00374907
          0.00378414 0.00378414 0.00381216 0.00381216 0.00383451 0.00383451 0.00385171 0.00385171 0.00386423 0.00386423 0.00387251 0.00387251
          0.00387699 0.00387699 0.00387804 0.00387804 0.00387605 0.00387605 0.00387133 0.00387133 0.0038642 0.0038642 0.00385494 0.00385494
          0.00384378 0.00384378 0.00383095 0.00383095 0.00381667 0.00381667 0.0038011 0.0038011 0.00378441 0.00378441 0.00376673 0.00376673
          0.0037482 0.0037482 0.00372893 0.00372893 0.00370901 0.00370901 0.00368854 0.00368854 0.00366757 0.00366757 0.00364619 0.00364619
          0.00362445 0.00362445 0.00360239 0.00360239 0.00358006 0.00358006 0.0035575 0.0035575 0.00353474 0.00353474 0.00351182 0.00351182
          0.00348874 0.00348874 0.00346554 0.00346554 0.00344223 0.00344223 0.00341883 0.00341883 0.00339535 0.00339535 0.00337181 0.00337181
          0.0033482 0.0033482 0.00332455 0.00332455 0.00330086 0.00330086 0.00327713 0.00327713 0.00325337 0.00325337 0.00322959 0.00322959
          0.00320578 0.00320578 0.00318195 0.00318195 0.00315811 0.00315811 0.00313426 0.00313426 0.00311039 0.00311039 0.00308652 0.00308652
          0.00306263 0.00306263 0.00303874 0.00303874 0.00301484 0.00301484 0.00299094 0.00299094 0.00296704 0.00296704 0.00294313 0.00294313
          0.00291922 0.00291922 0.0028953 0.0028953 0.00287138 0.00287138 0.00284746 0.00284746 0.00282354 0.00282354 0.00279962 0.00279962
          0.0027757 0.0027757 0.00275178 0.00275178 0.00272785 0.00272785 0.00270393 0.00270393 0.00268 0.00268 0.00265607 0.00265607
          0.00263215 0.00263215 0.00260822 0.00260822 0.00258429 0.00258429 0.00256037 0.00256037 0.00253644 0.00253644 0.00251251 0.00251251
          0.00248858 0.00248858 0.00246465 0.00246465 0.00244073 0.00244073 0.0024168 0.0024168 0.00239287 0.00239287 0.00236894 0.00236894
          0.00234501 0.00234501 0.00232108 0.00232108 0.00229716 0.00229716 0.00227323 0.00227323 0.0022493 0.0022493 0.00222537 0.00222537
          0.00220144 0.00220144 0.00217751 0.00217751 0.00215358 0.00215358 0.00212966 0.00212966 0.00210573 0.00210573 0.0020818 0.0020818
          0.00205787 0.00205787 0.00203394 0.00203394 0.00201001 0.00201001 0.00198608 0.00198608 0.00196215 0.00196215 0.00193823 0.00193823
          0.0019143 0.0019143 0.00189037 0.00189037 0.00186644 0.00186644 0.00184251 0.00184251 0.00181858 0.00181858 0.00179465 0.00179465
          0.00177073 0.00177073 0.0017468 0.0017468 0.00172287 0.00172287 0.00169894 0.00169894 0.00167501 0.00167501 0.00165108 0.00165108
          0.00162715 0.00162715 0.00160322 0.00160322 0.0015793 0.0015793 0.00155537 0.00155537 0.00153144 0.00153144 0.00150751 0.00150751
          0.00148358 0.00148358 0.00145965 0.00145965 0.00143572 0.00143572 0.00141179 0.00141179 0.00138787 0.00138787 0.00136394 0.00136394
          0.00134001 0.00134001 0.00131608 0.00131608 0.00129215 0.00129215 0.00126822 0.00126822 0.00124429 0.00124429 0.00122036 0.00122036
          0.00119644 0.00119644 0.00117251 0.00117251 0.00114858 0.00114858 0.00112465 0.00112465 0.00110072 0.00110072 0.00107679 0.00107679
          0.00105286 0.00105286 0.00102893 0.00102893 0.00100501 0.00100501 0.000981078 0.000981078 0.000957149 0.000957149 0.00093322 0.00093322
          0.000909291 0.000909291 0.000885363 0.000885363 0.000861434 0.000861434 0.000837505 0.000837505 0.000813576 0.000813576 0.000789648 0.000789648
          0.000765719 0.000765719 0.00074179 0.00074179 0.000717862 0.000717862 0.000693933 0.000693933 0.000670004 0.000670004 0.000646075 0.000646075
          0.000622147 0.000622147 0.000598218 0.000598218 0.000574289 0.000574289 0.000550361 0.000550361 0.000526432 0.000526432 0.000502503 0.000502503
          0.000478574 0.000478574 0.000454646 0.000454646 0.000430717 0.000430717 0.000406788 0.000406788 0.000382859 0.000382859 0.000358931 0.000358931
          0.000335002 0.000335002 0.000311073 0.000311073 0.000287145 0.000287145 0.000263216 0.000263216 0.000239287 0.000239287 0.000215358 0.000215358
          0.00019143 0.00019143 0.000167501 0.000167501 0.000143572 0.000143572 0.000119644 0.000119644 9.57149e-05 9.57149e-05 7.17862e-05 7.17861e-05
          4.78574e-05 4.78574e-05 2.39287e-05 2.39287e-05 0 0
        </DataArray>
        <DataArray type="Float32" Name="velocity_liq (m/s)" NumberOfComponents="3" format="ascii">
          -1.16593e-09 8.51209e-19 0 -1.16052e-09 0 0 -1.16593e-09 8.51209e-19 0 -1.16052e-09 0 0
          -1.14449e-09 8.29172e-19 0 -1.14449e-09 8.29172e-19 0 -1.11832e-09 -4.09371e-19 0 -1.11832e-09 -4.09371e-19 0
          -1.08514e-09 -2.02051e-18 0 -1.08514e-09 -2.02051e-18 0 -1.04625e-09 -2.39224e-18 0 -1.04625e-09 -2.39224e-18 0
          -1.00056e-09 -2.7553e-18 0 -1.00056e-09 -2.7553e-18 0 -9.49011e-10 -5.44363e-18 0 -9.49011e-10 -5.44363e-18 0
          -8.92616e-10 -4.03576e-18 0 -8.92616e-10 -4.03576e-18 0 -8.3242e-10 -3.61184e-18 0 -8.3242e-10 -3.61184e-18 0
          -7.70837e-10 -2.44617e-18 0 -7.70837e-10 -2.44617e-18 0 -7.125e-10 -3.5395e-18 0 -7.125e-10 -3.5395e-18 0
          -6.57001e-10 -1.84413e-19 0 -6.57001e-10 -1.84413e-19 0 -6.01536e-10 -5.4809e-19 0 -6.01536e-10 -5.4809e-19 0
          -5.46752e-10 -1.99246e-18 0 -5.46752e-10 -1.99246e-18 0 -4.93211e-10 -1.79711e-18 0 -4.93211e-10 -1.79711e-18 0
          -4.41384e-10 -1.07054e-18 0 -4.41384e-10 -1.07054e-18 0 -3.91652e-10 -3.54521e-19 0 -3.91652e-10 -3.54521e-19 0
          -3.4431e-10 -3.52425e-19 0 -3.4431e-10 -3.52425e-19 0 -2.99574e-10 3.50541e-19 0 -2.99574e-10 3.50541e-19 0
          -2.57586e-10 -6.97706e-19 0 -2.57586e-10 -6.97706e-19 0 -2.18424e-10 -1.91039e-18 0 -2.18424e-10 -1.91039e-18 0
          -1.82111e-10 -5.18996e-19 0 -1.82111e-10 -5.18996e-19 0 -1.48621e-10 -2.06879e-18 0 -1.48621e-10 -2.06879e-18 0
[...]
      <CellData Scalars="process rank">
        <DataArray type="Float32" Name="process rank" NumberOfComponents="1" format="ascii">
          0 0 0 0 0 0 0 0 0 0 0 0
          0 0 0 0 0 0 0 0 0 0 0 0
          0 0 0 0 0 0 0 0 0 0 0 0
          0 0 0 0 0 0 0 0 0 0 0 0
          0 0 0 0 0 0 0 0 0 0 0 0
          0 0 0 0 0 0 0 0 0 0 0 0
          0 0 0 0 0 0 0 0 0 0 0 0
          0 0 0 0 0 0 0 0 0 0 0 0
          0 0 0 0 0 0 0 0 0 0 0 0
          0 0 0 0 0 0 0 0 0 0 0 0
          0 0 0 0 0 0 0 0 0 0 0 0
          0 0 0 0 0 0 0 0 0 0 0 0
          0 0 0 0 0 0 0 0 0 0 0 0
          0 0 0 0 0 0 0 0 0 0 0 0
          0 0 0 0 0 0 0 0 0 0 0 0
          0 0 0 0 0 0 0 0 0 0 0 0
          0 0 0 0 0 0 0 0
        </DataArray>
      </CellData>
      <Points>
        <DataArray type="Float32" Name="Coordinates" NumberOfComponents="3" format="ascii">
          0 0 0 0.025 0 0 0 1 0 0.025 1 0
          0.05 0 0 0.05 1 0 0.075 0 0 0.075 1 0
          0.1 0 0 0.1 1 0 0.125 0 0 0.125 1 0
          0.15 0 0 0.15 1 0 0.175 0 0 0.175 1 0
          0.2 0 0 0.2 1 0 0.225 0 0 0.225 1 0
          0.25 0 0 0.25 1 0 0.275 0 0 0.275 1 0
          0.3 0 0 0.3 1 0 0.325 0 0 0.325 1 0
          0.35 0 0 0.35 1 0 0.375 0 0 0.375 1 0
          0.4 0 0 0.4 1 0 0.425 0 0 0.425 1 0
          0.45 0 0 0.45 1 0 0.475 0 0 0.475 1 0
          0.5 0 0 0.5 1 0 0.525 0 0 0.525 1 0
          0.55 0 0 0.55 1 0 0.575 0 0 0.575 1 0
          0.6 0 0 0.6 1 0 0.625 0 0 0.625 1 0
          0.65 0 0 0.65 1 0 0.675 0 0 0.675 1 0
          0.7 0 0 0.7 1 0 0.725 0 0 0.725 1 0
          0.75 0 0 0.75 1 0 0.775 0 0 0.775 1 0
          0.8 0 0 0.8 1 0 0.825 0 0 0.825 1 0
          0.85 0 0 0.85 1 0 0.875 0 0 0.875 1 0
          0.9 0 0 0.9 1 0 0.925 0 0 0.925 1 0
          0.95 0 0 0.95 1 0 0.975 0 0 0.975 1 0
          1 0 0 1 1 0 1.025 0 0 1.025 1 0
          1.05 0 0 1.05 1 0 1.075 0 0 1.075 1 0
          1.1 0 0 1.1 1 0 1.125 0 0 1.125 1 0
          1.15 0 0 1.15 1 0 1.175 0 0 1.175 1 0
          1.2 0 0 1.2 1 0 1.225 0 0 1.225 1 0
          1.25 0 0 1.25 1 0 1.275 0 0 1.275 1 0
          1.3 0 0 1.3 1 0 1.325 0 0 1.325 1 0
          1.35 0 0 1.35 1 0 1.375 0 0 1.375 1 0
          1.4 0 0 1.4 1 0 1.425 0 0 1.425 1 0
          1.45 0 0 1.45 1 0 1.475 0 0 1.475 1 0
          1.5 0 0 1.5 1 0 1.525 0 0 1.525 1 0
          1.55 0 0 1.55 1 0 1.575 0 0 1.575 1 0
          1.6 0 0 1.6 1 0 1.625 0 0 1.625 1 0
          1.65 0 0 1.65 1 0 1.675 0 0 1.675 1 0
          1.7 0 0 1.7 1 0 1.725 0 0 1.725 1 0
          1.75 0 0 1.75 1 0 1.775 0 0 1.775 1 0
          1.8 0 0 1.8 1 0 1.825 0 0 1.825 1 0
          1.85 0 0 1.85 1 0 1.875 0 0 1.875 1 0
          1.9 0 0 1.9 1 0 1.925 0 0 1.925 1 0
          1.95 0 0 1.95 1 0 1.975 0 0 1.975 1 0
          2 0 0 2 1 0 2.025 0 0 2.025 1 0
          2.05 0 0 2.05 1 0 2.075 0 0 2.075 1 0
          2.1 0 0 2.1 1 0 2.125 0 0 2.125 1 0
          2.15 0 0 2.15 1 0 2.175 0 0 2.175 1 0
          2.2 0 0 2.2 1 0 2.225 0 0 2.225 1 0
          2.25 0 0 2.25 1 0 2.275 0 0 2.275 1 0
          2.3 0 0 2.3 1 0 2.325 0 0 2.325 1 0
          2.35 0 0 2.35 1 0 2.375 0 0 2.375 1 0
          2.4 0 0 2.4 1 0 2.425 0 0 2.425 1 0
          2.45 0 0 2.45 1 0 2.475 0 0 2.475 1 0
          2.5 0 0 2.5 1 0 2.525 0 0 2.525 1 0
          2.55 0 0 2.55 1 0 2.575 0 0 2.575 1 0
          2.6 0 0 2.6 1 0 2.625 0 0 2.625 1 0
          2.65 0 0 2.65 1 0 2.675 0 0 2.675 1 0
          2.7 0 0 2.7 1 0 2.725 0 0 2.725 1 0
          2.75 0 0 2.75 1 0 2.775 0 0 2.775 1 0
          2.8 0 0 2.8 1 0 2.825 0 0 2.825 1 0
          2.85 0 0 2.85 1 0 2.875 0 0 2.875 1 0
          2.9 0 0 2.9 1 0 2.925 0 0 2.925 1 0
          2.95 0 0 2.95 1 0 2.975 0 0 2.975 1 0
          3 0 0 3 1 0 3.025 0 0 3.025 1 0
          3.05 0 0 3.05 1 0 3.075 0 0 3.075 1 0
          3.1 0 0 3.1 1 0 3.125 0 0 3.125 1 0
          3.15 0 0 3.15 1 0 3.175 0 0 3.175 1 0
          3.2 0 0 3.2 1 0 3.225 0 0 3.225 1 0
          3.25 0 0 3.25 1 0 3.275 0 0 3.275 1 0
          3.3 0 0 3.3 1 0 3.325 0 0 3.325 1 0
          3.35 0 0 3.35 1 0 3.375 0 0 3.375 1 0
          3.4 0 0 3.4 1 0 3.425 0 0 3.425 1 0
          3.45 0 0 3.45 1 0 3.475 0 0 3.475 1 0
          3.5 0 0 3.5 1 0 3.525 0 0 3.525 1 0
          3.55 0 0 3.55 1 0 3.575 0 0 3.575 1 0
          3.6 0 0 3.6 1 0 3.625 0 0 3.625 1 0
          3.65 0 0 3.65 1 0 3.675 0 0 3.675 1 0
          3.7 0 0 3.7 1 0 3.725 0 0 3.725 1 0
          3.75 0 0 3.75 1 0 3.775 0 0 3.775 1 0
          3.8 0 0 3.8 1 0 3.825 0 0 3.825 1 0
          3.85 0 0 3.85 1 0 3.875 0 0 3.875 1 0
          3.9 0 0 3.9 1 0 3.925 0 0 3.925 1 0
          3.95 0 0 3.95 1 0 3.975 0 0 3.975 1 0
          4 0 0 4 1 0 4.025 0 0 4.025 1 0
          4.05 0 0 4.05 1 0 4.075 0 0 4.075 1 0
          4.1 0 0 4.1 1 0 4.125 0 0 4.125 1 0
          4.15 0 0 4.15 1 0 4.175 0 0 4.175 1 0
          4.2 0 0 4.2 1 0 4.225 0 0 4.225 1 0
          4.25 0 0 4.25 1 0 4.275 0 0 4.275 1 0
          4.3 0 0 4.3 1 0 4.325 0 0 4.325 1 0
          4.35 0 0 4.35 1 0 4.375 0 0 4.375 1 0
          4.4 0 0 4.4 1 0 4.425 0 0 4.425 1 0
          4.45 0 0 4.45 1 0 4.475 0 0 4.475 1 0
          4.5 0 0 4.5 1 0 4.525 0 0 4.525 1 0
          4.55 0 0 4.55 1 0 4.575 0 0 4.575 1 0
          4.6 0 0 4.6 1 0 4.625 0 0 4.625 1 0
          4.65 0 0 4.65 1 0 4.675 0 0 4.675 1 0
          4.7 0 0 4.7 1 0 4.725 0 0 4.725 1 0
          4.75 0 0 4.75 1 0 4.775 0 0 4.775 1 0
          4.8 0 0 4.8 1 0 4.825 0 0 4.825 1 0
          4.85 0 0 4.85 1 0 4.875 0 0 4.875 1 0
          4.9 0 0 4.9 1 0 4.925 0 0 4.925 1 0
          4.95 0 0 4.95 1 0 4.975 0 0 4.975 1 0
          5 0 0 5 1 0
        </DataArray>
      </Points>
      <Cells>
        <DataArray type="Int32" Name="connectivity" NumberOfComponents="1" format="ascii">
          0 1 3 2 1 4 5 3 4 6 7 5
          6 8 9 7 8 10 11 9 10 12 13 11
          12 14 15 13 14 16 17 15 16 18 19 17
          18 20 21 19 20 22 23 21 22 24 25 23
          24 26 27 25 26 28 29 27 28 30 31 29
          30 32 33 31 32 34 35 33 34 36 37 35
          36 38 39 37 38 40 41 39 40 42 43 41
          42 44 45 43 44 46 47 45 46 48 49 47
          48 50 51 49 50 52 53 51 52 54 55 53
          54 56 57 55 56 58 59 57 58 60 61 59
          60 62 63 61 62 64 65 63 64 66 67 65
          66 68 69 67 68 70 71 69 70 72 73 71
          72 74 75 73 74 76 77 75 76 78 79 77
          78 80 81 79 80 82 83 81 82 84 85 83
          84 86 87 85 86 88 89 87 88 90 91 89
          90 92 93 91 92 94 95 93 94 96 97 95
          96 98 99 97 98 100 101 99 100 102 103 101
          102 104 105 103 104 106 107 105 106 108 109 107
          108 110 111 109 110 112 113 111 112 114 115 113
          114 116 117 115 116 118 119 117 118 120 121 119
          120 122 123 121 122 124 125 123 124 126 127 125
          126 128 129 127 128 130 131 129 130 132 133 131
          132 134 135 133 134 136 137 135 136 138 139 137
          138 140 141 139 140 142 143 141 142 144 145 143
          144 146 147 145 146 148 149 147 148 150 151 149
          150 152 153 151 152 154 155 153 154 156 157 155
          156 158 159 157 158 160 161 159 160 162 163 161
          162 164 165 163 164 166 167 165 166 168 169 167
          168 170 171 169 170 172 173 171 172 174 175 173
          174 176 177 175 176 178 179 177 178 180 181 179
          180 182 183 181 182 184 185 183 184 186 187 185
          186 188 189 187 188 190 191 189 190 192 193 191
          192 194 195 193 194 196 197 195 196 198 199 197
          198 200 201 199 200 202 203 201 202 204 205 203
          204 206 207 205 206 208 209 207 208 210 211 209
          210 212 213 211 212 214 215 213 214 216 217 215
          216 218 219 217 218 220 221 219 220 222 223 221
          222 224 225 223 224 226 227 225 226 228 229 227
          228 230 231 229 230 232 233 231 232 234 235 233
          234 236 237 235 236 238 239 237 238 240 241 239
          240 242 243 241 242 244 245 243 244 246 247 245
          246 248 249 247 248 250 251 249 250 252 253 251
          252 254 255 253 254 256 257 255 256 258 259 257
          258 260 261 259 260 262 263 261 262 264 265 263
          264 266 267 265 266 268 269 267 268 270 271 269
          270 272 273 271 272 274 275 273 274 276 277 275
          276 278 279 277 278 280 281 279 280 282 283 281
          282 284 285 283 284 286 287 285 286 288 289 287
          288 290 291 289 290 292 293 291 292 294 295 293
          294 296 297 295 296 298 299 297 298 300 301 299
          300 302 303 301 302 304 305 303 304 306 307 305
          306 308 309 307 308 310 311 309 310 312 313 311
          312 314 315 313 314 316 317 315 316 318 319 317
          318 320 321 319 320 322 323 321 322 324 325 323
          324 326 327 325 326 328 329 327 328 330 331 329
          330 332 333 331 332 334 335 333 334 336 337 335
          336 338 339 337 338 340 341 339 340 342 343 341
          342 344 345 343 344 346 347 345 346 348 349 347
          348 350 351 349 350 352 353 351 352 354 355 353
          354 356 357 355 356 358 359 357 358 360 361 359
          360 362 363 361 362 364 365 363 364 366 367 365
          366 368 369 367 368 370 371 369 370 372 373 371
          372 374 375 373 374 376 377 375 376 378 379 377
          378 380 381 379 380 382 383 381 382 384 385 383
          384 386 387 385 386 388 389 387 388 390 391 389
          390 392 393 391 392 394 395 393 394 396 397 395
          396 398 399 397 398 400 401 399
        </DataArray>
        <DataArray type="Int32" Name="offsets" NumberOfComponents="1" format="ascii">
          4 8 12 16 20 24 28 32 36 40 44 48
          52 56 60 64 68 72 76 80 84 88 92 96
          100 104 108 112 116 120 124 128 132 136 140 144
          148 152 156 160 164 168 172 176 180 184 188 192
          196 200 204 208 212 216 220 224 228 232 236 240
          244 248 252 256 260 264 268 272 276 280 284 288
          292 296 300 304 308 312 316 320 324 328 332 336
          340 344 348 352 356 360 364 368 372 376 380 384
          388 392 396 400 404 408 412 416 420 424 428 432
          436 440 444 448 452 456 460 464 468 472 476 480
          484 488 492 496 500 504 508 512 516 520 524 528
          532 536 540 544 548 552 556 560 564 568 572 576
          580 584 588 592 596 600 604 608 612 616 620 624
          628 632 636 640 644 648 652 656 660 664 668 672
          676 680 684 688 692 696 700 704 708 712 716 720
          724 728 732 736 740 744 748 752 756 760 764 768
          772 776 780 784 788 792 796 800
        </DataArray>
        <DataArray type="UInt8" Name="types" NumberOfComponents="1" format="ascii">
          9 9 9 9 9 9 9 9 9 9 9 9
          9 9 9 9 9 9 9 9 9 9 9 9
          9 9 9 9 9 9 9 9 9 9 9 9
          9 9 9 9 9 9 9 9 9 9 9 9
          9 9 9 9 9 9 9 9 9 9 9 9
          9 9 9 9 9 9 9 9 9 9 9 9
          9 9 9 9 9 9 9 9 9 9 9 9
          9 9 9 9 9 9 9 9 9 9 9 9
          9 9 9 9 9 9 9 9 9 9 9 9
          9 9 9 9 9 9 9 9 9 9 9 9
          9 9 9 9 9 9 9 9 9 9 9 9
          9 9 9 9 9 9 9 9 9 9 9 9
          9 9 9 9 9 9 9 9 9 9 9 9
          9 9 9 9 9 9 9 9 9 9 9 9
          9 9 9 9 9 9 9 9 9 9 9 9
          9 9 9 9 9 9 9 9 9 9 9 9
          9 9 9 9 9 9 9 9
        </DataArray>
      </Cells>
    </Piece>
  </UnstructuredGrid>
</VTKFile>
