<?xml version="1.0"?>
<VTKFile type="UnstructuredGrid" version="0.1" byte_order="LittleEndian">
  <UnstructuredGrid>
    <Piece NumberOfCells="1670" NumberOfPoints="911">
      <CellData Scalars="S_aq">
        <DataArray type="Float32" Name="S_aq" NumberOfComponents="1" format="ascii">
          0.971466 0.0678731 0.0642597 0.15012 1 0.0885692 0.85964 1 0.998856 0.985444 0.971453 1
          0.743735 1 0.933017 1 1 0.35794 0.950153 1 1 0.922127 1 0.996352
          0.965778 1 0.199375 0.999947 0.999291 0.687552 1 1 0.0637365 0.721962 1 0.0659706
          1 0.848909 0.999382 1 0.808067 0.9947 0.992362 0.994365 0.986129 0.99404 0.945469 0.999358
          0.799959 1 0.0698274 1 1 0.0629017 0.999479 0.088171 0.748311 1 0.0633733 1
          0.995188 1 1 0.0657028 0.694008 0.0690124 1 0.0844228 0.999892 1 1 0.0745324
          0.85441 0.996975 1 0.978381 0.979326 0.995103 1 0.078521 0.617633 0.892077 1 0.995002
          0.943855 0.97846 1 1 0.640963 1 1 0.0622742 1 0.163734 1 1
          0.0645344 0.84458 0.0776963 0.794551 1 0.0660316 1 1 0.999354 0.885696 0.121084 1
          0.0694592 0.102207 0.99744 0.0624551 0.0735156 0.782949 1 0.79342 1 0.0648066 1 1
          1 0.0691084 0.774014 0.0656469 0.0710931 0.332985 1 0.856959 1 0.0781731 1 0.0727879
          1 0.420564 0.965097 0.242784 0.231976 1 0.99938 1 1 1 0.0849033 1
          0.077855 0.86035 0.838722 1 1 1 1 0.0703347 1 1 0.0654188 0.80389
          1 0.0645503 0.748407 0.0667047 1 0.204273 0.1404 0.0714796 0.204859 0.785001 0.158364 1
          0.133422 0.178511 1 0.0767659 1 0.67678 1 0.737775 0.115095 1 0.0673282 0.0737297
          1 0.490656 0.0769884 0.884381 0.99775 1 1 0.0901306 1 1 1 1
          0.97997 0.995962 0.985105 0.994572 1 0.0778204 0.946357 0.967615 0.981892 0.978349 0.919868 0.919227
          0.0843195 0.070906 0.068069 1 0.0704461 1 0.19331 0.0921346 0.899417 0.996241 0.998514 1
          1 1 0.0639846 0.0666585 1 1 0.567629 0.567589 0.627937 1 0.0612457 1
          0.312473 0.696033 1 0.0619649 1 1 0.131906 1 0.995193 0.99389 1 0.0687976
          1 0.722948 0.0745589 0.997307 0.997049 0.998504 1 1 1 1 1 1
          0.0805594 1 1 1 1 1 1 1 0.139129 0.212617 1 0.827063
          0.804402 1 1 1 1 1 1 1 1 0.649764 1 1
          1 1 1 0.487656 1 1 1 1 1 1 1 1
          0.111326 1 0.997215 1 1 1 1 1 1 1 0.780668 1
          0.858025 1 0.190335 0.997744 1 1 1 0.999918 1 0.997886 1 1
          1 1 1 1 1 1 1 1 1 1 1 0.296828
          1 1 1 1 1 1 1 0.744773 1 1 1 1
          1 1 0.719248 1 1 1 1 1 1 1 1 1
          1 1 1 0.653781 0.999806 1 1 1 1 1 1 1
          1 1 1 1 1 1 1 1 1 1 1 1
          1 1 0.528356 1 1 1 1 1 1 1 1 1
          1 1 1 0.823867 0.0745119 1 1 0.103424 1 1 1 0.999964
          1 1 1 1 0.999104 1 1 1 1 1 1 0.999394
          1 0.984637 1 1 1 1 0.970253 1 1 1 1 1
          0.998805 1 0.216948 1 1 1 1 1 1 1 1 1
          0.884394 1 0.996105 1 1 1 1 1 0.995584 1 1 0.685905
          1 1 1 1 1 1 1 0.191802 1 1 0.987365 1
          1 1 1 1 1 1 1 1 1 1 0.476808 1
          1 1 1 1 1 1 0.999642 1 1 1 1 1
          1 1 1 1 1 1 1 1 1 1 1 0.672662
          0.969911 1 1 0.984632 1 1 1 1 1 1 1 1
          1 1 1 1 1 1 1 1 1 0.303633 0.999809 1
          1 1 0.966679 1 1 1 0.729513 0.867396 1 0.636262 1 1
          0.997273 1 1 1 1 1 0.873393 0.547047 1 1 1 1
          1 0.998777 1 1 1 1 1 1 0.32331 1 1 0.999951
          0.858784 1 1 0.122378 1 1 1 1 1 1 1 1
          1 1 1 0.569221 1 1 1 0.930577 1 1 1 1
          1 1 1 1 1 1 1 1 1 1 0.904622 0.995299
          1 0.215632 1 1 1 1 1 1 1 1 1 1
          1 1 1 1 1 1 0.844056 1 1 1 1 1
          0.540253 1 1 1 1 1 1 1 1 1 1 1
          1 1 1 1 1 1 1 1 1 1 1 1
          1 1 1 1 1 1 1 1 1 1 1 1
          1 1 1 1 1 0.744017 1 1 1 1 1 1
          1 1 1 1 0.999927 1 1 1 1 1 1 1
          1 1 0.852196 1 1 1 1 1 1 1 1 1
          1 1 1 1 1 1 1 1 1 1 1 1
          0.998772 1 1 0.780494 1 1 1 1 1 1 0.592085 0.790513
          0.833608 1 1 1 1 1 1 1 1 1 0.999974 1
          1 1 1 1 1 1 1 1 0.706918 1 1 1
          1 1 1 1 1 0.994978 1 1 1 1 1 1
          0.991331 1 1 1 1 1 1 1 1 1 1 1
          1 1 1 1 1 0.999941 1 0.991184 1 1 1 1
          0.978978 1 0.848238 1 1 0.176023 1 1 1 1 1 1
          1 1 1 0.987466 1 1 1 1 1 1 1 1
          1 1 1 0.980688 1 1 1 1 1 1 1 1
          1 0.999866 1 1 1 1 1 1 1 0.112347 1 1
          0.999899 0.637079 0.194717 1 1 1 1 1 1 1 1 1
          1 1 1 1 1 1 1 1 1 0.680643 1 1
          1 1 1 0.818955 1 1 1 1 1 1 1 1
          0.726371 1 1 1 0.910114 1 1 1 1 1 1 0.354634
          1 1 1 1 1 1 1 1 0.980685 1 0.999887 1
          1 0.308143 1 1 1 1 1 1 1 0.456554 1 1
          1 1 1 1 0.738995 1 0.643326 1 1 1 1 1
          1 1 1 1 0.713514 1 1 1 1 1 1 1
          1 0.717949 1 1 1 1 1 1 1 1 1 1
          1 1 0.70601 0.99888 1 0.384132 1 1 0.998997 1 1 1
          1 1 1 1 0.999124 1 1 1 1 1 1 1
          0.917393 1 0.879495 1 1 1 1 0.986526 0.751259 0.770214 0.996271 1
          0.860908 1 0.995621 1 1 1 1 1 0.986758 1 1 1
          1 1 0.122296 1 1 0.190057 1 1 1 1 1 1
          1 1 0.809727 1 1 1 0.990405 1 0.981231 1 0.540058 1
          1 1 1 1 1 1 1 1 1 1 1 1
          1 1 1 1 1 0.155919 0.836377 0.941593 1 1 1 1
          1 0.611059 1 0.871604 0.941434 1 1 1 1 1 1 1
          1 1 1 1 1 0.858726 1 1 1 1 0.868887 0.646192
          1 1 0.845259 1 1 1 1 1 1 1 1 1
          1 1 1 1 1 1 1 1 1 1 1 1
          1 0.828468 0.251803 1 1 1 1 1 1 1 1 1
          1 1 1 1 1 1 1 1 1 1 1 1
          1 1 1 1 1 1 0.270747 1 1 1 1 1
          1 1 1 1 1 0.387747 1 1 1 1 1 1
          1 1 1 0.843227 1 1 1 1 1 1 0.963166 1
          1 0.192839 1 1 1 1 1 1 1 1 1 1
          1 1 1 1 1 1 1 0.932862 1 1 0.951627 1
          1 1 1 1 1 1 1 1 1 1 0.441175 0.517686
          1 1 1 1 0.954068 1 1 1 1 1 1 1
          1 1 1 1 1 1 1 1 1 1 1 1
          1 1 1 1 1 1 0.978601 0.993556 1 1 1 1
          1 1 1 1 1 1 1 1 0.99203 1 1 1
          1 0.629739 1 1 1 1 1 1 1 1 1 1
          1 0.994216 1 1 1 1 1 1 1 0.994382 1 1
          1 1 1 1 1 1 1 1 1 1 1 1
          1 0.249477 1 0.53432 0.806747 0.962771 1 0.235008 0.876673 1 1 1
          1 1 1 1 1 1 1 1 1 0.30586 0.307252 0.907112
          0.686537 1 0.994353 1 1 1 1 1 0.978522 1 1 1
          1 1 1 1 1 0.696334 1 1 1 0.97652 1 1
          1 1 1 1 1 0.995678 1 1 1 1 1 1
          1 1 1 1 1 1 1 1 1 1 1 1
          1 0.74373 1 1 1 1 1 1 1 1 1 1
          1 1 1 1 1 0.859688 1 1 1 1 0.322239 0.918973
          1 0.517441 1 0.145902 1 1 1 1 1 1 1 1
          0.936296 1 1 1 1 1 1 1 1 0.189915 0.860708 1
          1 0.907627 0.280878 1 0.74681 1 1 1 1 1 1 0.340646
          1 1 1 1 1 0.946558 0.49286 0.996531 1 1 1 0.844728
          0.145146 1 1 1 1 1 1 1 1 1 1 1
          1 1 1 1 1 1 1 1 1 1 1 1
          1 1 1 1 1 1 1 1 1 0.999035 1 0.253014
          0.137809 1 1 0.110148 1 0.198859 1 0.998436 1 1 1 1
          1 1 1 1 1 0.906691 1 1 0.9981 1 1 1
          1 0.0667302 1 1 1 0.0759334 1 1 1 1 1 1
          1 1 1 1 1 1 1 0.138555 1 1 1 1
          1 0.0701003 1 0.0652859 1 1 1 1 1 1 1 0.0711341
          1 0.402854 1 1 1 1 1 0.386634 1 1 0.991376 1
          1 1 1 1 0.999364 1 0.255656 1 1 1 1 1
          0.0638456 1 1 1 1 1 0.999528 1 0.0846934 1 0.0726656 1
          0.964342 1 1 0.277208 1 1 0.434506 1 0.927962 1 0.917731 1
          1 0.0863237 1 0.0727668 1 0.896749 1 1 1 0.106109 0.677282 1
          1 0.122676 1 0.0962248 1 0.373966 1 0.996503 1 0.757282 1 1
          1 1 1 1 1 1 1 1 0.415471 0.546378 1 1
          1 1 1 1 0.128357 1 1 1 0.0976086 0.0745197 1 1
          1 0.0692043 1 1 1 1 1 1 1 1 1 1
          1 1 1 1 1 1 1 1 0.995935 0.152942 1 0.118384
          1 0.844495 1 1 1 1 1 0.97571 0.625592 1 1 1
          1 1 1 1 0.997253 1 1 1 1 1 1 1
          1 0.528656 0.179879 1 1 0.121416 0.250145 1 1 1 1 1
          0.0845484 1 0.0671779 1 1 1 0.0645616 1 0.0625034 1 1 1
          1 1 1 1 1 1 1 1 0.125918 1 1 0.994902
          1 1
        </DataArray>
        <DataArray type="Float32" Name="p_aq" NumberOfComponents="1" format="ascii">
          96241.8 100811 101178 100013 90928.2 100338 91278.3 91226.9 90974 96251.4 96304.4 95043.3
          97452 93502.4 96170.3 95160.9 93066.1 97922.8 96503.8 92444.7 97119.5 93899.7 92907.9 97313.9
          93688.8 93909.3 98536.6 92501 95558.5 95212.2 90666.9 95070.1 100977 94724.8 94617.4 100597
          90907.5 96255.1 95582 93721.5 98053.3 92962.5 96311.2 94506 96605.4 94250.5 95759.4 95223.6
          94515.2 94433.6 99827.4 91441.1 90643.7 101398 97957.2 98228.6 93162.5 93152.5 100716 90697.1
          95831 90914.5 95674.1 100720 95841.9 99692.5 93522.3 99117.2 91942.9 91969.8 95583.7 99213.6
          95728.8 94445.3 93725.2 94855.6 94363.5 96584.9 91994.1 98482.3 98151.8 92871.4 93515.4 97064.5
          95132.9 93901.3 94341.5 94604.6 96280 90566.1 96110.7 101250 94965.4 98395.6 92629 90897.5
          101107 98351.7 98714.9 92769.2 92760.5 100370 90938.5 91864.6 97489.1 93553.5 97716.9 92883.7
          99602.5 98979.2 92059.2 101439 99518.1 98968.6 90680.8 92199.9 92186.8 100620 90716.3 91489.5
          95833.3 99830.6 96002.4 101067 99935.6 99308.4 90990.4 91886.9 91863.4 100276 91023.8 98724.9
          92663.5 98393.5 92643.4 97168.7 97332.8 93539.5 96064.5 92093.1 95193.1 91836.6 99023.4 94617.6
          99318.7 95314 94697.1 90843.1 91398.2 93781.1 91475.3 99724.7 93649.2 90914.7 100476 93817.1
          97458.7 101078 93686.9 100357 97266.7 97476.2 97668.5 99119.3 97134.2 96651.5 97283.5 92999.6
          97484.2 97974.6 95864.7 98601.8 94010.3 96820.1 94010.8 96833.4 97474.7 91606.9 100145 98908.6
          92563.2 98486.6 99446.4 92574.2 91636.6 92221.3 92497.5 98449.2 96027.8 96521.7 94492.9 93962.8
          97259.5 93694.9 97504.6 93469.7 93045.8 98216.1 97955.1 93066.1 95272.4 95754.5 95002.7 94427
          98010.6 99158.8 100220 91594.3 99740.9 91966.8 99150.1 99510.6 91978 91611.1 94874.8 94422.6
          90781.7 91309.1 101045 100338 96606.4 96712.6 96896.9 96788.3 96691.4 90481.7 101490 97015.1
          97203.5 94138.9 94092.1 100974 90565.5 94388.2 98695.1 92363.8 95315.4 95118.2 91626.3 99852.8
          96424.8 96601.9 98417.1 95781.1 94878.3 95251.6 96264.6 96314 93291.7 93560.9 95841.5 98315
          100306 95932.3 98197.1 97231.3 95854 97673.9 95628.6 91834.4 99921.6 99894.3 94459.3 96493.5
          96493.4 94936.2 95074.7 96266.1 92624.3 92420.2 95162.6 94940.1 95639.5 98950.7 95371.8 93232.7
          93488 95539.8 93198.4 99642.3 95843.6 93179.8 95379.5 95276.3 93471.7 94589 91078.6 96847.5
          100281 93561.1 98822.6 96366 96352.3 94146.6 92374.2 95955 96418.1 96208.5 95567.6 93935.5
          94800 96254.1 99965.3 98639.5 95666.8 95318.5 95689.2 97951.1 95217.4 99080.8 97849.7 97521.6
          92859.6 95908.5 91419.4 92464.6 94407.3 92283.1 95861.2 95801.3 95085.1 93064.2 97199.4 99699.9
          95285.7 91271.2 95889.7 95707.2 94350.8 93994.1 93851.2 98418 96005 96819.5 93119.1 93961.2
          97029.9 94624.9 98878.5 98674.4 96339.3 98511 95191.6 95718.9 94093.7 90972.1 97446.4 95068.6
          94243 95445.3 96197.7 99195.1 97865.1 97525.4 95163.8 93382.3 95559.2 93477.4 95490.1 95318.4
          95586 95988.9 94551.7 91796.1 96369.3 98678.9 91968.5 94570.7 95911.1 95548.8 93425.8 97086.6
          95102.6 95151.4 99650.1 96717.5 96814.2 96766.2 91337.6 91660.1 92937.1 94601.8 98549.8 98409.5
          92225.8 93822.9 94668 97088.1 100453 96842.3 97865.7 100133 95486 97824.4 93197.4 98370.1
          94807.2 96800.5 97458.8 93859.5 98682.8 96957.6 96111.7 97935.9 95904 93126 97195.3 98366.6
          94868.1 92834.1 97542.6 92142.9 97289.2 94200.6 95582.5 95287 96239.5 95436.4 93840.5 92291.6
          96901.8 94957.2 99810.3 97458.8 92195.8 93165 94122.5 96121.7 95327.5 92015.9 95361.4 96340.1
          99304.5 92766.9 98485.1 95612 97562.9 92692 95505.4 94034.8 92299.6 97960.4 95253 98454.5
          95038.9 93906.9 96118.9 94254.9 95230.4 92431.7 93725.7 100120 94017.8 96443.8 98854.5 94241.6
          95746.3 96601.9 93663.5 93171.3 97503.8 95470.1 96113.7 94838.4 95139.3 91207.9 99269.9 91229.9
          91804.8 95852 94960.6 91036.6 91741.4 96756.7 98310.5 97080.3 94601 92793.4 98008.6 93070.8
          95386.8 93909 95184.6 93862.2 97036.2 90932.6 91169.8 91777.3 92482.6 95456.3 92663.5 97831.7
          94672.8 93489 95366.7 94014.4 96490.2 93005.3 94430.9 94965.2 97143 93271.7 94083.1 94464.8
          94287 93216.6 93072.1 93426.6 96696.7 92091.3 94562.1 96673.3 94427.3 99902.4 97863.3 94552.2
          94536 91855.7 99152.7 92729.3 95163.5 95004.7 97906.7 99420.7 95481.5 99534.7 94989.3 94639.7
          99028 95636.7 94510 94514.1 94993.4 92721 98944.9 99377.9 95052.9 92382.6 96405.8 97825.3
          94315.8 97376.8 94840 96064.2 94816.2 94072.7 94165.4 95371.8 99950.8 94611.8 96381.8 97380
          93694.7 96918.3 94118.6 100175 95280.7 94159.8 91301.6 91746.5 94677.5 91211.5 97711 90916.9
          94869.5 93777.5 96445.4 99297.6 94804.2 94499 97404.9 92695.8 97734.6 95366.4 96421.9 97017.1
          93597.3 94973.2 95532.4 98585.4 98325.9 91073.9 91555.3 94904.9 99012 91220.6 91268 99091.4
          92981 99446.6 95687.4 96084.9 95717 95139.2 96704.3 91462.1 96608.4 98169.1 93830.9 94825.2
          95505 91934.4 91819.6 92000.2 98449.1 97929.2 92907.5 97581.3 90831 97560.3 96898.9 94096.5
          99125.4 95266 92608 92638.4 94764.8 98214.2 97553.6 94836.5 95519.4 95458.5 95861.9 93502.1
          92512.9 95290.3 95322.8 98250.6 97884.4 97284.4 94554.9 96845.8 96516.9 94500.3 92669.4 96086.4
          96819.5 95382 95357 96643.9 95335 95263.4 95335 95300.8 98248.5 98075.1 95426 96537.1
          94931.2 95344.4 94649.3 95311.1 94798.3 98830.4 93495 90967.8 94030.3 91216.7 93055.2 94539.4
          92126.9 96078.1 94708.2 91260.4 97950.6 96060.4 93931.1 94921.3 95766.6 95172.5 95090.3 94823.2
          95567.3 96238.7 96313.6 95699.4 94813.6 98552 91646.2 95603.5 96700 95717.1 95531.4 98314
          95299.8 95413.8 95146.9 92560.7 95167.8 94919.4 95967.1 95024.5 96430.1 96090.6 95871.4 97426.5
          99364 98939.6 95197.4 98296.5 95266.3 95177.4 96153.6 96243 96943 95088.1 100409 98864.9
          96196.3 95731.4 95161.8 94722.8 96674 98020.6 97919.3 97555.1 97243.8 97963.7 98367 98922.4
          94042.9 95336.1 94904.9 92147.8 95438.6 93893.1 92297.5 96221.9 100241 94325.2 97770.4 97452.5
          94284.8 97489.4 92545.4 93049.3 96458.3 94077.9 95976.8 98024.2 94161.7 94055.3 94869.8 95228.3
          95479.3 95920.6 94399.3 95224.1 95487.8 93795.7 94628.3 95488.7 93453.5 97201.6 93050.5 93153.3
          95574.3 95853.2 96590.5 93944.5 94363.9 96785.3 95485.2 94839 91723.6 92110.5 94445.7 96983.9
          93425.9 95230.5 96906.4 95497.9 93739.3 100559 95035.6 92367.3 95571.6 93567.7 94581.5 94230.8
          96748.2 97376.5 97950.3 99771.9 97569.4 92127.9 96741.4 97015.8 90935.3 95918.4 96779.8 96249.8
          92711.7 94449.2 97829.5 92541.7 94694.5 94524.1 94118.4 96909.5 95892.4 95265.8 95293.8 96289.1
          95627.7 97618.6 95219 95024.1 93934.6 91923.6 93684.7 92060.5 96242.1 100317 98402.1 95631.5
          97225.9 100015 99977.8 96441.4 96491.8 98900.8 98409.2 99240.3 97148.1 94242.8 96151.3 93904.8
          92718.5 93139.9 94714.5 96191.6 93667.5 96635.6 94064.1 95957.9 91239.5 99446.6 91375.1 93201.1
          96058.7 93717.4 95065.4 99334.3 96383.5 92995.1 92867.1 93600.4 92248.6 97021.7 94484.1 96335.2
          98292.5 96966.1 90994.1 93408.1 98957.4 93778.4 95954.9 94081.5 97608 93457.8 97926.7 100308
          94407.6 91765.9 95593.5 98970.2 97079 97235 93086.3 96028.9 99823.5 95686.2 97237.2 92202.7
          92743.1 100287 94427.9 94926.9 98091 92174 94413.6 95385.5 95860.5 100298 94496.7 91880.2
          96316.5 95959 97638.6 92593 99535.5 95272.8 99791.4 94577.4 97410.1 94785.4 98863.3 98687.9
          93230 94256.6 92592.3 97101.4 99827.9 92361.4 92195.7 92141 96908.3 96775.3 90928.7 97065
          94274.4 97646.9 98734.1 96310.3 95614.9 95324.9 91254 96684.5 98017 94433.7 93924.6 92701.9
          93495.2 95129.3 99671.1 98362.7 93475.4 100155 91691.1 91662.3 99477 93665 93658.8 92690.8
          91444.4 94701.5 92544.5 93537.7 98463.9 97017 91844.4 95365.8 98545.9 93539.9 92601.5 98731.8
          91620.7 94998 99363.8 96448.3 93787.5 95376.1 91239.9 99318.2 99362.3 97766.8 98950.6 97452.5
          92997.8 92994 98846 95521.7 94267.6 94084.9 90807.9 98240.3 99290.2 94941.5 92093.8 94505
          91960.5 93769.3 100605 93263.1 96779.7 100642 95562.4 91111.1 94019.3 94320.7 97567.7 93215.8
          97302.5 90946.6 95098.4 95496.2 93298 98873.7 99195.6 92724.2 99443.5 92562.5 99949.1 98423.2
          91564.7 92903.9 91134 93096.7 98198.6 93106.8 94253.9 96769.5 96929.7 93203.1 91709.4 96743.7
          96446.2 96958.2 95367.2 98631.2 98031.2 100220 95381.4 94785.6 94107.5 97764.9 97348 91905.4
          92813.9 99706.5 96488.7 94056.5 94047 96489.9 92959.1 93073 97637.2 97496 94674.5 94611.7
          97707.9 97436.1 95159.6 92704.4 90769.4 94746 92814.3 93782.6 95145.4 93349.8 95105.7 99239.8
          91144.3 91194.7 96449.1 94401 94410.3 95843 95661.1 94595 98394.5 98600.1 95672.3 95886.3
          95356.9 92123.5 95621.4 97760.5 97499.5 94711.2 97785.4 91460.4 94449.2 97811.7 95332.8 95423.4
          97492 96287.9 99992.5 94156 90905.2 97438 92225.6 94437.7 94533.9 96794.5 98664.6 94785.2
          94586.7 94790.8 95261.7 97056.7 95952.1 94718.5 91208.2 92398.2 95333 95680.9 95031.6 93058.5
          95246.9 91998.2 93150.4 93469.3 98145.5 95052.6 99670.1 98555.4 96567.9 98736.8 95083.3 94584.4
          95207.4 97194.7 93059.2 91360.2 95355 99778.4 94897 95050.4 96514.8 96949.8 97100.5 92588.8
          94828.4 94191 97889 97072.7 93895.4 96193.8 92176.8 92383.1 94657.5 92534.5 95541.8 95254.7
          96893.6 100139 93506.9 95329.7 96749.1 95365.3 94802.1 91865.8 93106.1 93421.5 95555 97598.5
          95135.7 97494.5 95273.5 95312.4 95093.6 95968.1 94536.3 99231.8 94448.5 92365.2 99108.8 95901.6
          94573.6 95008.6 97579.6 93910.6 95586.2 95530.3 91489.5 94291.6 94181.7 94155.4 99709 99462.2
          98071.4 96206.7 92500.9 92624.2 98817.6 97179.2 95569.5 93912 90662.3 94022.2 93161.4 90986.7
          95171.9 93162.1 97791.3 92650.1 96164.5 94068.4 93549.4 97143.1 92355.5 94055.2 94678.7 93093.5
          94836.4 97195.9 93123.6 92648.5 96114.2 97575 92850 98865.9 93708.1 96749 95143.8 95690.6
          94765.1 95232.3 97158.7 98733.5 94003.5 96029.7 91263 93538.2 98804.6 97838.8 96878.2 94838.1
          95274 99053.4 95126.5 94643.8 91762 98252.1 92522.5 94838.5 93459.5 98325.2 95427.4 96948.8
          97983.9 92318.8 95299.5 92580.8 95957.7 97065.8 94278.4 96127.4 95439 98612.3 97251 91009.3
          96454.3 94027.7 92177.7 96621.5 95131.1 96627.5 93694.7 97837 93499.7 95418.7 94783.4 96100.3
          95806.7 99835.3 91765.9 99918.3 99217 94793.2 95770.6 100057 99274.4 94179.2 92703.6 93888.2
          96260.7 98221.3 93011.4 97934.9 95235.7 97003 95365.2 97060.4 93864.6 100246 99935.1 99270.4
          98638.2 95539.8 98399.6 93208.2 95972.7 97495.2 95621.2 96515.7 94027.7 98006.6 96463.2 96033.3
          93871.8 97736.6 96820.2 96389.6 96681.4 97870.2 97938.3 97577 94268.6 98954.4 96432.8 94301.6
          96409.4 91202.9 93101 96395.9 96456 99179.8 91896.4 98284.7 95794.8 95974.8 93071.7 91654.9
          95507 91592 95995.6 96350.8 92056.4 95355.8 95852.9 96393.9 95507.2 98283.2 92125.7 91731.3
          95924.9 98744.4 94426.1 93198.5 95958.9 93551.5 96061 94938.5 95958.6 96926.5 96834.7 95627.8
          91209 96387.5 94607 93540.9 96901 93621.7 96840.6 90914.7 95325.2 96841.2 99754.1 99295.4
          96319.7 99970.2 93299.4 100144 96129.2 96449.2 93787.2 91782 95607.7 96480.5 93610.1 97774.6
          92701.8 95545.3 94572.4 93963.1 97403.6 95943.9 95090.1 92458.3 92711.8 100029 99586.9 95615.7
          99002.3 91253.5 99980.6 91964.2 98060.4 91579.8 95296.4 94903.1 95123.2 95730.9 94282.5 99594.7
          94367.2 92858.3 97111.3 95929.7 95029.7 99100.1 99348.7 99033.6 92591.2 93100.4 97566.1 92861.4
          100369 93462.3 94110.2 96818.2 91908.6 95369.6 98401.3 98374.5 96004.1 92821.4 93459.9 96157.8
          95446.4 95516.7 95120.6 97462.6 98507.8 95353.9 95280 92788.7 93141.3 93721.7 96444.8 94050.7
          94347.8 96471.4 98348.4 94909.1 94182.2 95190.2 95196.2 94360 92900.6 98159 91200.9 100010
          100333 90911.9 90930.2 100288 91227.8 99963.9 92865.2 98181.9 93939.6 97124.2 96074.4 94942.2
          95864.1 95140.3 94385.3 96681.1 97165.7 98589 92451 97374.4 98125.6 92897.5 93883.4 97102.8
          90732 100434 95901.6 95069.7 90978 100155 94614.3 96353.8 93680.5 97315.8 94950.4 96100.6
          96431.2 94602.6 93176.4 94306 96722.5 97871.1 91525.9 99556.9 94426.1 96546.3 93050.7 97960.8
          90715.7 100455 90659.6 100521 93150.9 97820.4 95183.9 95862.1 95275.6 90970.9 95676.5 100149
          93403.5 99067.9 93508.8 97461.5 95310 95583.9 92081.2 98971.5 96008.6 95026.7 98579.8 93552.7
          93712.6 97485.4 97317.6 92049.6 98193.6 91997.9 99035.8 93056.1 93479 97986.7 97543.8 90616.3
          100575 94838.6 96113.1 96051.5 94941.1 92678.6 98354 90945.8 100222 90908.2 100237 92758.7
          98222.3 97535.3 91985.4 99194.3 91878.2 92809 98968.7 92876.1 98084.1 98106.4 98968.5 92120.6
          90700.4 100560 90687.3 100533 92186.5 98842.3 95082.7 91563.9 95838.4 99473.2 99304.4 91818.5
          90994.6 100232 90994.6 100202 91863.5 99182.4 92627.3 98389.9 92655.1 98313.5 94429.9 94924.4
          96658.1 96139 95795 96369.4 95183.2 94607.7 91960.8 92224 99112.8 98819.6 93502.8 93651.6
          97196.9 91525.7 93772.5 90955.2 99533.4 97320.8 93645.3 91420.8 99642.2 100158 97470.1 97294.1
          90865.2 100278 94202.9 93441.9 93417.4 97651.3 97661.5 92485.2 93983.2 95161.5 97163.7 95861.2
          94379.5 95293 95705.7 95746.5 95327.9 92983.3 92513.6 91638.1 98502.3 99397.1 91612.1 99419.4
          92559.4 98404.7 94946.9 96546.5 96039.2 92557.6 92266.2 98486.3 98773.2 96639.9 94377.6 97124.1
          93886.8 93045.2 97994.5 93027.2 97966.7 93759.5 94021.3 97023.1 97292.9 93951.9 93656.7 91939.3
          91593.4 99134.6 99472 91597 91966.8 99422.8 99024.8 94330.9 94205.8 96613.9 96729.2 91344.6
          99704 90820 100327 93956 97018.9 90618.6 100549 90512.7 100700 94090.7 96865.9 96621.6
          94364 94985.6 96057.9 94460.3 96581.4 94433.8 96440.8 91669.1 99366.9 93504.7 92485.3 98574.6
          95708.5 95333.6
        </DataArray>
        <DataArray type="Float32" Name="rho_aq" NumberOfComponents="1" format="ascii">
          1000 1000 1000 1000 1000 1000 1000 1000 1000 1000 1000 1000
          1000 1000 1000 1000 1000 1000 1000 1000 1000 1000 1000 1000
          1000 1000 1000 1000 1000 1000 1000 1000 1000 1000 1000 1000
          1000 1000 1000 1000 1000 1000 1000 1000 1000 1000 1000 1000
          1000 1000 1000 1000 1000 1000 1000 1000 1000 1000 1000 1000
          1000 1000 1000 1000 1000 1000 1000 1000 1000 1000 1000 1000
          1000 1000 1000 1000 1000 1000 1000 1000 1000 1000 1000 1000
          1000 1000 1000 1000 1000 1000 1000 1000 1000 1000 1000 1000
          1000 1000 1000 1000 1000 1000 1000 1000 1000 1000 1000 1000
          1000 1000 1000 1000 1000 1000 1000 1000 1000 1000 1000 1000
          1000 1000 1000 1000 1000 1000 1000 1000 1000 1000 1000 1000
          1000 1000 1000 1000 1000 1000 1000 1000 1000 1000 1000 1000
          1000 1000 1000 1000 1000 1000 1000 1000 1000 1000 1000 1000
          1000 1000 1000 1000 1000 1000 1000 1000 1000 1000 1000 1000
          1000 1000 1000 1000 1000 1000 1000 1000 1000 1000 1000 1000
          1000 1000 1000 1000 1000 1000 1000 1000 1000 1000 1000 1000
          1000 1000 1000 1000 1000 1000 1000 1000 1000 1000 1000 1000
          1000 1000 1000 1000 1000 1000 1000 1000 1000 1000 1000 1000
          1000 1000 1000 1000 1000 1000 1000 1000 1000 1000 1000 1000
          1000 1000 1000 1000 1000 1000 1000 1000 1000 1000 1000 1000
          1000 1000 1000 1000 1000 1000 1000 1000 1000 1000 1000 1000
          1000 1000 1000 1000 1000 1000 1000 1000 1000 1000 1000 1000
          1000 1000 1000 1000 1000 1000 1000 1000 1000 1000 1000 1000
          1000 1000 1000 1000 1000 1000 1000 1000 1000 1000 1000 1000
          1000 1000 1000 1000 1000 1000 1000 1000 1000 1000 1000 1000
          1000 1000 1000 1000 1000 1000 1000 1000 1000 1000 1000 1000
          1000 1000 1000 1000 1000 1000 1000 1000 1000 1000 1000 1000
          1000 1000 1000 1000 1000 1000 1000 1000 1000 1000 1000 1000
          1000 1000 1000 1000 1000 1000 1000 1000 1000 1000 1000 1000
          1000 1000 1000 1000 1000 1000 1000 1000 1000 1000 1000 1000
          1000 1000 1000 1000 1000 1000 1000 1000 1000 1000 1000 1000
          1000 1000 1000 1000 1000 1000 1000 1000 1000 1000 1000 1000
          1000 1000 1000 1000 1000 1000 1000 1000 1000 1000 1000 1000
          1000 1000 1000 1000 1000 1000 1000 1000 1000 1000 1000 1000
          1000 1000 1000 1000 1000 1000 1000 1000 1000 1000 1000 1000
          1000 1000 1000 1000 1000 1000 1000 1000 1000 1000 1000 1000
          1000 1000 1000 1000 1000 1000 1000 1000 1000 1000 1000 1000
          1000 1000 1000 1000 1000 1000 1000 1000 1000 1000 1000 1000
          1000 1000 1000 1000 1000 1000 1000 1000 1000 1000 1000 1000
          1000 1000 1000 1000 1000 1000 1000 1000 1000 1000 1000 1000
          1000 1000 1000 1000 1000 1000 1000 1000 1000 1000 1000 1000
          1000 1000 1000 1000 1000 1000 1000 1000 1000 1000 1000 1000
          1000 1000 1000 1000 1000 1000 1000 1000 1000 1000 1000 1000
          1000 1000 1000 1000 1000 1000 1000 1000 1000 1000 1000 1000
          1000 1000 1000 1000 1000 1000 1000 1000 1000 1000 1000 1000
          1000 1000 1000 1000 1000 1000 1000 1000 1000 1000 1000 1000
          1000 1000 1000 1000 1000 1000 1000 1000 1000 1000 1000 1000
          1000 1000 1000 1000 1000 1000 1000 1000 1000 1000 1000 1000
          1000 1000 1000 1000 1000 1000 1000 1000 1000 1000 1000 1000
          1000 1000 1000 1000 1000 1000 1000 1000 1000 1000 1000 1000
          1000 1000 1000 1000 1000 1000 1000 1000 1000 1000 1000 1000
          1000 1000 1000 1000 1000 1000 1000 1000 1000 1000 1000 1000
          1000 1000 1000 1000 1000 1000 1000 1000 1000 1000 1000 1000
          1000 1000 1000 1000 1000 1000 1000 1000 1000 1000 1000 1000
          1000 1000 1000 1000 1000 1000 1000 1000 1000 1000 1000 1000
          1000 1000 1000 1000 1000 1000 1000 1000 1000 1000 1000 1000
          1000 1000 1000 1000 1000 1000 1000 1000 1000 1000 1000 1000
          1000 1000 1000 1000 1000 1000 1000 1000 1000 1000 1000 1000
          1000 1000 1000 1000 1000 1000 1000 1000 1000 1000 1000 1000
          1000 1000 1000 1000 1000 1000 1000 1000 1000 1000 1000 1000
          1000 1000 1000 1000 1000 1000 1000 1000 1000 1000 1000 1000
          1000 1000 1000 1000 1000 1000 1000 1000 1000 1000 1000 1000
          1000 1000 1000 1000 1000 1000 1000 1000 1000 1000 1000 1000
          1000 1000 1000 1000 1000 1000 1000 1000 1000 1000 1000 1000
          1000 1000 1000 1000 1000 1000 1000 1000 1000 1000 1000 1000
          1000 1000 1000 1000 1000 1000 1000 1000 1000 1000 1000 1000
          1000 1000 1000 1000 1000 1000 1000 1000 1000 1000 1000 1000
          1000 1000 1000 1000 1000 1000 1000 1000 1000 1000 1000 1000
          1000 1000 1000 1000 1000 1000 1000 1000 1000 1000 1000 1000
          1000 1000 1000 1000 1000 1000 1000 1000 1000 1000 1000 1000
          1000 1000 1000 1000 1000 1000 1000 1000 1000 1000 1000 1000
          1000 1000 1000 1000 1000 1000 1000 1000 1000 1000 1000 1000
          1000 1000 1000 1000 1000 1000 1000 1000 1000 1000 1000 1000
          1000 1000 1000 1000 1000 1000 1000 1000 1000 1000 1000 1000
          1000 1000 1000 1000 1000 1000 1000 1000 1000 1000 1000 1000
          1000 1000 1000 1000 1000 1000 1000 1000 1000 1000 1000 1000
          1000 1000 1000 1000 1000 1000 1000 1000 1000 1000 1000 1000
          1000 1000 1000 1000 1000 1000 1000 1000 1000 1000 1000 1000
          1000 1000 1000 1000 1000 1000 1000 1000 1000 1000 1000 1000
          1000 1000 1000 1000 1000 1000 1000 1000 1000 1000 1000 1000
          1000 1000 1000 1000 1000 1000 1000 1000 1000 1000 1000 1000
          1000 1000 1000 1000 1000 1000 1000 1000 1000 1000 1000 1000
          1000 1000 1000 1000 1000 1000 1000 1000 1000 1000 1000 1000
          1000 1000 1000 1000 1000 1000 1000 1000 1000 1000 1000 1000
          1000 1000 1000 1000 1000 1000 1000 1000 1000 1000 1000 1000
          1000 1000 1000 1000 1000 1000 1000 1000 1000 1000 1000 1000
          1000 1000 1000 1000 1000 1000 1000 1000 1000 1000 1000 1000
          1000 1000 1000 1000 1000 1000 1000 1000 1000 1000 1000 1000
          1000 1000 1000 1000 1000 1000 1000 1000 1000 1000 1000 1000
          1000 1000 1000 1000 1000 1000 1000 1000 1000 1000 1000 1000
          1000 1000 1000 1000 1000 1000 1000 1000 1000 1000 1000 1000
          1000 1000 1000 1000 1000 1000 1000 1000 1000 1000 1000 1000
          1000 1000 1000 1000 1000 1000 1000 1000 1000 1000 1000 1000
          1000 1000 1000 1000 1000 1000 1000 1000 1000 1000 1000 1000
          1000 1000 1000 1000 1000 1000 1000 1000 1000 1000 1000 1000
          1000 1000 1000 1000 1000 1000 1000 1000 1000 1000 1000 1000
          1000 1000 1000 1000 1000 1000 1000 1000 1000 1000 1000 1000
          1000 1000 1000 1000 1000 1000 1000 1000 1000 1000 1000 1000
          1000 1000 1000 1000 1000 1000 1000 1000 1000 1000 1000 1000
          1000 1000 1000 1000 1000 1000 1000 1000 1000 1000 1000 1000
          1000 1000 1000 1000 1000 1000 1000 1000 1000 1000 1000 1000
          1000 1000 1000 1000 1000 1000 1000 1000 1000 1000 1000 1000
          1000 1000 1000 1000 1000 1000 1000 1000 1000 1000 1000 1000
          1000 1000 1000 1000 1000 1000 1000 1000 1000 1000 1000 1000
          1000 1000 1000 1000 1000 1000 1000 1000 1000 1000 1000 1000
          1000 1000 1000 1000 1000 1000 1000 1000 1000 1000 1000 1000
          1000 1000 1000 1000 1000 1000 1000 1000 1000 1000 1000 1000