<?xml version="1.0"?>
<VTKFile type="UnstructuredGrid" version="0.1" byte_order="LittleEndian">
  <UnstructuredGrid>
    <Piece NumberOfCells="10" NumberOfPoints="18">
      <PointData Scalars="S_liq" Vectors="velocity_liq (m/s)">
        <DataArray type="Float32" Name="S_liq" NumberOfComponents="1" format="ascii">
          0.304204 0.304204 0.291935 0.291935 0.304204 0.291935 0.266189 0.266189 0.266189 0.233627 0.233627 0.233627
          0.0131381 0.0131381 0.0131381 0.00086917 0.00086917 0.00086917
        </DataArray>
        <DataArray type="Float32" Name="p_liq" NumberOfComponents="1" format="ascii">
          91903.2 91903.2 91732.3 91732.3 91903.2 91732.3 91084.3 91084.3 91084.3 88112.1 88112.1 88112.1
          65738.4 65738.4 65738.4 64491.4 64491.4 64491.4
        </DataArray>
        <DataArray type="Float32" Name="rho_liq" NumberOfComponents="1" format="ascii">
          1012.57 1012.57 1012.84 1012.84 1012.57 1012.84 1016.33 1016.33 1016.33 1030.06 1030.06 1030.06
          1437.57 1437.57 1437.57 1614.23 1614.23 1614.23
        </DataArray>
        <DataArray type="Float32" Name="mob_liq" NumberOfComponents="1" format="ascii">
          0.783606 0.783606 0.39586 0.39586 0.783606 0.39586 0.0313136 0.0313136 0.0313136 0 0 0
          0 0 0 0 0 0
        </DataArray>
        <DataArray type="Float32" Name="S_gas" NumberOfComponents="1" format="ascii">
          0.695796 0.695796 0.708065 0.708065 0.695796 0.708065 0.733811 0.733811 0.733811 0.766373 0.766373 0.766373
          0.986862 0.986862 0.986862 0.999131 0.999131 0.999131
        </DataArray>
        <DataArray type="Float32" Name="p_gas" NumberOfComponents="1" format="ascii">
          100005 100005 100005 100005 100005 100005 100005 100005 100005 100005 100005 100005
          100003 100003 100003 100001 100001 100001
        </DataArray>
        <DataArray type="Float32" Name="rho_gas" NumberOfComponents="1" format="ascii">
          1.19647 1.19647 1.19646 1.19646 1.19647 1.19646 1.19642 1.19642 1.19642 1.19645 1.19645 1.19645
          1.19827 1.19827 1.19827 1.19935 1.19935 1.19935
        </DataArray>
        <DataArray type="Float32" Name="mob_gas" NumberOfComponents="1" format="ascii">
          48077.2 48077.2 50493.2 50493.2 48077.2 50493.2 54666.5 54666.5 54666.5 55622.6 55622.6 55622.6
          55621.8 55621.8 55621.8 55620.8 55620.8 55620.8
        </DataArray>
        <DataArray type="Float32" Name="pc" NumberOfComponents="1" format="ascii">
          8101.91 8101.91 8272.67 8272.67 8101.91 8272.67 8920.64 8920.64 8920.64 11892.8 11892.8 11892.8
          34264.5 34264.5 34264.5 35509.4 35509.4 35509.4
        </DataArray>
        <DataArray type="Float32" Name="porosity" NumberOfComponents="1" format="ascii">
          0.4 0.4 0.4 0.4 0.4 0.4 0.4 0.4 0.4 0.4 0.4 0.4
          0.397471 0.397471 0.397471 0.387821 0.387821 0.387821
        </DataArray>
        <DataArray type="Float32" Name="x^H2O_liq" NumberOfComponents="1" format="ascii">
          0.993705 0.993705 0.993577 0.993577 0.993705 0.993577 0.991963 0.991963 0.991963 0.985584 0.985584 0.985584
          0.759669 0.759669 0.759669 0.621641 0.621641 0.621641
        </DataArray>
        <DataArray type="Float32" Name="x^Air_liq" NumberOfComponents="1" format="ascii">
          1.59296e-05 1.59296e-05 1.59284e-05 1.59284e-05 1.59296e-05 1.59284e-05 1.59251e-05 1.59251e-05 1.59251e-05 1.59255e-05 1.59255e-05 1.59255e-05
          1.59902e-05 1.59902e-05 1.59902e-05 1.60285e-05 1.60285e-05 1.60285e-05
        </DataArray>
        <DataArray type="Float32" Name="x^NaCl_liq" NumberOfComponents="1" format="ascii">
          0.00627946 0.00627946 0.00640667 0.00640667 0.00627946 0.00640667 0.00802068 0.00802068 0.00802068 0.0143998 0.0143998 0.0143998
          0.240315 0.240315 0.240315 0.378343 0.378343 0.378343
        </DataArray>
        <DataArray type="Float32" Name="rhoMolar_liq" NumberOfComponents="1" format="ascii">
          55424.8 55424.8 55424.2 55424.2 55424.8 55424.2 55417.1 55417.1 55417.1 55387 55387 55387
          51840.5 51840.5 51840.5 48459.7 48459.7 48459.7
        </DataArray>
        <DataArray type="Float32" Name="x^H2O_gas" NumberOfComponents="1" format="ascii">
          0.0180644 0.0180644 0.0180663 0.0180663 0.0180644 0.0180663 0.01805 0.01805 0.01805 0.0179389 0.0179389 0.0179389
          0.0138317 0.0138317 0.0138317 0.0113234 0.0113234 0.0113234
        </DataArray>
        <DataArray type="Float32" Name="x^Air_gas" NumberOfComponents="1" format="ascii">
          0.981936 0.981936 0.981934 0.981934 0.981936 0.981934 0.98195 0.98195 0.98195 0.982061 0.982061 0.982061
          0.986168 0.986168 0.986168 0.988677 0.988677 0.988677
        </DataArray>
        <DataArray type="Float32" Name="x^NaCl_gas" NumberOfComponents="1" format="ascii">
          -0 -0 -0 -0 -0 -0 -0 -0 -0 -0 -0 -0
          -0 -0 -0 -0 -0 -0
        </DataArray>
        <DataArray type="Float32" Name="rhoMolar_gas" NumberOfComponents="1" format="ascii">
          41.599 41.599 41.5985 41.5985 41.599 41.5985 41.5968 41.5968 41.5968 41.5961 41.5961 41.5961
          41.5943 41.5943 41.5943 41.5923 41.5923 41.5923
        </DataArray>
        <DataArray type="Float32" Name="phase presence" NumberOfComponents="1" format="ascii">
          3 3 3 3 3 3 3 3 3 3 3 3
          3 3 3 3 3 3
        </DataArray>
        <DataArray type="Float32" Name="precipitateVolumeFraction^NaCl" NumberOfComponents="1" format="ascii">
          0 0 0 0 0 0 0 0 0 0 0 0
          0.00252853 0.00252853 0.00252853 0.0121789 0.0121789 0.0121789
        </DataArray>
        <DataArray type="Float32" Name="T" NumberOfComponents="1" format="ascii">
          289.143 289.143 289.147 289.147 289.143 289.147 289.158 289.158 289.158 289.163 289.163 289.163
          289.168 289.168 289.168 289.174 289.174 289.174
        </DataArray>
        <DataArray type="Float32" Name="velocity_liq (m/s)" NumberOfComponents="3" format="ascii">
          6.48829e-22 1.00655e-09 0 8.68906e-22 1.00655e-09 0 1.71087e-22 2.01656e-09 0 1.40542e-21 2.01656e-09 0
          1.08898e-21 1.00655e-09 0 2.63976e-21 2.01656e-09 0 -1.40498e-21 3.85017e-09 0 1.5745e-21 3.85017e-09 0
          4.55397e-21 3.85017e-09 0 0 2.33688e-09 0 0 2.33688e-09 0 0 2.33688e-09 0
          0 0 0 0 0 0 0 0 0 0 0 0
          0 0 0 0 0 0
        </DataArray>
        <DataArray type="Float32" Name="velocity_gas (m/s)" NumberOfComponents="3" format="ascii">
          -2.23877e-18 -9.88524e-10 0 1.11938e-18 -9.88524e-10 0 -3.63713e-18 1.82251e-10 0 -2.38801e-19 1.82251e-10 0
          4.47754e-18 -9.88524e-10 0 3.15952e-18 1.82251e-10 0 4.77301e-18 4.67041e-08 0 6.26458e-18 4.67041e-08 0
          7.75615e-18 4.67041e-08 0 7.95457e-18 3.21515e-06 0 5.87572e-18 3.21515e-06 0 3.79686e-18 3.21515e-06 0
          1.41509e-18 7.16567e-06 0 4.12917e-18 7.16567e-06 0 6.84325e-18 7.16567e-06 0 -2.69865e-18 7.99309e-06 0
          -3.70146e-19 7.99309e-06 0 1.95836e-18 7.99309e-06 0
        </DataArray>
        <DataArray type="Float32" Name="Permeability" NumberOfComponents="1" format="ascii">
          1e-13 1e-13 1e-13 1e-13 1e-13 1e-13 1e-13 1e-13 1e-13 9.93173e-14 9.93173e-14 9.93173e-14
          9.47724e-14 9.47724e-14 9.47724e-14 8.99021e-14 8.99021e-14 8.99021e-14
        </DataArray>
      </PointData>
      <CellData Scalars="process rank">
        <DataArray type="Float32" Name="process rank" NumberOfComponents="1" format="ascii">
          0 0 0 0 0 0 0 0 0 0
        </DataArray>
      </CellData>
      <Points>
        <DataArray type="Float32" Name="Coordinates" NumberOfComponents="3" format="ascii">
          0 0 0 0.01 0 0 0 0.0075 0 0.01 0.0075 0
          0.02 0 0 0.02 0.0075 0 0 0.015 0 0.01 0.015 0
          0.02 0.015 0 0 0.016978 0 0.01 0.016978 0 0.02 0.016978 0
          0 0.0186264 0 0.01 0.0186264 0 0.02 0.0186264 0 0 0.02 0
          0.01 0.02 0 0.02 0.02 0
        </DataArray>
      </Points>
      <Cells>
        <DataArray type="Int32" Name="connectivity" NumberOfComponents="1" format="ascii">
          0 1 3 2 1 4 5 3 2 3 7 6
          3 5 8 7 6 7 10 9 7 8 11 10
          9 10 13 12 10 11 14 13 12 13 16 15
          13 14 17 16
        </DataArray>
        <DataArray type="Int32" Name="offsets" NumberOfComponents="1" format="ascii">
          4 8 12 16 20 24 28 32 36 40
        </DataArray>
        <DataArray type="UInt8" Name="types" NumberOfComponents="1" format="ascii">
          9 9 9 9 9 9 9 9 9 9
        </DataArray>
      </Cells>
    </Piece>
  </UnstructuredGrid>
</VTKFile>
