<?xml version="1.0"?>
<VTKFile type="UnstructuredGrid" version="0.1" byte_order="LittleEndian">
  <UnstructuredGrid>
    <Piece NumberOfCells="4096" NumberOfPoints="4225">
      <CellData Scalars="S_liq">
        <DataArray type="Float32" Name="S_liq" NumberOfComponents="1" format="ascii">
          1 1 1 1 1 1 1 1 1 1 1 1
          1 1 1 1 1 1 1 1 1 1 0.995396 0.900522
          0.836449 0.833579 0.833424 0.833404 0.8334 0.833404 0.833333 0.83145 0.804213 0.805025 0.805618 0.805776
          0.805833 0.805893 0.806254 0.811064 0.889225 0.998571 1 1 1 1 1 1
          1 1 1 1 1 1 1 1 1 1 1 1
          1 1 1 1 1 1 1 1 1 1 1 1
          1 1 1 1 1 1 1 1 1 1 1 1
          1 1 1 0.936669 0.862299 0.857604 0.856908 0.856602 0.856498 0.856594 0.856797 0.854602
          0.82115 0.821926 0.823095 0.823669 0.824088 0.824559 0.8256 0.833311 0.921082 1 1 1
          1 1 1 1 1 1 1 1 1 1 1 1
          1 1 1 1 1 1 1 1 1 1 1 1
          1 1 1 1 1 1 1 1 1 1 1 1
          1 1 1 1 1 1 1 1 0.919568 0.909826 0.907045 0.905665
          0.905189 0.905565 0.906821 0.905723 0.859465 0.860718 0.863366 0.865154 0.866764 0.868685 0.871888 0.88541
          0.99567 1 1 1 1 1 1 1 1 1 1 1
          1 1 1 1 1 1 1 1 1 1 1 1
          1 1 1 1 1 1 1 1 1 1 1 1
          1 1 1 1 1 1 1 1 1 1 1 1
          1 0.995779 0.993019 0.991541 0.991007 0.991378 0.992693 0.992901 0.945981 0.951325 0.956366 0.959764
          0.962884 0.966554 0.972048 0.987155 1 1 1 1 1 1 1 1
          1 1 1 1 1 1 1 1 1 1 1 1
          1 1 1 1 1 1 1 1 1 1 1 1
          1 1 1 1 1 1 1 1 1 1 1 1
          1 1 1 1 1 1 1 1 1 1 1 1
          1 1 1 1 1 1 1 1 1 1 1 1
          1 1 1 1 1 1 1 1 1 1 1 1
          1 1 1 1 1 1 1 1 1 1 1 1
          1 1 1 1 1 1 1 1 1 1 1 1
          1 1 1 1 1 1 1 1 1 1 1 1
          1 1 1 1 1 1 1 1 1 1 1 1
          1 1 1 1 1 1 1 1 1 1 1 1
          1 1 1 1 1 1 1 1 1 1 1 1
          1 1 1 1 1 1 1 1 1 1 1 1
          1 1 1 1 1 1 1 1 1 1 1 1
          1 1 1 1 1 1 1 1 1 1 1 1
          1 1 1 1 1 1 1 1 1 1 1 1
          1 1 1 1 1 1 1 1 1 1 1 1
          1 1 1 1 1 1 1 1 1 1 1 1
          1 1 1 1 1 1 1 1 1 1 1 1
          1 1 1 1 1 1 1 1 1 1 1 1
          1 1 1 1 1 1 1 1 1 1 1 1
          1 1 1 1 1 1 1 1 1 1 1 1
          1 1 1 1 1 1 1 1 1 1 1 1
          1 1 1 1 1 1 1 1 1 1 1 1
          1 1 1 1 1 1 1 1 1 1 1 1
          1 1 1 1 1 1 1 1 1 1 1 1
          1 1 1 1 1 1 1 1 1 1 1 1
          1 1 1 1 1 1 1 1 1 1 1 1
          1 1 1 1 1 1 1 1 1 1 1 1
          1 1 1 1 1 1 1 1 1 1 1 1
          1 1 1 1 1 1 1 1 1 1 1 1
          1 1 1 1 1 1 1 1 1 1 1 1
          1 1 1 1 1 1 1 1 1 1 1 1
          1 1 1 1 1 1 1 1 1 1 1 1
          1 1 1 1 1 1 1 1 1 1 1 1
          1 1 1 1 1 1 1 1 1 1 1 1
          1 1 1 1 1 1 1 1 1 1 1 1
          1 1 1 1 1 1 1 1 1 1 1 1
          1 1 1 1 1 1 1 1 1 1 1 1
          1 1 1 1 1 1 1 1 1 1 1 1
          1 1 1 1 1 1 1 1 1 1 1 1
          1 1 1 1 1 1 1 1 1 1 1 1
          1 1 1 1 1 1 1 1 1 1 1 1
          1 1 1 1 1 1 1 1 1 1 1 1
          1 1 1 1 1 1 1 1 1 1 1 1
          1 1 1 1 1 1 1 1 1 1 1 1
          1 1 1 1 1 1 1 1 1 1 1 1
          1 1 1 1 1 1 1 1 1 1 1 1
          1 1 1 1 1 1 1 1 1 1 1 1
          1 1 1 1 1 1 1 1 1 1 1 1
          1 1 1 1 1 1 1 1 1 1 1 1
          1 1 1 1 1 1 1 1 1 1 1 1
          1 1 1 1 1 1 1 1 1 1 1 1
          1 1 1 1 1 1 1 1 1 1 1 1
          1 1 1 1 1 1 1 1 1 1 1 1
          1 1 1 1 1 1 1 1 1 1 1 1
          1 1 1 1 1 1 1 1 1 1 1 1
          1 1 1 1 1 1 1 1 1 1 1 1
          1 1 1 1 1 1 1 1 1 1 1 1
          1 1 1 1 1 1 1 1 1 1 1 1
          1 1 1 1 1 1 1 1 1 1 1 1
          1 1 1 1 1 1 1 1 1 1 1 1
          1 1 1 1 1 1 1 1 1 1 1 1
          1 1 1 1 1 1 1 1 1 1 1 1
          1 1 1 1 1 1 1 1 1 1 1 1
          1 1 1 1 1 1 1 1 1 1 1 1
          1 1 1 1 1 1 1 1 1 1 1 1
          1 1 1 1 1 1 1 1 1 1 1 1
          1 1 1 1 1 1 1 1 1 1 1 1
          1 1 1 1 1 1 1 1 1 1 1 1
          1 1 1 1 1 1 1 1 1 1 1 1
          1 1 1 1 1 1 1 1 1 1 1 1
          1 1 1 1 1 1 1 1 1 1 1 1
          1 1 1 1 1 1 1 1 1 1 1 1
          1 1 1 1 1 1 1 1 1 1 1 1
          1 1 1 1 1 1 1 1 1 1 1 1
          1 1 1 1 1 1 1 1 1 1 1 1
          1 1 1 1 1 1 1 1 1 1 1 1
          1 1 1 1 1 1 1 1 1 1 1 1
          1 1 1 1 1 1 1 1 1 1 1 1
          1 1 1 1 1 1 1 1 1 1 1 1
          1 1 1 1 1 1 1 1 1 1 1 1
          1 1 1 1 1 1 1 1 1 1 1 1
          1 1 1 1 1 1 1 1 1 1 1 1
          1 1 1 1 1 1 1 1 1 1 1 1
          1 1 1 1 1 1 1 1 1 1 1 1
          1 1 1 1 1 1 1 1 1 1 1 1
          1 1 1 1 1 1 1 1 1 1 1 1
          1 1 1 1 1 1 1 1 1 1 1 1
          1 1 1 1 1 1 1 1 1 1 1 1
          1 1 1 1 1 1 1 1 1 1 1 1
          1 1 1 1 1 1 1 1 1 1 1 1
          1 1 1 1 1 1 1 1 1 1 1 1
          1 1 1 1 1 1 1 1 1 1 1 1
          1 1 1 1 1 1 1 1 1 1 1 1
          1 1 1 1 1 1 1 1 1 1 1 1
          1 1 1 1 1 1 1 1 1 1 1 1
          1 1 1 1 1 1 1 1 1 1 1 1
          1 1 1 1 1 1 1 1 1 1 1 1
          1 1 1 1 1 1 1 1 1 1 1 1
          1 1 1 1 1 1 1 1 1 1 1 1
          1 1 1 1 1 1 1 1 1 1 1 1
          1 1 1 1 1 1 1 1 1 1 1 1
          1 1 1 1 1 1 1 1 1 1 1 1
          1 1 1 1 1 1 1 1 1 1 1 1
          1 1 1 1 1 1 1 1 1 1 1 1
          1 1 1 1 1 1 1 1 1 1 1 1
          1 1 1 1 1 1 1 1 1 1 1 1
          1 1 1 1 1 1 1 1 1 1 1 1
          1 1 1 1 1 1 1 1 1 1 1 1
          1 1 1 1 1 1 1 1 1 1 1 1
          1 1 1 1 1 1 1 1 1 1 1 1
          1 1 1 1 1 1 1 1 1 1 1 1
          1 1 1 1 1 1 1 1 1 1 1 1
          1 1 1 1 1 1 1 1 1 1 1 1
          1 1 1 1 1 1 1 1 1 1 1 1
          1 1 1 1 1 1 1 1 1 1 1 1
          1 1 1 1 1 1 1 1 1 1 1 1
          1 1 1 1 1 1 1 1 1 1 1 1
          1 1 1 1 1 1 1 1 1 1 1 1
          1 1 1 1 1 1 1 1 1 1 1 1
          1 1 1 1 1 1 1 1 1 1 1 1
          1 1 1 1 1 1 1 1 1 1 1 1
          1 1 1 1 1 1 1 1 1 1 1 1
          1 1 1 1 1 1 1 1 1 1 1 1
          1 1 1 1 1 1 1 1 1 1 1 1
          1 1 1 1 1 1 1 1 1 1 1 1
          1 1 1 1 1 1 1 1 1 1 1 1
          1 1 1 1 1 1 1 1 1 1 1 1
          1 1 1 1 1 1 1 1 1 1 1 1
          1 1 1 1 1 1 1 1 1 1 1 1
          1 1 1 1 1 1 1 1 1 1 1 1
          1 1 1 1 1 1 1 1 1 1 1 1
          1 1 1 1 1 1 1 1 1 1 1 1
          1 1 1 1 1 1 1 1 1 1 1 1
          1 1 1 1 1 1 1 1 1 1 1 1
          1 1 1 1 1 1 1 1 1 1 1 1
          1 1 1 1 1 1 1 1 1 1 1 1
          1 1 1 1 1 1 1 1 1 1 1 1
          1 1 1 1 1 1 1 1 1 1 1 1
          1 1 1 1 1 1 1 1 1 1 1 1
          1 1 1 1 1 1 1 1 1 1 1 1
          1 1 1 1 1 1 1 1 1 1 1 1
          1 1 1 1 1 1 1 1 1 1 1 1
          1 1 1 1 1 1 1 1 1 1 1 1
          1 1 1 1 1 1 1 1 1 1 1 1
          1 1 1 1 1 1 1 1 1 1 1 1
          1 1 1 1 1 1 1 1 1 1 1 1
          1 1 1 1 1 1 1 1 1 1 1 1
          1 1 1 1 1 1 1 1 1 1 1 1
          1 1 1 1 1 1 1 1 1 1 1 1
          1 1 1 1 1 1 1 1 1 1 1 1
          1 1 1 1 1 1 1 1 1 1 1 1
          1 1 1 1 1 1 1 1 1 1 1 1
          1 1 1 1 1 1 1 1 1 1 1 1
          1 1 1 1 1 1 1 1 1 1 1 1
          1 1 1 1 1 1 1 1 1 1 1 1
          1 1 1 1 1 1 1 1 1 1 1 1
          1 1 1 1 1 1 1 1 1 1 1 1
          1 1 1 1 1 1 1 1 1 1 1 1
          1 1 1 1 1 1 1 1 1 1 1 1
          1 1 1 1 1 1 1 1 1 1 1 1
          1 1 1 1 1 1 1 1 1 1 1 1
          1 1 1 1 1 1 1 1 1 1 1 1
          1 1 1 1 1 1 1 1 1 1 1 1
          1 1 1 1 1 1 1 1 1 1 1 1
          1 1 1 1 1 1 1 1 1 1 1 1
          1 1 1 1 1 1 1 1 1 1 1 1
          1 1 1 1 1 1 1 1 1 1 1 1
          1 1 1 1 1 1 1 1 1 1 1 1
          1 1 1 1 1 1 1 1 1 1 1 1
          1 1 1 1 1 1 1 1 1 1 1 1
          1 1 1 1 1 1 1 1 1 1 1 1
          1 1 1 1 1 1 1 1 1 1 1 1
          1 1 1 1 1 1 1 1 1 1 1 1
          1 1 1 1 1 1 1 1 1 1 1 1
          1 1 1 1 1 1 1 1 1 1 1 1
          1 1 1 1 1 1 1 1 1 1 1 1
          1 1 1 1 1 1 1 1 1 1 1 1
          1 1 1 1 1 1 1 1 1 1 1 1
          1 1 1 1 1 1 1 1 1 1 1 1
          1 1 1 1 1 1 1 1 1 1 1 1
          1 1 1 1 1 1 1 1 1 1 1 1
          1 1 1 1 1 1 1 1 1 1 1 1
          1 1 1 1 1 1 1 1 1 1 1 1
          1 1 1 1 1 1 1 1 1 1 1 1
          1 1 1 1 1 1 1 1 1 1 1 1
          1 1 1 1 1 1 1 1 1 1 1 1
          1 1 1 1 1 1 1 1 1 1 1 1
          1 1 1 1 1 1 1 1 1 1 1 1
          1 1 1 1 1 1 1 1 1 1 1 1
          1 1 1 1 1 1 1 1 1 1 1 1
          1 1 1 1 1 1 1 1 1 1 1 1
          1 1 1 1 1 1 1 1 1 1 1 1
          1 1 1 1 1 1 1 1 1 1 1 1
          1 1 1 1 1 1 1 1 1 1 1 1
          1 1 1 1 1 1 1 1 1 1 1 1
          1 1 1 1 1 1 1 1 1 1 1 1
          1 1 1 1 1 1 1 1 1 1 1 1
          1 1 1 1 1 1 1 1 1 1 1 1
          1 1 1 1 1 1 1 1 1 1 1 1
          1 1 1 1 1 1 1 1 1 1 1 1
          1 1 1 1 1 1 1 1 1 1 1 1
          1 1 1 1 1 1 1 1 1 1 1 1
          1 1 1 1 1 1 1 1 1 1 1 1
          1 1 1 1 1 1 1 1 1 1 1 1
          1 1 1 1 1 1 1 1 1 1 1 1
          1 1 1 1 1 1 1 1 1 1 1 1
          1 1 1 1 1 1 1 1 1 1 1 1
          1 1 1 1 1 1 1 1 1 1 1 1
          1 1 1 1 1 1 1 1 1 1 1 1
          1 1 1 1 1 1 1 1 1 1 1 1
          1 1 1 1 1 1 1 1 1 1 1 1
          1 1 1 1 1 1 1 1 1 1 1 1
          1 1 1 1 1 1 1 1 1 1 1 1
          1 1 1 1 1 1 1 1 1 1 1 1
          1 1 1 1 1 1 1 1 1 1 1 1
          1 1 1 1 1 1 1 1 1 1 1 1
          1 1 1 1 1 1 1 1 1 1 1 1
          1 1 1 1 1 1 1 1 1 1 1 1
          1 1 1 1 1 1 1 1 1 1 1 1
          1 1 1 1 1 1 1 1 1 1 1 1
          1 1 1 1 1 1 1 1 1 1 1 1
          1 1 1 1 1 1 1 1 1 1 1 1
          1 1 1 1 1 1 1 1 1 1 1 1
          1 1 1 1 1 1 1 1 1 1 1 1
          1 1 1 1 1 1 1 1 1 1 1 1
          1 1 1 1 1 1 1 1 1 1 1 1
          1 1 1 1 1 1 1 1 1 1 1 1
          1 1 1 1 1 1 1 1 1 1 1 1
          1 1 1 1 1 1 1 1 1 1 1 1
          1 1 1 1 1 1 1 1 1 1 1 1
          1 1 1 1 1 1 1 1 1 1 1 1
          1 1 1 1 1 1 1 1 1 1 1 1
          1 1 1 1 1 1 1 1 1 1 1 1
          1 1 1 1 1 1 1 1 1 1 1 1
          1 1 1 1 1 1 1 1 1 1 1 1
          1 1 1 1 1 1 1 1 1 1 1 1
          1 1 1 1 1 1 1 1 1 1 1 1
          1 1 1 1 1 1 1 1 1 1 1 1
          1 1 1 1 1 1 1 1 1 1 1 1
          1 1 1 1 1 1 1 1 1 1 1 1
          1 1 1 1 1 1 1 1 1 1 1 1
          1 1 1 1 1 1 1 1 1 1 1 1
          1 1 1 1 1 1 1 1 1 1 1 1
          1 1 1 1 1 1 1 1 1 1 1 1
          1 1 1 1 1 1 1 1 1 1 1 1
          1 1 1 1 1 1 1 1 1 1 1 1
          1 1 1 1 1 1 1 1 1 1 1 1
          1 1 1 1 1 1 1 1 1 1 1 1
          1 1 1 1 1 1 1 1 1 1 1 1
          1 1 1 1 1 1 1 1 1 1 1 1
          1 1 1 1 1 1 1 1 1 1 1 1
          1 1 1 1 1 1 1 1 1 1 1 1
          1 1 1 1 1 1 1 1 1 1 1 1
          1 1 1 1 1 1 1 1 1 1 1 1
          1 1 1 1 1 1 1 1 1 1 1 1
          1 1 1 1 1 1 1 1 1 1 1 1
          1 1 1 1 1 1 1 1 1 1 1 1
          1 1 1 1 1 1 1 1 1 1 1 1
          1 1 1 1 1 1 1 1 1 1 1 1
          1 1 1 1 1 1 1 1 1 1 1 1
          1 1 1 1 1 1 1 1 1 1 1 1
          1 1 1 1 1 1 1 1 1 1 1 1
          1 1 1 1 1 1 1 1 1 1 1 1
          1 1 1 1 1 1 1 1 1 1 1 1
          1 1 1 1 1 1 1 1 1 1 1 1
          1 1 1 1 1 1 1 1 1 1 1 1
          1 1 1 1 1 1 1 1 1 1 1 1
          1 1 1 1 1 1 1 1 1 1 1 1
          1 1 1 1 1 1 1 1 1 1 1 1
          1 1 1 1 1 1 1 1 1 1 1 1
          1 1 1 1 1 1 1 1 1 1 1 1
          1 1 1 1 1 1 1 1 1 1 1 1
          1 1 1 1 1 1 1 1 1 1 1 1
          1 1 1 1 1 1 1 1 1 1 1 1
          1 1 1 1 1 1 1 1 1 1 1 1
          1 1 1 1 1 1 1 1 1 1 1 1
          1 1 1 1 1 1 1 1 1 1 1 1
          1 1 1 1 1 1 1 1 1 1 1 1
          1 1 1 1 1 1 1 1 1 1 1 1
          1 1 1 1 1 1 1 1 1 1 1 1
          1 1 1 1 1 1 1 1 1 1 1 1
          1 1 1 1 1 1 1 1 1 1 1 1
          1 1 1 1 1 1 1 1 1 1 1 1
          1 1 1 1 1 1 1 1 1 1 1 1
          1 1 1 1 1 1 1 1 1 1 1 1
          1 1 1 1 1 1 1 1 1 1 1 1
          1 1 1 1 1 1 1 1 1 1 1 1
          1 1 1 1 1 1 1 1 1 1 1 1
          1 1 1 1 1 1 1 1 1 1 1 1
          1 1 1 1 1 1 1 1 1 1 1 1
          1 1 1 1 1 1 1 1 1 1 1 1
          1 1 1 1 1 1 1 1 1 1 1 1
          1 1 1 1 1 1 1 1 1 1 1 1
          1 1 1 1 1 1 1 1 1 1 1 1
          1 1 1 1 1 1 1 1 1 1 1 1
          1 1 1 1 1 1 1 1 1 1 1 1
          1 1 1 1 1 1 1 1 1 1 1 1
          1 1 1 1 1 1 1 1 1 1 1 1
          1 1 1 1 1 1 1 1 1 1 1 1
          1 1 1 1 1 1 1 1 1 1 1 1
          1 1 1 1 1 1 1 1 1 1 1 1
          1 1 1 1 1 1 1 1 1 1 1 1
          1 1 1 1 1 1 1 1 1 1 1 1
          1 1 1 1 1 1 1 1 1 1 1 1
          1 1 1 1 1 1 1 1 1 1 1 1
          1 1 1 1 1 1 1 1 1 1 1 1
          1 1 1 1 1 1 1 1 1 1 1 1
          1 1 1 1 1 1 1 1 1 1 1 1
          1 1 1 1 1 1 1 1 1 1 1 1
          1 1 1 1 1 1 1 1 1 1 1 1
          1 1 1 1 1 1 1 1 1 1 1 1
          1 1 1 1 1 1 1 1 1 1 1 1
          1 1 1 1 1 1 1 1 1 1 1 1
          1 1 1 1 1 1 1 1 1 1 1 1
          1 1 1 1 1 1 1 1 1 1 1 1
          1 1 1 1 1 1 1 1 1 1 1 1
          1 1 1 1 1 1 1 1 1 1 1 1
          1 1 1 1 1 1 1 1 1 1 1 1
          1 1 1 1 1 1 1 1 1 1 1 1
          1 1 1 1
        </DataArray>
        <DataArray type="Float32" Name="p_liq" NumberOfComponents="1" format="ascii">
          9.90737e+06 9.90825e+06 9.90914e+06 9.91005e+06 9.91096e+06 9.91188e+06 9.91282e+06 9.91376e+06 9.91473e+06 9.91571e+06 9.91671e+06 9.91774e+06
          9.9188e+06 9.91989e+06 9.92101e+06 9.92218e+06 9.92341e+06 9.9247e+06 9.92606e+06 9.92751e+06 9.92908e+06 9.93077e+06 9.93265e+06 9.93537e+06
          9.93805e+06 9.94027e+06 9.94195e+06 9.94311e+06 9.94377e+06 9.94393e+06 9.94358e+06 9.94269e+06 9.94118e+06 9.94031e+06 9.93942e+06 9.93846e+06
          9.93736e+06 9.9361e+06 9.93464e+06 9.93295e+06 9.93107e+06 9.92946e+06 9.92846e+06 9.92755e+06 9.92673e+06 9.92599e+06 9.92533e+06 9.92477e+06
          9.92431e+06 9.92326e+06 9.92208e+06 9.92091e+06 9.91974e+06 9.91858e+06 9.91743e+06 9.91628e+06 9.91515e+06 9.91403e+06 9.91292e+06 9.91181e+06
          9.91071e+06 9.90962e+06 9.90854e+06 9.90746e+06 9.90124e+06 9.90213e+06 9.90303e+06 9.90393e+06 9.90484e+06 9.90576e+06 9.90669e+06 9.90764e+06
          9.9086e+06 9.90958e+06 9.91058e+06 9.9116e+06 9.91266e+06 9.91374e+06 9.91486e+06 9.91602e+06 9.91724e+06 9.91851e+06 9.91986e+06 9.9213e+06
          9.92284e+06 9.92451e+06 9.92635e+06 9.92916e+06 9.93191e+06 9.93415e+06 9.93581e+06 9.93695e+06 9.9376e+06 9.93777e+06 9.93746e+06 9.93662e+06
          9.9351e+06 9.93426e+06 9.93341e+06 9.93248e+06 9.93142e+06 9.9302e+06 9.92877e+06 9.92709e+06 9.9252e+06 9.92353e+06 9.92252e+06 9.9216e+06
          9.92077e+06 9.92003e+06 9.91937e+06 9.91878e+06 9.91827e+06 9.91717e+06 9.91598e+06 9.91479e+06 9.91362e+06 9.91246e+06 9.91131e+06 9.91016e+06
          9.90904e+06 9.90791e+06 9.9068e+06 9.9057e+06 9.9046e+06 9.90350e+06 9.90242e+06 9.90134e+06 9.89512e+06 9.89600e+06 9.8969e+06 9.8978e+06
          9.89871e+06 9.89963e+06 9.90056e+06 9.9015e+06 9.90245e+06 9.90343e+06 9.90442e+06 9.90544e+06 9.90648e+06 9.90755e+06 9.90866e+06 9.90981e+06
          9.91100e+06 9.91226e+06 9.91357e+06 9.91497e+06 9.91646e+06 9.91808e+06 9.91986e+06 9.92189e+06 9.92501e+06 9.92727e+06 9.92888e+06 9.92997e+06
          9.93061e+06 9.9308e+06 9.93055e+06 9.92981e+06 9.9284e+06 9.92764e+06 9.92686e+06 9.92599e+06 9.92501e+06 9.92387e+06 9.92252e+06 9.92087e+06
          9.91883e+06 9.91753e+06 9.91647e+06 9.91554e+06 9.91472e+06 9.91399e+06 9.91332e+06 9.91273e+06 9.91219e+06 9.91107e+06 9.90986e+06 9.90867e+06
          9.90749e+06 9.90632e+06 9.90518e+06 9.90404e+06 9.90291e+06 9.90179e+06 9.90068e+06 9.89957e+06 9.89847e+06 9.89738e+06 9.8963e+06 9.89521e+06
          9.88898e+06 9.88987e+06 9.89076e+06 9.89166e+06 9.89257e+06 9.89348e+06 9.89440e+06 9.89534e+06 9.89629e+06 9.89726e+06 9.89824e+06 9.89925e+06
          9.90028e+06 9.90133e+06 9.90242e+06 9.90355e+06 9.90472e+06 9.90593e+06 9.90721e+06 9.90855e+06 9.90997e+06 9.91149e+06 9.91312e+06 9.9149e+06
          9.91681e+06 9.91874e+06 9.92018e+06 9.92119e+06 9.92179e+06 9.922e+06 9.92183e+06 9.9213e+06 9.92049e+06 9.91988e+06 9.9192e+06 9.91842e+06
          9.91753e+06 9.9165e+06 9.9153e+06 9.9139e+06 9.91246e+06 9.9113e+06 9.91029e+06 9.90939e+06 9.90859e+06 9.90787e+06 9.90722e+06 9.90662e+06
          9.90608e+06 9.90494e+06 9.90372e+06 9.90252e+06 9.90134e+06 9.90018e+06 9.89903e+06 9.8979e+06 9.89677e+06 9.89565e+06 9.89454e+06 9.89344e+06
          9.89234e+06 9.89125e+06 9.89017e+06 9.88908e+06 9.88285e+06 9.88374e+06 9.88463e+06 9.88552e+06 9.88642e+06 9.88733e+06 9.88824e+06 9.88917e+06
          9.89011e+06 9.89107e+06 9.89204e+06 9.89303e+06 9.89404e+06 9.89508e+06 9.89615e+06 9.89724e+06 9.89838e+06 9.89955e+06 9.90077e+06 9.90205e+06
          9.90338e+06 9.90478e+06 9.90624e+06 9.90777e+06 9.90931e+06 9.91075e+06 9.91193e+06 9.9128e+06 9.91334e+06 9.91356e+06 9.91346e+06 9.91303e+06
          9.91225e+06 9.91181e+06 9.91129e+06 9.91065e+06 9.9099e+06 9.90904e+06 9.90808e+06 9.90702e+06 9.90593e+06 9.90491e+06 9.90399e+06 9.90315e+06
          9.90238e+06 9.90169e+06 9.90105e+06 9.90046e+06 9.89991e+06 9.89878e+06 9.89756e+06 9.89636e+06 9.89518e+06 9.89402e+06 9.89288e+06 9.89174e+06
          9.89062e+06 9.88951e+06 9.8884e+06 9.8873e+06 9.88621e+06 9.88512e+06 9.88403e+06 9.88295e+06 9.87672e+06 9.8776e+06 9.87848e+06 9.87937e+06
          9.88026e+06 9.88116e+06 9.88207e+06 9.88299e+06 9.88392e+06 9.88486e+06 9.88582e+06 9.88679e+06 9.88778e+06 9.8888e+06 9.88984e+06 9.8909e+06
          9.892e+06 9.89313e+06 9.89429e+06 9.89549e+06 9.89673e+06 9.898e+06 9.89931e+06 9.90062e+06 9.9019e+06 9.90308e+06 9.90407e+06 9.90482e+06
          9.90531e+06 9.90554e+06 9.9055e+06 9.90520e+06 9.90468e+06 9.90434e+06 9.9039e+06 9.90334e+06 9.90269e+06 9.90195e+06 9.90112e+06 9.90023e+06
          9.89932e+06 9.89844e+06 9.89761e+06 9.89683e+06 9.89611e+06 9.89544e+06 9.89482e+06 9.89425e+06 9.89371e+06 9.89258e+06 9.89137e+06 9.89018e+06
          9.88901e+06 9.88785e+06 9.88671e+06 9.88558e+06 9.88447e+06 9.88336e+06 9.88226e+06 9.88116e+06 9.88007e+06 9.87898e+06 9.8779e+06 9.87682e+06
          9.87058e+06 9.87146e+06 9.87233e+06 9.87321e+06 9.8741e+06 9.87499e+06 9.87589e+06 9.8768e+06 9.87771e+06 9.87864e+06 9.87958e+06 9.88054e+06
          9.88151e+06 9.8825e+06 9.8835e+06 9.88453e+06 9.88559e+06 9.88666e+06 9.88776e+06 9.88889e+06 9.89004e+06 9.8912e+06 9.89236e+06 9.89351e+06
          9.8946e+06 9.8956e+06 9.89644e+06 9.8971e+06 9.89754e+06 9.89778e+06 9.8978e+06 9.89761e+06 9.89725e+06 9.89698e+06 9.89661e+06 9.89614e+06
          9.89558e+06 9.89494e+06 9.89422e+06 9.89347e+06 9.89269e+06 9.89192e+06 9.89117e+06 9.89046e+06 9.88978e+06 9.88915e+06 9.88856e+06 9.888e+06
          9.88747e+06 9.88635e+06 9.88516e+06 9.88398e+06 9.88281e+06 9.88167e+06 9.88054e+06 9.87941e+06 9.8783e+06 9.8772e+06 9.8761e+06 9.87501e+06
          9.87393e+06 9.87284e+06 9.87176e+06 9.87069e+06 9.86445e+06 9.86532e+06 9.86618e+06 9.86705e+06 9.86793e+06 9.86881e+06 9.8697e+06 9.87059e+06
          9.87149e+06 9.87240e+06 9.87333e+06 9.87426e+06 9.87521e+06 9.87617e+06 9.87715e+06 9.87814e+06 9.87915e+06 9.88018e+06 9.88122e+06 9.88227e+06
          9.88333e+06 9.88439e+06 9.88544e+06 9.88645e+06 9.8874e+06 9.88826e+06 9.889e+06 9.88958e+06 9.89e+06 9.89023e+06 9.89029e+06 9.89019e+06
          9.88994e+06 9.88973e+06 9.88942e+06 9.88902e+06 9.88854e+06 9.88799e+06 9.88738e+06 9.88672e+06 9.88605e+06 9.88536e+06 9.88469e+06 9.88404e+06
          9.88342e+06 9.88282e+06 9.88225e+06 9.88171e+06 9.8812e+06 9.8801e+06 9.87892e+06 9.87775e+06 9.8766e+06 9.87547e+06 9.87435e+06 9.87323e+06
          9.87213e+06 9.87103e+06 9.86994e+06 9.86886e+06 9.86778e+06 9.8667e+06 9.86563e+06 9.86455e+06 9.85831e+06 9.85917e+06 9.86003e+06 9.86089e+06
          9.86176e+06 9.86262e+06 9.8635e+06 9.86438e+06 9.86526e+06 9.86616e+06 9.86706e+06 9.86798e+06 9.8689e+06 9.86983e+06 9.87078e+06 9.87173e+06
          9.8727e+06 9.87367e+06 9.87466e+06 9.87564e+06 9.87662e+06 9.8776e+06 9.87854e+06 9.87945e+06 9.88029e+06 9.88106e+06 9.88171e+06 9.88224e+06
          9.88262e+06 9.88286e+06 9.88296e+06 9.88292e+06 9.88275e+06 9.88258e+06 9.88233e+06 9.88199e+06 9.88158e+06 9.8811e+06 9.88057e+06 9.88e+06
          9.87941e+06 9.8788e+06 9.8782e+06 9.8776e+06 9.87702e+06 9.87646e+06 9.87592e+06 9.8754e+06 9.8749e+06 9.87382e+06 9.87266e+06 9.87152e+06
          9.87038e+06 9.86926e+06 9.86815e+06 9.86704e+06 9.86595e+06 9.86486e+06 9.86378e+06 9.8627e+06 9.86163e+06 9.86056e+06 9.85949e+06 9.85842e+06
          9.85218e+06 9.85302e+06 9.85387e+06 9.85472e+06 9.85558e+06 9.85643e+06 9.85729e+06 9.85816e+06 9.85903e+06 9.85991e+06 9.86079e+06 9.86168e+06
          9.86258e+06 9.86348e+06 9.8644e+06 9.86532e+06 9.86624e+06 9.86716e+06 9.86809e+06 9.86902e+06 9.86993e+06 9.87082e+06 9.87169e+06 9.87251e+06
          9.87327e+06 9.87396e+06 9.87455e+06 9.87503e+06 9.87539e+06 9.87564e+06 9.87576e+06 9.87576e+06 9.87566e+06 9.87553e+06 9.87532e+06 9.87504e+06
          9.87468e+06 9.87427e+06 9.87381e+06 9.87331e+06 9.87278e+06 9.87224e+06 9.8717e+06 9.87115e+06 9.87061e+06 9.87008e+06 9.86957e+06 9.86907e+06
          9.86858e+06 9.86753e+06 9.86639e+06 9.86526e+06 9.86414e+06 9.86304e+06 9.86194e+06 9.86085e+06 9.85976e+06 9.85868e+06 9.85761e+06 9.85654e+06
          9.85547e+06 9.85441e+06 9.85335e+06 9.85228e+06 9.84604e+06 9.84688e+06 9.84771e+06 9.84855e+06 9.84939e+06 9.85024e+06 9.85108e+06 9.85193e+06
          9.85279e+06 9.85365e+06 9.85451e+06 9.85538e+06 9.85625e+06 9.85713e+06 9.85801e+06 9.85889e+06 9.85977e+06 9.86066e+06 9.86153e+06 9.8624e+06
          9.86325e+06 9.86408e+06 9.86488e+06 9.86563e+06 9.86632e+06 9.86695e+06 9.86749e+06 9.86794e+06 9.86829e+06 9.86853e+06 9.86867e+06 9.86871e+06
          9.86866e+06 9.86856e+06 9.86839e+06 9.86815e+06 9.86784e+06 9.86748e+06 9.86708e+06 9.86664e+06 9.86617e+06 9.86569e+06 9.86519e+06 9.86469e+06
          9.86419e+06 9.86369e+06 9.8632e+06 9.86272e+06 9.86225e+06 9.86122e+06 9.86011e+06 9.859e+06 9.8579e+06 9.85681e+06 9.85572e+06 9.85465e+06
          9.85357e+06 9.8525e+06 9.85144e+06 9.85038e+06 9.84932e+06 9.84826e+06 9.8472e+06 9.84615e+06 9.8399e+06 9.84073e+06 9.84155e+06 9.84238e+06
          9.84321e+06 9.84404e+06 9.84487e+06 9.8457e+06 9.84654e+06 9.84738e+06 9.84822e+06 9.84907e+06 9.84992e+06 9.85077e+06 9.85162e+06 9.85246e+06
          9.85331e+06 9.85415e+06 9.85498e+06 9.8558e+06 9.8566e+06 9.85737e+06 9.85811e+06 9.85881e+06 9.85945e+06 9.86002e+06 9.86053e+06 9.86095e+06
          9.86129e+06 9.86153e+06 9.86169e+06 9.86176e+06 9.86174e+06 9.86166e+06 9.86152e+06 9.86132e+06 9.86106e+06 9.86075e+06 9.86039e+06 9.86e+06
          9.85958e+06 9.85914e+06 9.85869e+06 9.85823e+06 9.85776e+06 9.85729e+06 9.85683e+06 9.85636e+06 9.85591e+06 9.8549e+06 9.85381e+06 9.85273e+06
          9.85165e+06 9.85057e+06 9.8495e+06 9.84844e+06 9.84738e+06 9.84632e+06 9.84526e+06 9.84421e+06 9.84316e+06 9.84211e+06 9.84106e+06 9.84001e+06
          9.83377e+06 9.83458e+06 9.83539e+06 9.83621e+06 9.83702e+06 9.83784e+06 9.83865e+06 9.83947e+06 9.84029e+06 9.84111e+06 9.84194e+06 9.84276e+06
          9.84358e+06 9.84441e+06 9.84523e+06 9.84604e+06 9.84685e+06 9.84766e+06 9.84845e+06 9.84922e+06 9.84997e+06 9.8507e+06 9.85139e+06 9.85204e+06
          9.85263e+06 9.85317e+06 9.85365e+06 9.85405e+06 9.85438e+06 9.85462e+06 9.85479e+06 9.85488e+06 9.85489e+06 9.85484e+06 9.85472e+06 9.85455e+06
          9.85432e+06 9.85405e+06 9.85374e+06 9.85339e+06 9.85301e+06 9.85261e+06 9.8522e+06 9.85177e+06 9.85133e+06 9.85089e+06 9.85045e+06 9.85e+06
          9.84956e+06 9.84858e+06 9.84751e+06 9.84645e+06 9.84539e+06 9.84433e+06 9.84328e+06 9.84223e+06 9.84118e+06 9.84013e+06 9.83908e+06 9.83804e+06
          9.837e+06 9.83596e+06 9.83492e+06 9.83388e+06 9.82763e+06 9.82843e+06 9.82923e+06 9.83003e+06 9.83083e+06 9.83163e+06 9.83244e+06 9.83324e+06
          9.83404e+06 9.83485e+06 9.83565e+06 9.83645e+06 9.83725e+06 9.83805e+06 9.83884e+06 9.83963e+06 9.84040e+06 9.84117e+06 9.84193e+06 9.84266e+06
          9.84337e+06 9.84406e+06 9.84471e+06 9.84532e+06 9.84588e+06 9.84639e+06 9.84684e+06 9.84722e+06 9.84754e+06 9.84779e+06 9.84797e+06 9.84808e+06
          9.84810e+06 9.84807e+06 9.84798e+06 9.84783e+06 9.84764e+06 9.8474e+06 9.84712e+06 9.84681e+06 9.84646e+06 9.8461e+06 9.84572e+06 9.84532e+06
          9.84491e+06 9.84449e+06 9.84407e+06 9.84364e+06 9.84321e+06 9.84225e+06 9.84121e+06 9.84017e+06 9.83913e+06 9.83809e+06 9.83705e+06 9.83601e+06
          9.83498e+06 9.83394e+06 9.83290e+06 9.83187e+06 9.83084e+06 9.82981e+06 9.82878e+06 9.82774e+06 9.82149e+06 9.82228e+06 9.82307e+06 9.82386e+06
          9.82464e+06 9.82543e+06 9.82622e+06 9.82701e+06 9.82779e+06 9.82858e+06 9.82936e+06 9.83014e+06 9.83092e+06 9.83169e+06 9.83246e+06 9.83322e+06
          9.83397e+06 9.8347e+06 9.83542e+06 9.83612e+06 9.8368e+06 9.83745e+06 9.83807e+06 9.83864e+06 9.83918e+06 9.83966e+06 9.84009e+06 9.84046e+06
          9.84078e+06 9.84103e+06 9.84122e+06 9.84135e+06 9.84138e+06 9.84136e+06 9.84128e+06 9.84116e+06 9.84099e+06 9.84078e+06 9.84053e+06 9.84025e+06
          9.83994e+06 9.83961e+06 9.83925e+06 9.83888e+06 9.83849e+06 9.8381e+06 9.83769e+06 9.83728e+06 9.83686e+06 9.83592e+06 9.83491e+06 9.83389e+06
          9.83287e+06 9.83184e+06 9.83082e+06 9.8298e+06 9.82877e+06 9.82775e+06 9.82672e+06 9.8257e+06 9.82468e+06 9.82365e+06 9.82263e+06 9.82161e+06
          9.81535e+06 9.81613e+06 9.8169e+06 9.81768e+06 9.81845e+06 9.81923e+06 9.82e+06 9.82077e+06 9.82154e+06 9.82231e+06 9.82308e+06 9.82384e+06
          9.82459e+06 9.82534e+06 9.82609e+06 9.82682e+06 9.82754e+06 9.82825e+06 9.82894e+06 9.82961e+06 9.83026e+06 9.83088e+06 9.83146e+06 9.83202e+06
          9.83252e+06 9.83299e+06 9.8334e+06 9.83377e+06 9.83408e+06 9.83433e+06 9.83453e+06 9.83467e+06 9.83471e+06 9.8347e+06 9.83464e+06 9.83454e+06
          9.83439e+06 9.8342e+06 9.83398e+06 9.83373e+06 9.83344e+06 9.83313e+06 9.8328e+06 9.83246e+06 9.83209e+06 9.83171e+06 9.83132e+06 9.83093e+06
          9.83052e+06 9.8296e+06 9.82861e+06 9.82761e+06 9.82661e+06 9.8256e+06 9.82459e+06 9.82358e+06 9.82257e+06 9.82156e+06 9.82054e+06 9.81953e+06
          9.81852e+06 9.8175e+06 9.81649e+06 9.81547e+06 9.80922e+06 9.80998e+06 9.81074e+06 9.81150e+06 9.81227e+06 9.81303e+06 9.81378e+06 9.81454e+06
          9.8153e+06 9.81605e+06 9.81679e+06 9.81754e+06 9.81827e+06 9.819e+06 9.81972e+06 9.82043e+06 9.82113e+06 9.82181e+06 9.82248e+06 9.82312e+06
          9.82374e+06 9.82434e+06 9.8249e+06 9.82543e+06 9.82592e+06 9.82636e+06 9.82677e+06 9.82712e+06 9.82743e+06 9.82768e+06 9.82789e+06 9.82804e+06
          9.82809e+06 9.82809e+06 9.82804e+06 9.82796e+06 9.82783e+06 9.82766e+06 9.82746e+06 9.82723e+06 9.82697e+06 9.82668e+06 9.82638e+06 9.82605e+06
          9.8257e+06 9.82534e+06 9.82496e+06 9.82458e+06 9.82418e+06 9.82329e+06 9.82232e+06 9.82134e+06 9.82035e+06 9.81936e+06 9.81836e+06 9.81736e+06
          9.81636e+06 9.81536e+06 9.81436e+06 9.81336e+06 9.81235e+06 9.81135e+06 9.81034e+06 9.80934e+06 9.80308e+06 9.80383e+06 9.80458e+06 9.80533e+06
          9.80608e+06 9.80683e+06 9.80757e+06 9.80831e+06 9.80905e+06 9.80979e+06 9.81052e+06 9.81124e+06 9.81196e+06 9.81267e+06 9.81337e+06 9.81406e+06
          9.81474e+06 9.8154e+06 9.81604e+06 9.81666e+06 9.81726e+06 9.81783e+06 9.81837e+06 9.81888e+06 9.81935e+06 9.81978e+06 9.82018e+06 9.82052e+06
          9.82083e+06 9.82109e+06 9.8213e+06 9.82146e+06 9.82151e+06 9.82152e+06 9.82149e+06 9.82142e+06 9.82130e+06 9.82116e+06 9.82098e+06 9.82076e+06
          9.82052e+06 9.82026e+06 9.81996e+06 9.81965e+06 9.81932e+06 9.81898e+06 9.81862e+06 9.81824e+06 9.81786e+06 9.81698e+06 9.81603e+06 9.81506e+06
          9.81409e+06 9.81312e+06 9.81214e+06 9.81115e+06 9.81016e+06 9.80917e+06 9.80818e+06 9.80719e+06 9.80619e+06 9.8052e+06 9.8042e+06 9.8032e+06
          9.79694e+06 9.79768e+06 9.79842e+06 9.79916e+06 9.79989e+06 9.80063e+06 9.80136e+06 9.80209e+06 9.80281e+06 9.80353e+06 9.80425e+06 9.80496e+06
          9.80566e+06 9.80635e+06 9.80703e+06 9.8077e+06 9.80835e+06 9.80899e+06 9.80962e+06 9.81022e+06 9.8108e+06 9.81135e+06 9.81187e+06 9.81236e+06
          9.81282e+06 9.81324e+06 9.81363e+06 9.81397e+06 9.81428e+06 9.81454e+06 9.81476e+06 9.81493e+06 9.81498e+06 9.815e+06 9.81498e+06 9.81492e+06
          9.81482e+06 9.81468e+06 9.81452e+06 9.81432e+06 9.8141e+06 9.81385e+06 9.81358e+06 9.81328e+06 9.81297e+06 9.81263e+06 9.81228e+06 9.81192e+06
          9.81154e+06 9.81068e+06 9.80975e+06 9.8088e+06 9.80785e+06 9.80688e+06 9.80592e+06 9.80494e+06 9.80397e+06 9.80299e+06 9.802e+06 9.80102e+06
          9.80003e+06 9.79904e+06 9.79806e+06 9.79707e+06 9.79080e+06 9.79153e+06 9.79226e+06 9.79299e+06 9.79371e+06 9.79443e+06 9.79515e+06 9.79587e+06
          9.79658e+06 9.79728e+06 9.79798e+06 9.79868e+06 9.79936e+06 9.80004e+06 9.8007e+06 9.80135e+06 9.80199e+06 9.80261e+06 9.80322e+06 9.8038e+06
          9.80436e+06 9.8049e+06 9.8054e+06 9.80588e+06 9.80633e+06 9.80674e+06 9.80712e+06 9.80746e+06 9.80777e+06 9.80803e+06 9.80825e+06 9.80843e+06
          9.80849e+06 9.80852e+06 9.8085e+06 9.80845e+06 9.80836e+06 9.80824e+06 9.80809e+06 9.80791e+06 9.8077e+06 9.80747e+06 9.80721e+06 9.80693e+06
          9.80662e+06 9.8063e+06 9.80597e+06 9.80561e+06 9.80524e+06 9.8044e+06 9.80348e+06 9.80255e+06 9.80160e+06 9.80066e+06 9.7997e+06 9.79874e+06
          9.79777e+06 9.7968e+06 9.79583e+06 9.79485e+06 9.79387e+06 9.79289e+06 9.79191e+06 9.79093e+06 9.78467e+06 9.78538e+06 9.7861e+06 9.78682e+06
          9.78753e+06 9.78824e+06 9.78894e+06 9.78965e+06 9.79035e+06 9.79104e+06 9.79172e+06 9.7924e+06 9.79307e+06 9.79373e+06 9.79438e+06 9.79502e+06
          9.79564e+06 9.79625e+06 9.79683e+06 9.7974e+06 9.79795e+06 9.79847e+06 9.79897e+06 9.79944e+06 9.79987e+06 9.80028e+06 9.80065e+06 9.80099e+06
          9.80129e+06 9.80156e+06 9.80179e+06 9.80198e+06 9.80204e+06 9.80207e+06 9.80206e+06 9.80202e+06 9.80194e+06 9.80184e+06 9.8017e+06 9.80153e+06
          9.80133e+06 9.80111e+06 9.80086e+06 9.80059e+06 9.8003e+06 9.79999e+06 9.79966e+06 9.79932e+06 9.79895e+06 9.79812e+06 9.79722e+06 9.7963e+06
          9.79537e+06 9.79443e+06 9.79349e+06 9.79254e+06 9.79158e+06 9.79062e+06 9.78965e+06 9.78869e+06 9.78772e+06 9.78674e+06 9.78577e+06 9.7848e+06
          9.77853e+06 9.77924e+06 9.77994e+06 9.78065e+06 9.78135e+06 9.78205e+06 9.78274e+06 9.78344e+06 9.78412e+06 9.7848e+06 9.78548e+06 9.78614e+06
          9.7868e+06 9.78744e+06 9.78808e+06 9.7887e+06 9.78931e+06 9.7899e+06 9.79047e+06 9.79103e+06 9.79156e+06 9.79207e+06 9.79256e+06 9.79302e+06