<?xml version="1.0"?>
<VTKFile type="UnstructuredGrid" version="0.1" byte_order="LittleEndian">
  <UnstructuredGrid>
    <Piece NumberOfCells="1670" NumberOfPoints="911">
      <CellData Scalars="S_aq">
        <DataArray type="Float32" Name="S_aq" NumberOfComponents="1" format="ascii">
          0.215523 0.161584 0.165335 0.280177 0.272086 0.272189 0.162792 0.279792 0.166608 0.219836 0.195242 0.233434
          0.215415 0.2047 0.18539 0.238805 0.206694 0.212979 0.199089 0.227209 0.247131 0.181138 0.229525 0.240202
          0.185552 0.245822 0.226659 0.194999 0.223717 0.159978 0.206649 0.283444 0.212589 0.16307 0.277121 0.217664
          0.202077 0.180384 0.228162 0.238765 0.229531 0.193047 0.204425 0.201547 0.22312 0.198846 0.188364 0.220766
          0.169304 0.265161 0.220071 0.200143 0.237722 0.185514 0.284321 0.158697 0.159984 0.283386 0.23621 0.187552
          0.206967 0.212311 0.276863 0.206795 0.162802 0.188656 0.255265 0.231262 0.19123 0.211025 0.255188 0.207308
          0.175312 0.205505 0.220634 0.191923 0.193516 0.230164 0.240657 0.174284 0.254342 0.175776 0.226234 0.23264
          0.187071 0.191125 0.219872 0.222608 0.158329 0.216712 0.285817 0.202646 0.244551 0.214892 0.204728 0.24317
          0.181595 0.277795 0.161659 0.162967 0.277112 0.242043 0.183451 0.23202 0.256767 0.174741 0.173191 0.253214
          0.182713 0.239937 0.18498 0.175882 0.15871 0.284664 0.252569 0.159911 0.284109 0.251908 0.177448 0.213818
          0.264217 0.204995 0.169588 0.172414 0.162574 0.276864 0.258447 0.163827 0.27648 0.258078 0.173875 0.180504
          0.243679 0.243482 0.182708 0.199015 0.203791 0.215735 0.232992 0.207059 0.252908 0.20184 0.211986 0.257394
          0.217981 0.176903 0.173904 0.231451 0.229157 0.26435 0.193934 0.227693 0.277105 0.192546 0.229416 0.169584
          0.278506 0.189918 0.162887 0.191346 0.265881 0.167878 0.161347 0.196451 0.189073 0.189733 0.178515 0.213277
          0.194526 0.206087 0.239917 0.198199 0.211953 0.207577 0.208052 0.211697 0.18396 0.245549 0.179659 0.169726
          0.261591 0.262071 0.245086 0.171203 0.181448 0.220524 0.215303 0.203737 0.246639 0.251007 0.229444 0.231879
          0.221469 0.199481 0.227114 0.195039 0.237352 0.184803 0.23796 0.186705 0.196169 0.193691 0.182762 0.179678
          0.194063 0.191139 0.173541 0.255632 0.169492 0.262661 0.262778 0.255374 0.170922 0.175072 0.212286 0.214476
          0.221737 0.222896 0.197858 0.196611 0.279857 0.267861 0.167065 0.160848 0.177011 0.226269 0.194299 0.287677
          0.156877 0.158454 0.286148 0.223821 0.196907 0.24845 0.220847 0.199343 0.204841 0.200196 0.219646 0.19883
          0.261339 0.170599 0.189447 0.21205 0.208146 0.214737 0.40124 0.410358 0.372059 0.365862 0.325759 0.312333
          0.314935 0.70449 0.307923 0.350859 0.321143 0.351235 0.669929 0.400122 0.317512 0.354313 0.579846 0.587885
          0.609298 0.491488 0.511096 0.450154 0.388812 0.37824 0.455642 0.464975 0.345675 0.444681 0.349398 0.393103
          0.385719 0.915655 0.296113 0.362127 0.834705 0.441886 0.515591 0.524268 0.441541 0.608071 0.341937 0.356158
          0.299473 0.310623 0.325758 0.524498 0.436282 0.411512 0.400873 0.538795 0.341377 0.347955 0.66637 0.308001
          0.697883 0.377404 0.296413 0.321337 0.338062 0.334328 0.591287 0.296191 0.663732 0.365961 0.400972 0.394465
          0.298214 0.382569 0.389713 0.342683 0.374844 0.335791 0.393663 0.737335 0.82897 0.922589 0.921606 0.346653
          0.610069 0.335589 0.484597 0.496309 0.532195 0.522549 0.414753 0.462373 0.460284 0.339733 0.456774 0.544817
          0.432588 0.485697 0.42976 0.362757 0.354242 0.354786 0.611181 0.300078 0.36622 0.318761 0.428305 0.719065
          0.357269 0.465926 0.317894 0.401673 0.445867 0.444189 0.597356 0.406054 0.528646 0.474887 0.489179 0.587731
          0.543538 0.672494 0.674217 0.332987 0.545929 0.348098 0.298518 0.686452 0.679153 0.624108 0.329691 0.372392
          0.5507 0.544293 0.390494 0.32841 0.365634 0.424579 0.349433 0.414131 0.309272 0.50048 0.383079 0.393652
          0.295686 0.34377 0.92791 0.550894 0.308513 0.493208 0.329519 0.305759 0.580665 0.414818 0.415218 0.29842
          0.374153 0.476475 0.37287 0.329543 0.403273 0.332454 0.493594 0.356434 0.52252 0.84119 0.840117 0.42886
          0.303551 0.829138 0.825956 0.322536 0.303524 0.402181 0.614228 0.299298 0.329793 0.539331 0.351718 0.348679
          0.532491 0.307458 0.323504 0.298491 0.316448 0.319453 0.340403 0.296504 0.575077 0.427613 0.647339 0.368617
          0.32727 0.428058 0.303712 0.680224 0.333257 0.305021 0.399497 0.302826 0.925424 0.923052 0.605799 0.481156
          0.319662 0.388539 0.739101 0.749575 0.584704 0.432851 0.2979 0.339937 0.727449 0.723896 0.3153 0.495478
          0.43232 0.839257 0.845636 0.333906 0.307402 0.42491 0.424869 0.398729 0.3914 0.324068 0.313501 0.305506
          0.312693 0.667714 0.560823 0.356402 0.325677 0.41337 0.416737 0.398367 0.454133 0.414386 0.316362 0.323567
          0.575434 0.477327 0.612316 0.456483 0.457782 0.308708 0.314648 0.307451 0.475 0.31785 0.45016 0.525397
          0.679081 0.494047 0.356271 0.726114 0.721515 0.344105 0.438485 0.32473 0.342591 0.340676 0.45335 0.467128
          0.383404 0.518995 0.352602 0.355753 0.390601 0.304056 0.315617 0.382427 0.517982 0.334422 0.46405 0.395882
          0.311488 0.351944 0.344339 0.369879 0.382516 0.295645 0.500982 0.333525 0.309159 0.380049 0.359951 0.355232
          0.377267 0.312726 0.757519 0.425831 0.647088 0.314585 0.295389 0.415045 0.366964 0.456359 0.478095 0.324516
          0.852629 0.505114 0.423175 0.336368 0.561904 0.319798 0.324287 0.328739 0.371268 0.326902 0.30628 0.485617
          0.763223 0.770039 0.294737 0.328838 0.596915 0.333742 0.363717 0.365145 0.342135 0.301489 0.381463 0.329361
          0.336216 0.941366 0.935806 0.298091 0.708637 0.301387 0.320941 0.836597 0.836602 0.411769 0.310328 0.295535
          0.317121 0.411114 0.622207 0.336346 0.342167 0.371053 0.298018 0.644328 0.949176 0.293738 0.947659 0.337366
          0.491541 0.306852 0.362435 0.361423 0.451815 0.436426 0.302904 0.378606 0.298416 0.320683 0.427433 0.527528
          0.627777 0.374154 0.441707 0.360172 0.331384 0.343572 0.839701 0.844683 0.297601 0.339287 0.322649 0.439017
          0.303306 0.563302 0.326029 0.331694 0.537253 0.3776 0.316488 0.347501 0.377137 0.369179 0.30448 0.427828
          0.361877 0.553562 0.575378 0.368637 0.365434 0.312398 0.332085 0.448081 0.45771 0.29715 0.354953 0.313542
          0.313579 0.598398 0.606046 0.31835 0.708262 0.647518 0.551479 0.553443 0.338715 0.333599 0.307076 0.299153
          0.309349 0.594219 0.510615 0.592678 0.532201 0.442531 0.350034 0.298449 0.512625 0.322264 0.34446 0.359796
          0.344492 0.297159 0.4739 0.295202 0.296636 0.377606 0.492003 0.45995 0.519529 0.468227 0.425855 0.500007
          0.527171 0.545858 0.585498 0.380838 0.436358 0.326358 0.32299 0.588676 0.303482 0.425476 0.355651 0.322084
          0.583218 0.433267 0.627903 0.348253 0.570433 0.656968 0.31093 0.341905 0.309189 0.495104 0.319136 0.307737
          0.315535 0.313596 0.820047 0.460479 0.595326 0.611925 0.456668 0.470858 0.462158 0.525883 0.340086 0.427019
          0.612287 0.652171 0.36238 0.90853 0.484938 0.347119 0.309107 0.350336 0.303898 0.321644 0.299167 0.32693
          0.565297 0.322141 0.32017 0.314113 0.345698 0.348214 0.384962 0.322163 0.333923 0.59904 0.433003 0.29858
          0.366439 0.450424 0.32348 0.336742 0.712977 0.711069 0.671184 0.313152 0.34063 0.335364 0.381266 0.560684
          0.610365 0.680073 0.352797 0.374589 0.515313 0.520865 0.344328 0.29989 0.306515 0.921442 0.920835 0.295524
          0.923871 0.406019 0.736101 0.726965 0.458688 0.531676 0.492341 0.657416 0.347831 0.31875 0.828799 0.762334
          0.766987 0.586537 0.551375 0.618457 0.454817 0.317888 0.411596 0.327823 0.397117 0.441974 0.728097 0.55657
          0.497984 0.373806 0.404761 0.331493 0.418082 0.375913 0.453785 0.375684 0.316963 0.333057 0.385696 0.501388
          0.391188 0.403356 0.847333 0.847856 0.402047 0.430676 0.466541 0.407257 0.454274 0.494094 0.576992 0.367729
          0.466647 0.466614 0.517442 0.296705 0.322247 0.393291 0.310343 0.40304 0.32924 0.299397 0.351242 0.556304
          0.488405 0.347342 0.296026 0.387989 0.413307 0.339315 0.357693 0.333376 0.420559 0.739061 0.745438 0.318051
          0.483532 0.386709 0.315315 0.402325 0.837885 0.841579 0.38355 0.340438 0.366497 0.411952 0.358659 0.377548
          0.357756 0.302335 0.616923 0.298506 0.352038 0.321774 0.307006 0.297829 0.430562 0.316443 0.330664 0.426227
          0.481655 0.312394 0.339106 0.359068 0.296034 0.401298 0.433243 0.392973 0.33137 0.398914 0.394535 0.322986
          0.325221 0.356379 0.631449 0.346135 0.395731 0.834925 0.834949 0.529741 0.324452 0.664981 0.505921 0.294873
          0.297502 0.313372 0.677453 0.390942 0.933422 0.933053 0.306916 0.454605 0.748786 0.353886 0.68582 0.297278
          0.526027 0.849189 0.364661 0.30301 0.383029 0.399123 0.390154 0.544906 0.358792 0.550997 0.372832 0.382106
          0.508198 0.488493 0.430439 0.347345 0.31228 0.368834 0.360277 0.443724 0.340797 0.352985 0.327538 0.334487
          0.439947 0.5265 0.360973 0.343657 0.698206 0.57709 0.345535 0.321193 0.364606 0.377017 0.426969 0.312022
          0.332318 0.642154 0.374541 0.422009 0.326094 0.367787 0.310484 0.30535 0.322178 0.375601 0.427935 0.464758
          0.38431 0.571756 0.333703 0.314866 0.407257 0.295765 0.415053 0.615947 0.315644 0.468841 0.355648 0.934929
          0.935446 0.333687 0.304365 0.939165 0.934484 0.33035 0.333652 0.349788 0.402293 0.50066 0.387997 0.828712
          0.8328 0.36117 0.399438 0.639015 0.302963 0.294874 0.307277 0.384815 0.369602 0.630363 0.337488 0.298267
          0.302323 0.366442 0.308428 0.533784 0.437172 0.327964 0.552571 0.303768 0.414094 0.415308 0.325593 0.407228
          0.323572 0.351801 0.697187 0.689128 0.417359 0.306981 0.357676 0.418625 0.36207 0.409027 0.360474 0.304784
          0.37369 0.369842 0.312413 0.316231 0.370635 0.458557 0.31457 0.329663 0.324969 0.435175 0.333217 0.366669
          0.436642 0.360163 0.563995 0.368609 0.377498 0.304755 0.656315 0.67795 0.310567 0.317924 0.318868 0.32785
          0.400886 0.306437 0.741401 0.747156 0.729677 0.725583 0.440913 0.423405 0.380229 0.390092 0.514296 0.523084
          0.485321 0.478971 0.435994 0.421443 0.4244 0.774632 0.416636 0.46319 0.430917 0.463602 0.746874 0.513263
          0.427195 0.466918 0.673033 0.679714 0.697533 0.597284 0.614449 0.560247 0.50217 0.491612 0.565246 0.573697
          0.457662 0.555228 0.461636 0.506388 0.49909 0.937457 0.403892 0.475088 0.876103 0.552695 0.618335 0.62586
          0.552375 0.696551 0.453819 0.468777 0.407896 0.419496 0.436144 0.626037 0.547488 0.524215 0.513988 0.63835
          0.453013 0.460087 0.743984 0.416573 0.769367 0.4907 0.40472 0.431312 0.449424 0.445377 0.682544 0.404048
          0.742008 0.479034 0.514033 0.507688 0.406219 0.495887 0.503072 0.454598 0.488131 0.447151 0.506899 0.800747
          0.871671 0.942592 0.941866 0.458788 0.698201 0.446965 0.591194 0.601542 0.632691 0.624364 0.527309 0.571324
          0.569457 0.451251 0.566298 0.643474 0.544058 0.592178 0.541419 0.475729 0.466759 0.467396 0.699124 0.407746
          0.47932 0.428612 0.540061 0.786359 0.469997 0.574545 0.427346 0.514721 0.556318 0.554777 0.687622 0.518992
          0.629592 0.582586 0.595248 0.679643 0.642376 0.750373 0.749083 0.444132 0.644432 0.460311 0.406672 0.76028
          0.754443 0.709763 0.440458 0.485606 0.648483 0.64299 0.50379 0.438912 0.478678 0.53657 0.461825 0.526735
          0.418154 0.605203 0.496417 0.506895 0.403728 0.455685 0.946543 0.648625 0.417455 0.598815 0.440195 0.414527
          0.673695 0.527342 0.527759 0.406477 0.48742 0.583982 0.486097 0.440258 0.516267 0.443342 0.599155 0.469102
          0.624331 0.880926 0.880135 0.540579 0.411534 0.871802 0.869384 0.432724 0.411744 0.515238 0.70162 0.406835
          0.440409 0.638785 0.46418 0.461005 0.632901 0.415832 0.433756 0.406365 0.426052 0.429266 0.452052 0.403996
          0.669028 0.539455 0.728657 0.481742 0.437814 0.539869 0.41216 0.755298 0.444247 0.413599 0.512603 0.410896
          0.944677 0.942921 0.694661 0.588132 0.4293 0.50187 0.802136 0.810297 0.677129 0.54434 0.405606 0.451582
          0.792937 0.790216 0.424719 0.600807 0.543813 0.8844 0.879552 0.445071 0.41597 0.536886 0.536843 0.511867
          0.504682 0.434417 0.422824 0.414162 0.421987 0.745166 0.65705 0.469181 0.436151 0.525963 0.529166 0.511495
          0.563882 0.526972 0.425809 0.433789 0.669335 0.584757 0.700028 0.566031 0.567183 0.417627 0.424134 0.416278
          0.582689 0.427294 0.560278 0.626806 0.754241 0.599566 0.468923 0.79186 0.788271 0.456089 0.549544 0.434891
          0.454337 0.4524 0.563178 0.57563 0.496759 0.621303 0.465148 0.468442 0.503881 0.412607 0.424887 0.495754
          0.620418 0.445623 0.57284 0.509099 0.420329 0.464461 0.456309 0.483117 0.495853 0.40283 0.605609 0.44464
          0.417706 0.49339 0.472786 0.467849 0.49059 0.421639 0.816562 0.537763 0.728527 0.423984 0.403392 0.527559
          0.480061 0.565923 0.585427 0.434727 0.889736 0.60923 0.535264 0.447594 0.657962 0.429544 0.434476 0.43927
          0.484503 0.437294 0.414605 0.592091 0.820908 0.826218 0.402044 0.439563 0.6873 0.444819 0.476802 0.478268
          0.453883 0.409832 0.494789 0.440195 0.447453 0.956537 0.952401 0.406319 0.777932 0.40921 0.430772 0.877628
          0.877667 0.524441 0.419048 0.40312 0.42666 0.52382 0.7082 0.447666 0.45394 0.484337 0.406099 0.726226
          0.961205 0.962337 0.401499 0.448786 0.597361 0.41566 0.475349 0.474292 0.56176 0.547629 0.410979 0.491992
          0.406117 0.430555 0.539274 0.628652 0.71278 0.487493 0.552534 0.473116 0.442267 0.455423 0.879991 0.883785
          0.40562 0.450803 0.432603 0.55004 0.411832 0.659138 0.43651 0.4427 0.637011 0.490917 0.425902 0.459637
          0.490434 0.482325 0.412589 0.539648 0.474877 0.650869 0.669286 0.48179 0.478492 0.421401 0.442984 0.558348
          0.567124 0.404568 0.467633 0.42255 0.422636 0.688484 0.694834 0.427869 0.361617 0.342357 0.396941 0.299247
          0.303198 0.39406 0.30257 0.393017 0.298559 0.395853 0.357685 0.346481 0.360739 0.34318 0.370607 0.331661
          0.374581 0.326814 0.362832 0.340902 0.319525 0.367626 0.33526 0.324576 0.369519 0.333105 0.320064 0.380122
          0.356343 0.347739 0.397151 0.298391 0.361116 0.342818 0.301136 0.394802 0.325301 0.375894 0.360968 0.342755
          0.361024 0.342602 0.354311 0.339705 0.36366 0.349851 0.363246 0.34067 0.307602 0.389798 0.398241 0.297817
          0.375807 0.326489 0.326158 0.375222 0.297323 0.397215 0.356571 0.34732 0.394877 0.350316 0.301796 0.353794
          0.386976 0.330729 0.313261 0.385357 0.384734 0.31433 0.351433 0.35269 0.361449 0.342093 0.333979 0.345765
          0.340681 0.358134 0.362761 0.378243 0.31392 0.323521 0.37725 0.348373 0.335633 0.355734 0.367273 0.345906
          0.358034 0.398471 0.297665 0.378628 0.321809 0.39608 0.300654 0.379485 0.322007 0.321675 0.378734 0.300163
          0.395052 0.312771 0.372274 0.371188 0.331012 0.386129 0.323666 0.314345 0.384445 0.331436 0.297331 0.398468
          0.385006 0.315119 0.314712 0.384128 0.296729 0.39764 0.38881 0.348684 0.308699 0.355412 0.300936 0.395789
          0.387978 0.311284 0.310819 0.387025 0.300357 0.394827 0.380304 0.321334 0.321257 0.379086 0.36894 0.370211
          0.333824 0.331967 0.383507 0.386043 0.315707 0.312446 0.361552 0.355326 0.342419 0.348739 0.396132 0.391434
          0.389609 0.369667 0.307642 0.370906 0.333595 0.394881 0.300513 0.33364 0.369009 0.332128 0.300671 0.307409
          0.331629 0.370707 0.383571 0.368817 0.36446 0.334936 0.339365 0.36949 0.371669 0.374967 0.331088 0.326063
          0.380125 0.365658 0.36566 0.337475 0.337421 0.371812 0.389691 0.381149 0.309127 0.319933 0.319804 0.380174
          0.308872 0.388525 0.379007 0.317183 0.320378 0.346716 0.341519 0.357268 0.362002 0.368917 0.333711 0.371158
          0.331051 0.376955 0.325834 0.326248 0.375095 0.355212 0.350325 0.353771 0.34885 0.375822 0.383555 0.390065
          0.386712 0.308574 0.312882 0.312512 0.308179 0.385714 0.389025 0.396457 0.391638 0.300287 0.306559 0.339612
          0.363776 0.340767 0.362738 0.399295 0.29652 0.366589 0.336968 0.3365 0.366576 0.296255 0.397974 0.381288
          0.318627 0.351299 0.352669 0.348948 0.35509 0.388524 0.310332 0.3427 0.360967 0.378608 0.364621 0.339179
          0.356621 0.347241
        </DataArray>
        <DataArray type="Float32" Name="p_aq" NumberOfComponents="1" format="ascii">
          100098 100150 100149 100050 100053 100053 100148 100051 100147 100093 100124 100078
          100098 100113 100134 100073 100111 100100 100119 100085 100066 100139 100083 100072
          100135 100068 100084 100125 100089 100150 100111 100050 100100 100149 100052 100094
          100117 100139 100084 100074 100081 100127 100112 100117 100089 100120 100132 100092
          100146 100057 100091 100119 100075 100135 100049 100150 100149 100049 100074 100133
          100110 100104 100051 100109 100149 100131 100062 100079 100129 100105 100062 100108
          100143 100112 100093 100128 100127 100081 100072 100143 100061 100142 100086 100079
          100133 100129 100094 100091 100150 100098 100049 100114 100069 100098 100113 100070
          100138 100051 100149 100148 100051 100070 100137 100081 100060 100143 100144 100063
          100137 100071 100135 100143 100150 100048 100064 100149 100049 100063 100142 100102
          100057 100111 100146 100145 100149 100051 100060 100148 100052 100059 100144 100138
          100070 100069 100137 100118 100112 100099 100079 100110 100063 100117 100101 100060
          100094 100142 100144 100081 100083 100057 100127 100083 100051 100128 100081 100146
          100051 100130 100149 100128 100056 100147 100149 100121 100130 100130 100140 100102
          100124 100110 100072 100119 100104 100108 100109 100103 100135 100068 100139 100146
          100058 100057 100067 100145 100138 100093 100100 100112 100067 100064 100082 100080
          100090 100120 100084 100125 100075 100134 100073 100134 100123 100126 100137 100140
          100124 100128 100144 100061 100146 100058 100057 100061 100145 100143 100103 100101
          100092 100091 100120 100122 100050 100055 100147 100150 100141 100087 100125 100048
          100150 100150 100049 100087 100123 100066 100090 100120 100112 100118 100094 100119
          100058 100145 100129 100103 100108 100100 100010 100009 100016 100017 100031 100037
          100035 100000 100039 100021 100033 100021 100001 100011 100034 100020 100001 100001
          100001 100004 100003 100006 100012 100014 100005 100005 100023 100006 100022 100012
          100013 100000 100045 100018 100000 100006 100003 100003 100006 100001 100024 100020
          100043 100038 100030 100003 100007 100009 100011 100002 100024 100022 100001 100039
          100000 100014 100044 100032 100026 100027 100001 100045 100001 100017 100011 100011
          100044 100013 100012 100024 100015 100026 100012 100000 100000 100000 100000 100022
          100001 100026 100004 100003 100002 100003 100009 100005 100005 100025 100005 100002
          100007 100004 100007 100018 100020 100020 100001 100043 100017 100033 100007 100000
          100019 100005 100034 100010 100006 100006 100001 100010 100002 100004 100004 100001
          100002 100001 100001 100027 100002 100022 100044 100001 100001 100001 100029 100016
          100002 100002 100012 100029 100017 100008 100021 100009 100038 100003 100013 100012
          100045 100023 100000 100002 100039 100004 100029 100040 100001 100009 100009 100044
          100015 100004 100015 100029 100010 100028 100004 100020 100003 100000 100000 100007
          100041 100000 100000 100032 100041 100010 100001 100044 100029 100002 100021 100022
          100002 100039 100031 100044 100035 100033 100025 100045 100002 100007 100001 100016
          100030 100007 100041 100001 100027 100040 100011 100042 100000 100000 100001 100004
          100033 100012 100000 100000 100001 100007 100044 100025 100000 100000 100035 100003
          100007 100000 100000 100027 100039 100008 100008 100011 100012 100031 100036 100040
          100036 100001 100002 100019 100030 100009 100009 100011 100005 100009 100035 100031
          100002 100004 100001 100005 100005 100038 100035 100039 100004 100034 100006 100003
          100001 100004 100020 100000 100000 100023 100007 100031 100024 100024 100006 100005
          100013 100003 100020 100020 100012 100041 100035 100013 100003 100027 100005 100011
          100037 100021 100023 100016 100013 100045 100003 100027 100038 100014 100019 100020
          100014 100037 100000 100008 100001 100035 100045 100009 100017 100005 100004 100031
          100000 100003 100008 100026 100002 100033 100031 100029 100016 100030 100040 100004
          100000 100000 100046 100029 100001 100027 100017 100017 100024 100042 100014 100029
          100026 100000 100000 100044 100000 100042 100033 100000 100000 100009 100038 100045
          100034 100009 100001 100026 100024 100016 100044 100001 100000 100046 100000 100026
          100004 100039 100018 100018 100006 100007 100042 100014 100044 100033 100008 100002
          100001 100015 100006 100018 100028 100024 100000 100000 100044 100025 100032 100007
          100041 100002 100030 100028 100002 100014 100035 100022 100014 100016 100041 100007
          100018 100002 100002 100016 100017 100037 100028 100006 100005 100045 100020 100036
          100036 100001 100001 100034 100000 100001 100002 100002 100025 100027 100039 100044
          100038 100001 100003 100001 100002 100006 100021 100044 100003 100032 100023 100018
          100023 100045 100004 100045 100045 100014 100004 100005 100003 100005 100008 100003
          100002 100002 100001 100014 100007 100030 100032 100001 100041 100008 100019 100032
          100001 100007 100001 100022 100002 100001 100038 100024 100038 100003 100033 100039
          100035 100036 100000 100005 100001 100001 100005 100004 100005 100002 100024 100007
          100001 100001 100018 100000 100004 100022 100038 100021 100041 100032 100043 100030
          100002 100032 100033 100036 100023 100022 100013 100032 100027 100001 100007 100044
          100017 100006 100031 100026 100000 100000 100001 100036 100024 100026 100014 100002
          100001 100001 100020 100015 100003 100003 100023 100043 100040 100000 100000 100045
          100000 100010 100000 100000 100005 100002 100004 100001 100022 100033 100000 100000
          100000 100001 100002 100001 100005 100034 100009 100029 100011 100006 100000 100002
          100003 100015 100010 100028 100008 100015 100005 100015 100034 100027 100013 100003
          100012 100010 100000 100000 100010 100007 100005 100010 100005 100003 100002 100016
          100005 100005 100003 100045 100032 100011 100038 100010 100029 100043 100021 100002
          100004 100022 100044 100012 100009 100025 100019 100027 100008 100000 100000 100034
          100004 100013 100035 100010 100000 100000 100013 100024 100017 100009 100019 100014
          100019 100042 100001 100043 100020 100032 100039 100044 100007 100035 100028 100008
          100004 100037 100025 100018 100045 100010 100007 100012 100028 100011 100011 100031
          100031 100019 100001 100022 100011 100000 100000 100002 100031 100001 100003 100046
          100044 100036 100001 100012 100000 100000 100039 100005 100000 100020 100001 100044
          100002 100000 100017 100041 100013 100011 100012 100002 100019 100002 100015 100013
          100003 100004 100007 100022 100036 100016 100018 100006 100024 100020 100029 100027
          100006 100002 100018 100023 100000 100002 100023 100032 100017 100014 100007 100037
          100028 100001 100015 100008 100030 100016 100037 100040 100032 100015 100007 100005
          100013 100002 100027 100035 100010 100045 100009 100001 100035 100005 100019 100000
          100000 100027 100040 100000 100000 100028 100027 100021 100010 100003 100012 100000
          100000 100018 100011 100001 100042 100046 100039 100013 100016 100001 100025 100044
          100042 100017 100038 100002 100007 100029 100002 100041 100009 100009 100030 100010
          100031 100021 100000 100001 100008 100039 100019 100008 100018 100009 100018 100040
          100015 100016 100036 100035 100016 100005 100036 100029 100031 100007 100027 100017
          100007 100018 100002 100016 100014 100040 100001 100001 100038 100034 100034 100029
          100010 100039 100000 100000 100000 100000 100006 100008 100014 100012 100009 100008
          100012 100013 100022 100025 100025 100001 100027 100016 100023 100016 100001 100009
          100024 100015 100002 100002 100001 100004 100003 100005 100010 100011 100005 100005
          100017 100006 100016 100009 100010 100000 100031 100014 100000 100006 100003 100003
          100006 100001 100017 100015 100030 100026 100021 100003 100006 100008 100009 100002
          100018 100016 100001 100027 100001 100011 100030 100023 100018 100019 100002 100031
          100001 100013 100009 100009 100030 100011 100010 100017 100012 100019 100009 100000
          100000 100000 100000 100016 100001 100019 100004 100003 100002 100003 100007 100005
          100005 100018 100005 100002 100006 100004 100006 100013 100015 100015 100001 100030
          100013 100023 100007 100001 100014 100005 100024 100009 100005 100006 100001 100008
          100003 100004 100004 100002 100002 100001 100001 100019 100002 100016 100030 100001
          100001 100001 100020 100012 100002 100002 100010 100021 100013 100007 100016 100007
          100026 100003 100011 100009 100031 100017 100000 100002 100027 100004 100020 100027
          100002 100007 100007 100030 100012 100004 100012 100020 100008 100020 100004 100015
          100003 100000 100000 100006 100028 100000 100000 100022 100028 100009 100001 100030
          100020 100002 100015 100016 100002 100027 100022 100030 100024 100023 100018 100031
          100002 100007 100001 100013 100021 100006 100028 100001 100020 100028 100009 100028
          100000 100000 100001 100004 100023 100010 100000 100000 100002 100006 100030 100018
          100001 100001 100025 100003 100006 100000 100000 100019 100027 100007 100007 100009
          100010 100022 100025 100027 100025 100001 100002 100014 100021 100008 100007 100009
          100005 100007 100024 100022 100002 100004 100001 100005 100005 100026 100024 100027
          100004 100024 100005 100003 100001 100003 100015 100001 100001 100017 100006 100022
          100017 100018 100005 100004 100011 100003 100015 100015 100010 100028 100024 100011
          100003 100019 100005 100009 100026 100015 100017 100012 100011 100031 100003 100019
          100026 100011 100014 100015 100011 100025 100000 100007 100001 100025 100031 100007
          100013 100005 100004 100022 100000 100003 100007 100019 100002 100023 100022 100021
          100012 100021 100027 100004 100000 100000 100031 100021 100001 100019 100013 100013
          100017 100029 100011 100020 100019 100000 100000 100030 100001 100029 100023 100000
          100000 100008 100026 100031 100024 100008 100001 100019 100017 100012 100030 100001
          100000 100000 100031 100019 100004 100027 100014 100014 100005 100006 100029 100011
          100030 100023 100007 100003 100001 100012 100006 100014 100020 100017 100000 100000
          100030 100018 100022 100006 100028 100002 100021 100020 100002 100011 100024 100016
          100011 100012 100028 100007 100014 100002 100002 100013 100013 100025 100020 100005
          100005 100030 100015 100025 100025 100001 100001 100024 100043 100047 100033 100047
          100047 100034 100048 100034 100047 100033 100044 100046 100043 100046 100041 100048
          100040 100048 100043 100047 100048 100042 100047 100048 100041 100048 100048 100038
          100044 100046 100033 100047 100043 100046 100048 100034 100048 100039 100043 100046
          100043 100046 100045 100047 100043 100045 100043 100047 100048 100035 100033 100047
          100039 100048 100048 100040 100047 100033 100044 100046 100034 100045 100047 100045
          100036 100048 100048 100037 100037 100048 100045 100045 100043 100047 100047 100046
          100047 100044 100043 100039 100048 100048 100039 100046 100047 100044 100042 100046
          100044 100032 100047 100039 100048 100033 100047 100038 100048 100048 100039 100048
          100033 100048 100040 100041 100048 100036 100048 100048 100037 100048 100047 100032
          100037 100048 100048 100037 100047 100033 100035 100046 100048 100044 100047 100033
          100036 100048 100048 100036 100048 100033 100038 100048 100048 100038 100041 100041
          100047 100048 100037 100036 100048 100048 100043 100044 100047 100046 100033 100035
          100035 100041 100048 100041 100047 100034 100048 100048 100041 100048 100047 100048
          100048 100041 100037 100041 100042 100047 100047 100041 100040 100040 100048 100048
          100038 100042 100042 100047 100047 100040 100035 100038 100048 100048 100048 100038
          100048 100036 100038 100048 100048 100046 100047 100044 100043 100041 100047 100041
          100048 100039 100048 100048 100040 100044 100045 100045 100046 100039 100037 100035
          100036 100048 100048 100048 100048 100036 100035 100033 100035 100047 100048 100047
          100043 100047 100043 100032 100047 100042 100047 100047 100042 100047 100033 100038
          100048 100045 100045 100046 100044 100036 100048 100046 100043 100039 100042 100047
          100044 100046
        </DataArray>
        <DataArray type="Float32" Name="rho_aq" NumberOfComponents="1" format="ascii">
          1000 1000 1000 1000 1000 1000 1000 1000 1000 1000 1000 1000
          1000 1000 1000 1000 1000 1000 1000 1000 1000 1000 1000 1000