<?xml version="1.0"?>
<VTKFile type="UnstructuredGrid" version="0.1" byte_order="LittleEndian">
  <UnstructuredGrid>
    <Piece NumberOfCells="8224" NumberOfPoints="1902">
      <PointData Scalars="S_liq">
        <DataArray type="Float32" Name="S_liq" NumberOfComponents="1" format="ascii">
          0.194137 0.194612 0.194589 0.194452 0.194134 0.193209 0.191356 0.192718 0.192145 0.190355 0.189583 0.188964
          0.190081 0.187149 0.185185 0.189093 0.185463 0.194923 0.193098 0.191619 0.194255 0.193571 0.188883 0.190763
          0.182008 0.185141 0.194411 0.1914 0.188911 0.19376 0.182006 0.188249 0.184077 0.18614 0.180013 0.193439
          0.193397 0.187927 0.19098 0.188087 0.183187 0.184335 0.180148 0.186804 0.182677 0.178592 0.176317 0.177157
          0.178425 0.18494 0.183128 0.176404 0.178444 0.174713 0.172888 0.18507 0.180237 0.186923 0.17329 0.171595
          0.171383 0.173513 0.182253 0.175332 0.171824 0.172731 0.169999 0.167828 0.178394 0.170826 0.168148 0.164954
          0.169874 0.160774 0.167898 0.165023 0.164275 0.157985 0.158568 0.171177 0.185661 0.18685 0.184534 0.181592
          0.181329 0.181761 0.182548 0.179443 0.179787 0.177668 0.178366 0.185404 0.184135 0.18031 0.181262 0.176531
          0.18009 0.173856 0.176237 0.180615 0.178619 0.180733 0.17908 0.175665 0.172023 0.173237 0.175201 0.171419
          0.176322 0.177357 0.174271 0.171848 0.17101 0.175915 0.176054 0.173065 0.171665 0.172722 0.172607 0.171476
          0.165615 0.168755 0.169343 0.170534 0.168435 0.165195 0.162633 0.169682 0.164918 0.161195 0.164495 0.157564
          0.167335 0.157854 0.159786 0.157684 0.156795 0.155401 0.158418 0.156747 0.157497 0.154189 0.154648 0.153944
          0.155976 0.167519 0.154707 0.153108 0.149883 0.151627 0.147893 0.155013 0.168793 0.171666 0.168758 0.171235
          0.174929 0.167109 0.17046 0.165337 0.169373 0.1654 0.166142 0.166563 0.162309 0.168241 0.164008 0.167788
          0.167742 0.161581 0.161141 0.164688 0.165543 0.164313 0.150667 0.156451 0.155512 0.151588 0.152952 0.153525
          0.155591 0.153597 0.153529 0.14803 0.152974 0.150962 0.153412 0.15386 0.151049 0.152126 0.150434 0.153481
          0.160194 0.150016 0.152164 0.152573 0.161444 0.194834 0.193344 0.195323 0.194416 0.192026 0.19126 0.188778
          0.190521 0.187505 0.188354 0.194487 0.194836 0.195064 0.193429 0.192832 0.190444 0.187376 0.191771 0.193919
          0.188182 0.183515 0.183433 0.177176 0.187221 0.184157 0.18432 0.183724 0.182381 0.170665 0.171253 0.172499
          0.170497 0.177935 0.164678 0.163498 0.164712 0.166568 0.171001 0.180735 0.165511 0.173779 0.159259 0.161994
          0.167973 0.179914 0.180674 0.186331 0.194759 0.192834 0.190544 0.192737 0.183836 0.183441 0.180402 0.17745
          0.180471 0.175881 0.187884 0.184917 0.180963 0.183367 0.18218 0.178516 0.169161 0.170995 0.177777 0.176346
          0.172535 0.166393 0.178489 0.15688 0.170934 0.1612 0.155127 0.156812 0.172805 0.176258 0.166489 0.15414
          0.171303 0.166534 0.163719 0.157094 0.15315 0.156814 0.15169 0.169524 0.163578 0.17441 0.173094 0.171474
          0.167724 0.165814 0.167416 0.171325 0.16542 0.168218 0.153139 0.160394 0.153339 0.162604 0.152782 0.15339
          0.149208 0.154894 0.166769 0.16212 0.150058 0.153417 0.152911 0.161495 0.163729 0.149576 0.146916 0.149467
          0.150325 0.151195 0.159047 0.160469 0.163597 0.174915 0.167394 0.167576 0.168151 0.179166 0.178131 0.174549
          0.17636 0.172049 0.191046 0.193508 0.187351 0.18665 0.180475 0.174328 0.176487 0.174075 0.181085 0.180602
          0.183434 0.178539 0.173649 0.189138 0.191083 0.193813 0.182734 0.178966 0.172221 0.172416 0.170299 0.183254
          0.17012 0.187598 0.165715 0.170312 0.163463 0.166042 0.176722 0.156091 0.172757 0.160901 0.159402 0.174256
          0.187566 0.177756 0.178444 0.182807 0.173243 0.189546 0.191684 0.193454 0.19307 0.188841 0.19066 0.186067
          0.181809 0.184492 0.182451 0.179731 0.178236 0.186744 0.179026 0.18167 0.193377 0.193861 0.19139 0.174386
          0.177731 0.175965 0.181865 0.189261 0.184937 0.176988 0.178487 0.178509 0.177054 0.17145 0.168577 0.167193
          0.168984 0.170528 0.173921 0.166692 0.173243 0.172722 0.178236 0.175304 0.177254 0.171736 0.175384 0.163085
          0.171273 0.158187 0.155402 0.157539 0.162172 0.15923 0.159149 0.166337 0.162281 0.165257 0.165509 0.163098
          0.165739 0.161479 0.157762 0.161636 0.156966 0.164738 0.165065 0.162208 0.169636 0.164476 0.169731 0.157731
          0.154318 0.162868 0.159646 0.158166 0.165302 0.178284 0.169155 0.177861 0.173436 0.177044 0.169577 0.16299
          0.164005 0.153676 0.15878 0.169055 0.163421 0.152891 0.153936 0.154436 0.153182 0.150576 0.152479 0.150411
          0.153357 0.156127 0.154769 0.164162 0.156552 0.154782 0.167596 0.156971 0.156324 0.150065 0.156832 0.156461
          0.167828 0.164813 0.152684 0.164884 0.148914 0.148382 0.14596 0.147127 0.147445 0.151943 0.148414 0.16011
          0.161151 0.149497 0.149993 0.161276 0.152499 0.151576 0.157344 0.160635 0.155075 0.161944 0.169855 0.161805
          0.164823 0.162127 0.158967 0.157333 0.15668 0.157692 0.15765 0.169184 0.157483 0.155657 0.163582 0.151658
          0.153607 0.162141 0.151145 0.152512 0.161068 0.156088 0.157289 0.156077 0.166634 0.165998 0.168645 0.16953
          0.167855 0.176375 0.153523 0.162459 0.152169 0.152269 0.165004 0.165991 0.170595 0.167103 0.171152 0.163102
          0.165982 0.162606 0.167744 0.168054 0.150752 0.1497 0.149965 0.147204 0.147859 0.148666 0.151699 0.161885
          0.160338 0.157046 0.150037 0.149539 0.155952 0.158607 0.152084 0.151409 0.14781 0.148845 0.159907 0.154588
          0.161717 0.146481 0.173544 0.169892 0.161983 0.156913 0.161322 0.16422 0.174911 0.178371 0.178929 0.166813
          0.173251 0.166151 0.165229 0.164093 0.174309 0.175744 0.164112 0.162369 0.171485 0.162436 0.159118 0.170918
          0.175959 0.181745 0.17986 0.177895 0.177188 0.176629 0.177138 0.170917 0.176976 0.17854 0.178717 0.177405
          0.161618 0.162236 0.159907 0.164874 0.172944 0.161498 0.161825 0.161034 0.159241 0.171911 0.175984 0.172462
          0.174281 0.168462 0.175691 0.168939 0.173208 0.172533 0.189795 0.185358 0.170717 0.171969 0.180878 0.167344
          0.1647 0.169608 0.167009 0.178472 0.17399 0.18626 0.182429 0.176399 0.179257 0.194071 0.192475 0.19411
          0.185225 0.192005 0.193893 0.186259 0.1933 0.193961 0.190895 0.186782 0.169527 0.154999 0.17044 0.14977
          0.158991 0.166027 0.161197 0.173816 0.16785 0.17357 0.175675 0.168236 0.162891 0.166896 0.167819 0.16376
          0.1742 0.160835 0.147634 0.156132 0.159629 0.153928 0.156585 0.16177 0.147823 0.148469 0.146364 0.144571
          0.143957 0.147767 0.148332 0.149097 0.148384 0.148362 0.149164 0.148032 0.147287 0.168315 0.152257 0.167292
          0.153976 0.164974 0.163315 0.152886 0.16109 0.167167 0.150325 0.151261 0.151383 0.148703 0.153291 0.15564
          0.164357 0.160496 0.161391 0.158096 0.151432 0.151288 0.163926 0.16386 0.159735 0.150128 0.162248 0.153437
          0.147752 0.149654 0.150719 0.150676 0.162187 0.166585 0.151831 0.153527 0.154981 0.158115 0.154225 0.158389
          0.15386 0.151688 0.151927 0.156642 0.15284 0.154232 0.153319 0.156872 0.157567 0.160548 0.156939 0.161069
          0.1559 0.153236 0.153747 0.153332 0.152255 0.164755 0.161268 0.150488 0.154127 0.164106 0.155222 0.163484
          0.16197 0.153156 0.167452 0.167534 0.17876 0.176416 0.178018 0.169294 0.172118 0.168669 0.17363 0.178725
          0.175561 0.171403 0.170732 0.173357 0.1747 0.158323 0.158845 0.155559 0.167586 0.159041 0.170735 0.159154
          0.161292 0.162556 0.159061 0.161832 0.160673 0.155389 0.166728 0.156765 0.16149 0.154543 0.172132 0.1681
          0.171111 0.175009 0.173564 0.174306 0.17326 0.1766 0.161266 0.171267 0.175565 0.180885 0.180866 0.176547
          0.171493 0.166826 0.165216 0.156444 0.156592 0.167642 0.15273 0.156148 0.159706 0.159261 0.156888 0.158153
          0.161316 0.163797 0.155599 0.169272 0.155969 0.157245 0.169359 0.170239 0.172561 0.174151 0.172332 0.173386
          0.173991 0.170523 0.174424 0.181477 0.172661 0.175795 0.181822 0.179713 0.177368 0.179497 0.177114 0.16192
          0.161021 0.169033 0.154743 0.158524 0.158816 0.159505 0.171423 0.172428 0.174303 0.174292 0.174518 0.175155
          0.175402 0.175793 0.175995 0.176898 0.176622 0.175978 0.17323 0.173642 0.173224 0.172759 0.17373 0.170192
          0.172922 0.16825 0.1727 0.170084 0.169638 0.16957 0.170263 0.167821 0.171575 0.171257 0.171587 0.167001
          0.168555 0.16997 0.171652 0.169537 0.166323 0.166908 0.166682 0.16849 0.169339 0.162343 0.167701 0.171486
          0.169054 0.164607 0.165419 0.16666 0.167552 0.156019 0.155932 0.155822 0.166332 0.156525 0.15526 0.165847
          0.155579 0.163128 0.160776 0.15541 0.154788 0.154482 0.15393 0.154378 0.154136 0.155264 0.153119 0.164295
          0.158165 0.1597 0.151901 0.153337 0.153253 0.151706 0.150146 0.15032 0.17342 0.170608 0.174859 0.172208
          0.167309 0.171805 0.172008 0.166914 0.168857 0.16579 0.167796 0.163226 0.164686 0.171216 0.165435 0.155227
          0.154569 0.166013 0.160422 0.162354 0.154696 0.154206 0.153933 0.153441 0.153756 0.15476 0.1548 0.152968
          0.159378 0.15079 0.151131 0.14966 0.150543 0.147612 0.15081 0.149593 0.150059 0.159259 0.149354 0.157399
          0.151136 0.164729 0.162073 0.163354 0.169826 0.170232 0.174945 0.169342 0.166827 0.173149 0.17066 0.166765
          0.17161 0.166037 0.16891 0.169951 0.164144 0.166035 0.164449 0.155034 0.165987 0.153855 0.155879 0.153007
          0.154225 0.153299 0.153859 0.153079 0.161487 0.159902 0.153987 0.153392 0.1496 0.150932 0.150049 0.15016
          0.14923 0.150618 0.160404 0.150152 0.149405 0.159219 0.147286 0.151077 0.173963 0.169431 0.163846 0.163166
          0.166242 0.156433 0.159908 0.167267 0.168257 0.166594 0.163818 0.16802 0.163246 0.161195 0.165471 0.164321
          0.166077 0.161931 0.159359 0.162794 0.16509 0.164808 0.161473 0.167468 0.164224 0.161924 0.162933 0.151658
          0.15459 0.154039 0.153601 0.153079 0.148536 0.151987 0.149 0.151902 0.150564 0.14997 0.152278 0.150978
          0.149817 0.151381 0.150109 0.151792 0.150822 0.15003 0.151149 0.148584 0.151607 0.152734 0.152138 0.152933
          0.159088 0.150178 0.149869 0.159774 0.156629 0.15644 0.149284 0.148094 0.14872 0.147504 0.1477 0.14883
          0.153129 0.145644 0.144633 0.152693 0.157719 0.148458 0.158974 0.15765 0.157575 0.160424 0.162137 0.146638
          0.15013 0.153476 0.161491 0.149974 0.148354 0.146116 0.154136 0.148676 0.159779 0.159964 0.158785 0.162299
          0.147574 0.14476 0.154956 0.161887 0.162024 0.147294 0.15697 0.150192 0.147741 0.147203 0.148052 0.148307
          0.151383 0.1496 0.150301 0.150327 0.148898 0.148893 0.149995 0.148861 0.146426 0.148028 0.143723 0.147102
          0.144788 0.148295 0.14854 0.146606 0.146902 0.148665 0.17103 0.172122 0.170363 0.172206 0.167384 0.172037
          0.172953 0.173949 0.173551 0.171968 0.168483 0.174037 0.170273 0.171909 0.16239 0.160596 0.165092 0.174945
          0.174914 0.175024 0.174361 0.173221 0.174442 0.174019 0.171501 0.17007 0.166351 0.170589 0.167361 0.166834
          0.172386 0.172682 0.170035 0.161793 0.159827 0.162641 0.151201 0.14819 0.149394 0.161165 0.161472 0.148913
          0.163624 0.159921 0.167143 0.16082 0.168498 0.173427 0.171536 0.173477 0.171471 0.164802 0.162677 0.166859
          0.168889 0.164137 0.170085 0.168582 0.16348 0.149856 0.149857 0.164027 0.157741 0.161953 0.162826 0.172276
          0.172645 0.170213 0.155406 0.161693 0.159894 0.165284 0.174018 0.167836 0.16519 0.174177 0.173597 0.169307
          0.165551 0.149125 0.14899 0.148432 0.151354 0.152103 0.148557 0.148576 0.148176 0.150683 0.158108 0.162924
          0.158955 0.14629 0.149396 0.147423 0.148519 0.163995 0.146784 0.14941 0.150812 0.146238 0.147166 0.155931
          0.14646 0.14897 0.156581 0.145227 0.149468 0.159718 0.161297 0.148337 0.149679 0.148582 0.14853 0.146197
          0.15567 0.146024 0.149624 0.154994 0.146472 0.148093 0.143719 0.148053 0.15871 0.145737 0.147551 0.154263
          0.148334 0.156726 0.15677 0.16743 0.159661 0.160019 0.162664 0.144494 0.145836 0.147097 0.147882 0.147131
          0.146417 0.144087 0.14298 0.143536 0.143432 0.141999 0.146327 0.147141 0.143693 0.14363 0.143491 0.148549
          0.144902 0.148678 0.146979 0.14516 0.145306 0.146616 0.161765 0.157905 0.160554 0.159611 0.161354 0.156207
          0.156456 0.149516 0.147786 0.148999 0.159127 0.161325 0.159984 0.158673 0.14984 0.147176 0.149026 0.155851
          0.159212 0.160332 0.165241 0.15949 0.165166 0.147584 0.145793 0.157529 0.149266 0.148059 0.160756 0.158973
          0.155476 0.162481 0.147423 0.159018 0.153481 0.154427 0.149653 0.1572 0.148358 0.146973 0.14745 0.148218
          0.145914 0.14885 0.149198 0.148711 0.153343 0.154152 0.152869 0.147423 0.147728 0.147883 0.146677 0.151663
          0.14627 0.147233 0.147311 0.151598 0.146027 0.146018 0.147524 0.15298 0.145674 0.146589 0.14642 0.149832
          0.146573 0.146485 0.146371 0.153128 0.146519 0.146314 0.148093 0.176184 0.177747 0.175467 0.1746 0.176351
          0.16707 0.171185 0.180773 0.179345 0.178853 0.177451 0.176912 0.167325 0.163379 0.169293 0.164747 0.163074
          0.166742 0.160549 0.171365 0.172517 0.152063 0.151714 0.161067 0.150809 0.151679 0.150691 0.147688 0.147478
          0.149759 0.163945 0.150397 0.150171 0.149896 0.150892 0.161519 0.15228 0.159966 0.149292 0.151836 0.162641
          0.162565 0.168909 0.166054 0.16701 0.166083 0.162643 0.168416 0.163805 0.149063 0.159759 0.15734 0.163664
          0.167766 0.151737 0.148902 0.148669 0.161366 0.150293 0.148212 0.14727 0.158128 0.151247 0.161771 0.152057
          0.150946 0.149116 0.148094 0.145786 0.151245 0.151077 0.166356 0.148931 0.150857 0.163784 0.151674 0.14815
          0.172936 0.165707 0.171142 0.176153 0.17182 0.173061 0.175864 0.175873 0.173322 0.175906 0.166368 0.173741
          0.174199 0.174908 0.172077 0.176734 0.174853 0.170668 0.163535 0.171786 0.175328 0.178578 0.178295 0.176447
          0.177234 0.178302 0.1776 0.176916 0.176384 0.161316 0.167637 0.160929 0.158744 0.16389 0.158923 0.146398
          0.15803 0.161484 0.169486 0.167157 0.172449 0.148732 0.147389 0.147957 0.14841 0.147058 0.160716 0.150639
          0.150084 0.147725 0.148394 0.150695 0.164709 0.151077 0.159707 0.165198 0.147163 0.146075 0.150534 0.161103
          0.1474 0.147003 0.160572 0.157323 0.1496 0.162809 0.149576 0.167484 0.164807 0.171333 0.169739 0.163161
          0.161129 0.159418 0.165053 0.164654 0.156372 0.149734 0.154186 0.153918 0.158277 0.160021 0.165924 0.163008
          0.16775 0.17333 0.149185 0.148631 0.146269 0.150589 0.147282 0.149742 0.148271 0.150658 0.162942 0.160939
          0.147348 0.147919 0.147774 0.14635 0.146449 0.151957 0.147147 0.146326 0.146345 0.14631 0.147142 0.153483
          0.155037 0.146842 0.146377 0.159116 0.162629 0.148054 0.152649 0.146435 0.146125 0.147574 0.154718 0.150165
          0.157803 0.146111 0.147901 0.152484 0.152822 0.146371 0.163725 0.170865 0.166516 0.159722 0.175989 0.174975
          0.172768 0.175922 0.17547 0.176955 0.17436 0.169466 0.17696 0.175223 0.173507 0.16213 0.168013 0.160829
          0.163738 0.166367 0.150413 0.152404 0.161961 0.14755 0.148356 0.151258 0.159999 0.147196 0.145864 0.157142
          0.148389 0.150513 0.150632 0.149699 0.16288 0.149223 0.150964 0.148556 0.148773 0.147976 0.163129 0.151401
          0.150975 0.168458 0.171545 0.164348 0.160656 0.166317 0.165985 0.170777 0.163001 0.161671 0.168667 0.158789
          0.165583 0.16642 0.16223 0.151451 0.147929 0.152205 0.149328 0.151293 0.150003 0.164465 0.149905 0.151128
          0.158746 0.151846 0.151006 0.163304 0.148741 0.147893 0.147998 0.161052 0.157648 0.148626 0.152383 0.153119
          0.165694 0.172173 0.170612 0.169112 0.165415 0.171697 0.164962 0.164261 0.178964 0.176769 0.179107 0.177173
          0.178274 0.176398 0.175274 0.175892 0.172706 0.173731 0.175927 0.174737 0.173714 0.169704 0.172716 0.176952
          0.175485 0.172635 0.149844 0.160222 0.157864 0.15875 0.16615 0.159509 0.158095 0.167931 0.1608 0.149067
          0.148548 0.148152 0.148545 0.164319 0.150404 0.149357 0.148108 0.159529 0.15072 0.149634 0.162293 0.148223
          0.147428 0.149801 0.150477 0.148839 0.163351 0.164746 0.149818 0.149452 0.149085 0.148064 0.159516 0.1481
          0.171484 0.167032 0.169012 0.160463 0.172544 0.170218 0.149272 0.162645 0.147924 0.163367 0.160294 0.166154
          0.147685 0.159088 0.154637 0.166546 0.160169 0.147479 0.14817 0.160454 0.150556 0.147982 0.146882 0.149256
          0.148284 0.16205 0.158484 0.146766 0.14831 0.148574 0.152586 0.146496 0.146582 0.148782 0.153511 0.155389
          0.147305 0.146912 0.146719 0.160318 0.148993 0.153314 0.146469 0.145868 0.156355 0.151918 0.147569 0.162399
          0.148894 0.149738 0.14604 0.153701 0.147883 0.146935 0.154963 0.147205 0.149698 0.15442 0.146996 0.160189
          0.165947 0.165523 0.172884 0.168103 0.157501 0.162993 0.170814 0.178338 0.178217 0.176302 0.177794 0.177118
          0.178131 0.17593 0.175785 0.1744 0.176085 0.175743 0.144072 0.143476 0.145635 0.151272 0.148614 0.151091
          0.146888 0.150493 0.148678 0.152837 0.151715 0.164658 0.151891 0.162642 0.150818 0.150533 0.151935 0.148002
          0.149469 0.159037 0.148587 0.151902 0.149819 0.164698 0.162658 0.161338 0.150963 0.163831 0.16655 0.162019
          0.153262 0.16437 0.169502 0.168261 0.169943 0.152451 0.163472 0.16111 0.16784 0.172553 0.174402 0.148464
          0.16267 0.149121 0.16417 0.14931 0.150971 0.159574 0.15952 0.166643 0.162642 0.152099 0.160544 0.151952
          0.147701 0.151338 0.159976 0.165375 0.16304 0.166868 0.168951 0.169298 0.174264 0.175838 0.177535 0.17534
          0.176698 0.177733 0.178075 0.178938 0.179345 0.150478 0.151762 0.162975 0.149554 0.147781 0.161071 0.148476
          0.16598 0.15108 0.148758 0.151802 0.159912 0.150191 0.147959 0.163165 0.149493 0.161368 0.165437 0.16672
          0.161092 0.169539 0.169696 0.172284 0.17507 0.150302 0.150491 0.166273 0.160728 0.147054 0.147678 0.157715
          0.148859 0.150002 0.158304 0.162474 0.150115 0.151054 0.149681 0.148753 0.150262 0.146153 0.145838 0.152809
          0.146005 0.153083 0.147781 0.146815 0.147119 0.152519 0.156572 0.162089 0.166226 0.149093 0.153134 0.146676
          0.154621 0.150304 0.146612 0.153997 0.14691 0.15437 0.160242 0.161819 0.168528 0.167857 0.166746 0.174644
          0.165674 0.174179 0.172675 0.177378 0.176344 0.176546 0.176208 0.176556 0.177703 0.177513 0.176521 0.176004
          0.176943 0.17902 0.179358 0.178746 0.1775 0.178254
        </DataArray>
        <DataArray type="Float32" Name="S_gas" NumberOfComponents="1" format="ascii">
          0.805863 0.805388 0.805411 0.805548 0.805866 0.806791 0.808644 0.807282 0.807855 0.809645 0.810417 0.811036
          0.809919 0.812851 0.814815 0.810907 0.814537 0.805077 0.806902 0.808381 0.805745 0.806429 0.811117 0.809237
          0.817992 0.814859 0.805589 0.8086 0.811089 0.80624 0.817994 0.811751 0.815923 0.81386 0.819987 0.806561
          0.806603 0.812073 0.80902 0.811913 0.816813 0.815665 0.819852 0.813196 0.817322 0.821407 0.823683 0.822843
          0.821575 0.81506 0.816872 0.823596 0.821556 0.825287 0.827112 0.81493 0.819763 0.813077 0.82671 0.828405
          0.828617 0.826487 0.817747 0.824668 0.828176 0.827269 0.830001 0.832172 0.821606 0.829174 0.831852 0.835046
          0.830126 0.839226 0.832102 0.834977 0.835725 0.842015 0.841432 0.828823 0.814339 0.81315 0.815466 0.818408
          0.818671 0.818239 0.817452 0.820557 0.820213 0.822332 0.821634 0.814596 0.815865 0.81969 0.818738 0.823469
          0.81991 0.826144 0.823763 0.819385 0.82138 0.819267 0.82092 0.824335 0.827977 0.826763 0.824799 0.828581
          0.823678 0.822643 0.825729 0.828152 0.82899 0.824085 0.823946 0.826935 0.828335 0.827278 0.827393 0.828524
          0.834385 0.831245 0.830657 0.829466 0.831565 0.834805 0.837367 0.830317 0.835082 0.838805 0.835505 0.842436
          0.832665 0.842146 0.840214 0.842316 0.843205 0.844599 0.841582 0.843253 0.842503 0.845811 0.845352 0.846056
          0.844024 0.832481 0.845293 0.846892 0.850117 0.848373 0.852107 0.844987 0.831207 0.828334 0.831242 0.828765
          0.825071 0.832891 0.82954 0.834663 0.830627 0.8346 0.833858 0.833437 0.837691 0.831759 0.835992 0.832212
          0.832258 0.838419 0.838859 0.835312 0.834457 0.835687 0.849333 0.843549 0.844488 0.848412 0.847048 0.846475
          0.844409 0.846403 0.846471 0.85197 0.847026 0.849038 0.846588 0.84614 0.848951 0.847874 0.849566 0.846519
          0.839806 0.849984 0.847836 0.847427 0.838556 0.805166 0.806656 0.804677 0.805584 0.807974 0.80874 0.811222
          0.809479 0.812495 0.811646 0.805513 0.805164 0.804936 0.806571 0.807168 0.809556 0.812624 0.808229 0.806081
          0.811818 0.816485 0.816567 0.822824 0.812779 0.815843 0.81568 0.816276 0.817619 0.829335 0.828747 0.827501
          0.829503 0.822065 0.835322 0.836502 0.835288 0.833432 0.828999 0.819265 0.834489 0.826221 0.840741 0.838006
          0.832027 0.820086 0.819326 0.813669 0.805241 0.807166 0.809456 0.807263 0.816164 0.816559 0.819598 0.82255
          0.819529 0.824119 0.812116 0.815083 0.819037 0.816633 0.81782 0.821484 0.830839 0.829005 0.822223 0.823654
          0.827465 0.833607 0.821511 0.84312 0.829066 0.8388 0.844873 0.843188 0.827195 0.823742 0.833511 0.84586
          0.828697 0.833466 0.836281 0.842906 0.84685 0.843186 0.84831 0.830476 0.836422 0.82559 0.826906 0.828526
          0.832276 0.834186 0.832584 0.828675 0.83458 0.831782 0.846861 0.839606 0.846662 0.837396 0.847218 0.84661
          0.850792 0.845106 0.833231 0.83788 0.849942 0.846583 0.847089 0.838505 0.836271 0.850424 0.853084 0.850533
          0.849675 0.848805 0.840953 0.839531 0.836403 0.825085 0.832606 0.832424 0.831849 0.820834 0.821869 0.825451
          0.82364 0.827951 0.808954 0.806493 0.812649 0.81335 0.819525 0.825672 0.823513 0.825925 0.818915 0.819398
          0.816566 0.821461 0.826351 0.810862 0.808917 0.806188 0.817266 0.821034 0.827779 0.827584 0.829701 0.816746
          0.82988 0.812402 0.834285 0.829688 0.836537 0.833958 0.823278 0.843909 0.827242 0.839099 0.840598 0.825744
          0.812434 0.822244 0.821556 0.817193 0.826757 0.810454 0.808316 0.806546 0.80693 0.811159 0.80934 0.813933
          0.818191 0.815508 0.817549 0.820269 0.821764 0.813256 0.820974 0.81833 0.806623 0.806139 0.80861 0.825614
          0.822269 0.824035 0.818135 0.810739 0.815063 0.823012 0.821513 0.821491 0.822946 0.82855 0.831423 0.832807
          0.831016 0.829472 0.826079 0.833308 0.826757 0.827278 0.821764 0.824696 0.822746 0.828264 0.824616 0.836915
          0.828727 0.841813 0.844598 0.842461 0.837828 0.84077 0.840851 0.833663 0.837719 0.834743 0.834491 0.836902
          0.834261 0.838521 0.842238 0.838364 0.843034 0.835262 0.834935 0.837792 0.830364 0.835524 0.830269 0.842269
          0.845682 0.837132 0.840354 0.841834 0.834698 0.821716 0.830845 0.822139 0.826564 0.822956 0.830423 0.83701
          0.835995 0.846324 0.84122 0.830945 0.836579 0.847109 0.846064 0.845564 0.846818 0.849424 0.847521 0.849589
          0.846643 0.843873 0.845231 0.835838 0.843448 0.845218 0.832404 0.843029 0.843676 0.849935 0.843168 0.843539
          0.832172 0.835187 0.847316 0.835116 0.851086 0.851618 0.85404 0.852873 0.852555 0.848057 0.851586 0.83989
          0.838849 0.850503 0.850007 0.838724 0.847501 0.848424 0.842656 0.839365 0.844925 0.838056 0.830145 0.838195
          0.835177 0.837873 0.841033 0.842667 0.843319 0.842308 0.84235 0.830816 0.842517 0.844343 0.836418 0.848342
          0.846393 0.837859 0.848855 0.847488 0.838932 0.843912 0.842711 0.843923 0.833366 0.834002 0.831355 0.83047
          0.832145 0.823625 0.846477 0.837541 0.847831 0.847731 0.834996 0.834009 0.829405 0.832897 0.828848 0.836897
          0.834018 0.837394 0.832256 0.831946 0.849248 0.8503 0.850035 0.852796 0.852141 0.851334 0.848301 0.838115
          0.839662 0.842954 0.849963 0.850461 0.844048 0.841393 0.847916 0.848591 0.85219 0.851155 0.840093 0.845412
          0.838283 0.853519 0.826456 0.830108 0.838017 0.843087 0.838678 0.83578 0.825089 0.821629 0.821071 0.833187
          0.826749 0.833849 0.834771 0.835907 0.825691 0.824256 0.835888 0.837631 0.828515 0.837564 0.840882 0.829082
          0.824041 0.818255 0.82014 0.822105 0.822812 0.823371 0.822861 0.829083 0.823024 0.82146 0.821283 0.822595
          0.838382 0.837764 0.840092 0.835126 0.827056 0.838502 0.838175 0.838966 0.840759 0.828089 0.824016 0.827538
          0.825719 0.831538 0.824309 0.831061 0.826792 0.827467 0.810205 0.814642 0.829283 0.828031 0.819122 0.832656
          0.8353 0.830392 0.832991 0.821528 0.82601 0.81374 0.817571 0.823601 0.820743 0.805929 0.807525 0.80589
          0.814775 0.807995 0.806107 0.813741 0.8067 0.806039 0.809105 0.813218 0.830473 0.845001 0.82956 0.85023
          0.841009 0.833973 0.838803 0.826184 0.83215 0.82643 0.824325 0.831764 0.837109 0.833104 0.832181 0.83624
          0.8258 0.839165 0.852366 0.843868 0.840371 0.846072 0.843415 0.83823 0.852177 0.851531 0.853636 0.855429
          0.856043 0.852233 0.851668 0.850904 0.851616 0.851638 0.850836 0.851968 0.852713 0.831685 0.847743 0.832708
          0.846024 0.835026 0.836685 0.847114 0.83891 0.832833 0.849675 0.848739 0.848617 0.851297 0.846709 0.84436
          0.835643 0.839504 0.838609 0.841904 0.848568 0.848712 0.836074 0.83614 0.840265 0.849872 0.837752 0.846563
          0.852248 0.850346 0.849281 0.849324 0.837813 0.833415 0.848169 0.846473 0.845019 0.841885 0.845775 0.841611
          0.846141 0.848312 0.848073 0.843358 0.84716 0.845768 0.846681 0.843128 0.842433 0.839452 0.843061 0.838931
          0.8441 0.846764 0.846253 0.846668 0.847745 0.835245 0.838732 0.849512 0.845873 0.835894 0.844778 0.836516
          0.83803 0.846844 0.832548 0.832466 0.82124 0.823584 0.821982 0.830706 0.827882 0.831331 0.82637 0.821275
          0.824439 0.828597 0.829268 0.826643 0.8253 0.841677 0.841155 0.844441 0.832413 0.840959 0.829265 0.840846
          0.838708 0.837444 0.840939 0.838168 0.839327 0.844611 0.833272 0.843235 0.83851 0.845457 0.827868 0.8319
          0.828889 0.824991 0.826436 0.825694 0.82674 0.8234 0.838734 0.828733 0.824435 0.819115 0.819134 0.823453
          0.828507 0.833174 0.834784 0.843556 0.843408 0.832358 0.84727 0.843852 0.840294 0.840739 0.843112 0.841847
          0.838684 0.836203 0.844401 0.830728 0.844032 0.842755 0.830641 0.829761 0.827439 0.825849 0.827668 0.826614
          0.826009 0.829477 0.825576 0.818523 0.827339 0.824205 0.818178 0.820287 0.822632 0.820503 0.822886 0.83808
          0.838979 0.830967 0.845257 0.841476 0.841184 0.840495 0.828577 0.827572 0.825697 0.825708 0.825482 0.824845
          0.824598 0.824207 0.824005 0.823102 0.823378 0.824022 0.82677 0.826358 0.826776 0.827241 0.82627 0.829808
          0.827078 0.83175 0.8273 0.829916 0.830362 0.83043 0.829737 0.832179 0.828425 0.828743 0.828413 0.832999
          0.831445 0.83003 0.828348 0.830463 0.833677 0.833092 0.833318 0.83151 0.830661 0.837657 0.832299 0.828514
          0.830946 0.835393 0.834581 0.83334 0.832448 0.843981 0.844068 0.844178 0.833668 0.843475 0.84474 0.834153
          0.844421 0.836872 0.839224 0.84459 0.845212 0.845518 0.84607 0.845622 0.845864 0.844736 0.846881 0.835705
          0.841835 0.8403 0.848099 0.846663 0.846747 0.848294 0.849854 0.84968 0.82658 0.829392 0.825141 0.827792
          0.832691 0.828195 0.827992 0.833086 0.831143 0.83421 0.832204 0.836774 0.835314 0.828784 0.834565 0.844773
          0.845431 0.833987 0.839578 0.837646 0.845304 0.845794 0.846067 0.846559 0.846244 0.84524 0.8452 0.847032
          0.840622 0.84921 0.848869 0.85034 0.849457 0.852388 0.84919 0.850407 0.849941 0.840741 0.850646 0.842601
          0.848864 0.835271 0.837927 0.836646 0.830174 0.829768 0.825055 0.830658 0.833173 0.826851 0.82934 0.833235
          0.82839 0.833963 0.83109 0.830049 0.835856 0.833965 0.835551 0.844966 0.834013 0.846145 0.844121 0.846993
          0.845775 0.846701 0.846141 0.846921 0.838513 0.840098 0.846013 0.846608 0.8504 0.849068 0.84995 0.84984
          0.85077 0.849382 0.839596 0.849848 0.850595 0.840781 0.852714 0.848923 0.826037 0.830569 0.836154 0.836834
          0.833758 0.843567 0.840092 0.832733 0.831743 0.833406 0.836182 0.83198 0.836754 0.838805 0.834529 0.835679
          0.833923 0.838069 0.840641 0.837206 0.834909 0.835192 0.838527 0.832532 0.835776 0.838076 0.837067 0.848342
          0.84541 0.845961 0.846399 0.846921 0.851464 0.848013 0.851 0.848098 0.849436 0.85003 0.847722 0.849022
          0.850183 0.848619 0.849891 0.848208 0.849178 0.84997 0.848851 0.851416 0.848393 0.847266 0.847862 0.847067
          0.840912 0.849822 0.850131 0.840226 0.843371 0.84356 0.850716 0.851906 0.85128 0.852496 0.8523 0.85117
          0.846871 0.854356 0.855367 0.847306 0.842281 0.851542 0.841026 0.84235 0.842425 0.839576 0.837863 0.853362
          0.84987 0.846524 0.838509 0.850026 0.851646 0.853884 0.845864 0.851324 0.840221 0.840036 0.841215 0.837701
          0.852426 0.85524 0.845044 0.838113 0.837976 0.852706 0.84303 0.849808 0.852259 0.852797 0.851948 0.851693
          0.848617 0.8504 0.849699 0.849673 0.851102 0.851107 0.850005 0.851139 0.853574 0.851972 0.856277 0.852898
          0.855212 0.851705 0.85146 0.853394 0.853098 0.851335 0.82897 0.827878 0.829637 0.827794 0.832616 0.827963
          0.827047 0.826051 0.826449 0.828032 0.831517 0.825963 0.829727 0.828091 0.83761 0.839404 0.834908 0.825055
          0.825086 0.824976 0.825639 0.826779 0.825558 0.825981 0.828499 0.82993 0.833649 0.829411 0.832639 0.833166
          0.827614 0.827318 0.829965 0.838207 0.840173 0.837359 0.848799 0.85181 0.850606 0.838835 0.838528 0.851087