<?xml version="1.0"?>
<VTKFile type="UnstructuredGrid" version="0.1" byte_order="LittleEndian">
  <UnstructuredGrid>
    <Piece NumberOfCells="494" NumberOfPoints="162">
      <PointData Vectors="d">
        <DataArray type="Float64" Name="d" NumberOfComponents="3" format="ascii">
          -3.73060422622148 -3.62597998816407 0 -3.9364061612577 -3.85446397077052 0 -3.76256493181217 -3.6094579877143 0.134882555178621 -3.6724779905012 -3.6493074273902 0.163462219508513
          -3.80467053157586 -3.85634081198032 0 -3.52517772912926 -3.94579205569266 -0.153007051000916 -3.91904692003317 -3.71863083199433 0 -4.4891269571462 -3.66896981793097 0
          -3.8107151401327 -3.6415927827095 -0.473645401959642 -3.44623967729455 -3.40281646999046 0.540673864837092 -3.26204620113078 -3.3217002671306 0.190877380160016 -3.64267161420276 -4.49907796255505 0
          -3.32749852269149 -4.56758944846314 0 -2.58161560886143 -5.1093635211133 -0.712107305342467 -4.13385498710117 -3.37374660806056 -0.0348348645430711 -4.65901737704316 -3.256052110502 0
          -5.24290371026822 -2.51438333973385 -0.609938897064293 -5.38541025272219 -2.42202940217772 -1.79613633185157 -4.08354193164552 -4.20963161964931 -1.84416744737378 -4.13102431844788 -4.13869630293774 0
          -1.94509862125069 -5.59631496892518 -1.47960107197331 -3.39341984814145 -3.20083675517836 0.230614681968167 -2.70906353803063 -2.59986519206778 1.12957808540669 -2.35153881015487 -2.28955057676661 0.468131742748098
          -3.19975656252517 -3.29023506425899 -1.25099899180538 -2.67215629948531 -3.53386844977146 -0.483646340995246 -2.01651258434281 -5.06619196864874 -2.79889438163477 -3.41569989128946 -2.72904689535649 -0.376143931567923
          -4.44359611746455 -2.5405308539613 -0.638002095958618 -3.72862779895409 -3.78259722744223 -3.94752080670667 -3.58868327347965 -2.40216799085502 -2.36461227357254 -2.61760114317303 -5.36823471029886 0
          -1.79960593083417 -5.39955078160584 0 -1.28553016531756 -5.92866551411055 0 -1.29995952481551 -5.38614517396614 -0.530106763051217 0 -5.63384358616593 0
          0 -6.03735155141499 -0.795043660513231 0 -6.07104785773353 0 0 -6.06982381689366 -1.39232956154129 0 -5.4894888462522 -0.930546153456559
          0 -5.96944575691677 -2.33199598886988 -1.22391550578446 -5.81366858369059 0 -3.00795643853951 -5.0031317670408 -1.60489525564118 -2.40471731594391 -5.10826343853631 0
          0 -5.61722055804998 0 -1.48037868545513 -5.457511972956 -1.68290272566959 -2.16293512981039 -5.11574048066028 -4.18961865612259 0 -5.69808056485382 -3.06829469416442
          -1.21352975815623 -4.88894083623395 -1.14865025776752 -1.91883092166968 -4.15282131599544 -1.07208682259551 -1.0205220328193 -3.88524554599671 -1.54327439252996 0 -4.77499878565211 -1.36290069846359
          0 -5.47980100869851 -5.91902765289285 -5.35374360353519 -2.53844224987087 0 -5.2343157532375 -1.81455045069259 0 -5.96941250888235 -1.2075831064755 0
          -5.49952270325339 -1.35015636130594 -0.404372518468329 -4.97443048372197 -3.04991788917008 -1.5312159834112 -5.90829003432026 -1.25007601922132 0 -5.15813630606771 -2.48165821118172 0
          -5.06143202486231 -2.06432886455174 -4.30089151792539 -5.48652346223638 -1.54842351455413 -1.78723123107806 -5.66071078271845 0 0 -6.11565918308408 0 -0.758201219131035
          -6.14119436733698 0 0 -6.11982819643601 0 -1.23958083526953 -5.50090355262227 0 -0.753333555186118 -5.81527051932304 0 -2.24073346698016
          -5.67142849086497 0 0 -5.652306095754 0 -3.14599770585419 -4.50842742250045 -1.59283132642029 -1.02696524608024 -3.49060714672052 -2.00344983369783 -1.02467780731032
          -3.80811731243853 -1.02795642789038 -1.67043865503961 -4.74253734719656 -2.34532495557673 -6.46371259874017 -4.94549104684303 0 -4.22761759669894 -4.78358540122081 0 -1.41749208228737
          -5.31819147481996 0 -5.89925948851304 -3.70635905469189 -3.68179740616111 0 -1.76162514426271 -4.51420041886362 0 -3.30135646482283 -3.28334134869101 -4.09129311834837
          0 -4.54775643482123 -2.38485041856664 -2.33554489113741 -2.36672367957183 0 0 -3.40242998546367 0 0 -2.6496145630351 -3.12089630534444
          0 -4.21635895124508 -7.00165726823729 -4.55140324198017 -1.48162665938592 0 -4.56741003017156 0 -2.42221808060182 -3.39339817727298 0 0
          -2.56814732003766 0 -3.20415027664126 -4.1698134816926 0 -7.07112809375158 0 0 0 0 0 -5.15768533989478
          -2.37466388275654 -4.81705164974901 -6.50800121808389 0 -3.31569043554794 -12.0579124878005 -2.92518215466636 -2.95623990048 -12.5831112839324 0 0 -10.4371485226963
          -2.28682920515815 -2.20773783383063 0.449833879224576 -1.48164880417653 -1.40573704390671 1.47071632773407 -1.18329110528742 -1.13683738681465 0.640222391230029 -1.18804757348032 -1.16096227696732 0.637505782864306
          -1.38962240429306 -1.61638730638498 -0.236836319360465 -1.75494523104477 -1.82408061298761 -1.03050672903813 -2.13194292713041 -3.22411767695008 -2.21863875902949 -1.35806573723536 -2.34500539420994 -1.14789108161251
          -1.65207381483487 -1.36245341820901 -0.28622351513704 -2.58809042851037 -2.70101563453238 -5.38669054780819 0 0 1.4205203827256 0 0 -0.613876828758619
          0 0 0.0726462931734853 0 0 -0.0142269454679908 0 0 -1.98551312412106 0 0 -1.16424825119906
          0 0 -1.9487211191084 -1.97225388911409 -0.972173904622551 -1.33563087497494 0 0 -1.01322213179136 0 0 -6.78461258908442
          -0.554181065717053 -2.02433837071031 -1.80310030045008 -1.01754567663513 -3.36534344264788 -3.69384265112158 0 -4.99670798325696 -4.1051101565021 0 -2.58080646926667 -1.78031039700178
          0 -2.4356993352664 -3.70987439158973 -1.58102724027737 -2.63100746158732 -7.45522202795092 0 -4.61823859939601 -8.50442890110574 0 -2.64970083925234 -6.42044077363935
          -1.08527928394704 -3.54504399524713 -8.63422579116103 0 0 -3.43419430454964 0 0 -2.07833847228143 0 0 -2.23835679306674
          0 0 -3.68254426756423 0 0 -6.0700804004873 0 0 -5.05366344097265 0 0 -10.1852052357616
          0 0 -11.7151403623996 -3.42474983792775 -1.05182732748115 -3.6976524225894 -2.75363966413032 -1.64907451727641 -7.45820769912526 -2.53324271548464 0 -1.81997692556684
          -2.31092993651049 0 -3.82053233237971 -4.63663115800991 0 -8.41467638957165 -3.60203533501242 -1.11210184448504 -8.6193510940558 -2.58925161981453 0 -6.24443995185488
          0 0 -4.22796368077123 0 0 -2.22848981909996 0 0 -4.03651201411907 0 0 -6.98668378020477
          0 0 -10.3680138742863 -1.89449790962445 -0.452389033371796 -1.86099555327759 0 0 -2.30248727238388 0 0 -5.09072299689378
          0 0 -11.6888031759479 0 -3.295245682741 -14.0190950383726 -3.48507084192986 0 -11.9955760935562 -3.26236642007296 0 -14.0512380614574
          0 -1.50363754098858 -17.0588988053893 0 0 -16.0388613939286 -1.57587347199743 0 -16.9433066857512 0 0 -14.3802251625582
          0 0 -14.9510694757725 0 0 -17.6758482422745 0 0 -16.6669317333477 0 0 -14.7601937870639
          0 0 -16.6741552891603 0 0 -19.2594438604864
        </DataArray>
      </PointData>
      <CellData Vectors="d">
        <DataArray type="Float64" Name="d" NumberOfComponents="3" format="ascii">
          -3.79419463072338 -3.70065814065948 0.0709900396698002 -3.79588404049548 -3.7624292240822 0.0343837396298012 -3.72337362760281 -3.83366435207051 0.00395116936724133 -3.86144573879621 -3.70219884584552 0.0209401301901011
          -4.04901736929437 -3.71454417478796 0.0232796112713445 -3.9905945852819 -3.69933628162632 -0.0621510551774263 -3.67178030451499 -3.58857840039595 0.21377085451181 -3.55316299017762 -3.50963835434505 0.259088252098024
          -3.72341112641678 -3.76540769683127 -0.0987170703674715 -3.61688197281548 -3.54119329761875 -0.000613240109029531 -3.7865127785387 -3.67669567476553 -0.0214890051630101 -3.72306998914408 -4.04985686079398 -0.0319059262626901
          -3.55315777579514 -4.24358106753584 -0.0386796594247691 -3.27752279946718 -4.56290735177503 -0.233127402597591 -3.72514588554181 -3.98413182008237 -0.13007150573162 -3.40276328381882 -4.30255245532663 -0.320412846336946
          -4.10234355518791 -3.58564004556664 0.0204153379307396 -4.34300773359985 -3.4977311693431 -0.0121350595072119 -4.66580240041487 -3.21060407809563 -0.16844869466299 -4.04574339284744 -3.56772681444871 -0.0587547437843306
          -4.47367975676468 -3.3089453098822 -0.541374917510125 -3.96506281329539 -3.92229021648257 -0.0919472179589842 -4.0018541219479 -4.01526134299568 -0.54295197465844 -4.07983481965123 -4.13480336175272 -0.439158885418268
          -3.39458565241988 -4.47531315293403 -0.928981607025489 -4.42195952779758 -3.51666637242989 -0.997439439038087 -3.47960893100864 -3.40149050556001 0.268393498305284 -3.54157548967576 -3.43187376777828 0.00717474340113637
          -3.22784980190359 -3.16099958332419 0.522411735464312 -2.94250196503638 -2.86945811164246 0.516114528566635 -3.04507352374678 -3.02656135893018 -0.0790514000497487 -3.40152878062712 -3.35307514128119 -0.348307991393422
          -3.55232754076149 -3.62680132162259 -0.0754444059147606 -3.30116842061606 -3.59769032684965 -0.239533285897764 -3.15885355138494 -4.05767392912286 -0.455470471615467 -3.22042719642878 -3.44202350807831 -0.519064856929254
          -2.81256502547322 -4.35886454062098 -1.12602432214799 -2.95077819452608 -3.90540441049634 -1.26636757945241 -3.7615022536134 -3.43813790009746 -0.0494882733226813 -3.67544887327997 -3.21719440843282 -0.175659209626251
          -4.45052277066734 -3.00578892121824 -0.731204693618122 -3.95079168615799 -3.07379457071894 -0.38656922176585 -4.23609768435977 -2.9997246593241 -1.05156316033706 -3.44838796920177 -3.19871373470559 -0.481707557186745
          -3.7222263295875 -3.05389239855336 -0.693583524962679 -3.29757960449342 -4.04646782371687 -1.61203209324459 -4.10954433412901 -3.41865283166032 -1.3630000163735 -4.0397730746037 -2.98981378238814 -2.32271302068526
          -4.12637600695517 -3.46709736034323 -2.26519304007716 -3.2812582811377 -4.12922664077785 -2.51500758041876 -3.0518982351798 -4.92211655107282 -0.196301944060604 -2.58100185091059 -5.16955626387007 -0.213401536858221
          -1.90695691285685 -5.61085931900918 -0.373422252434547 -1.88670181182811 -5.39956103298991 -0.699128740476346 -2.70217238775933 -5.14712216456491 -0.542323270767218 -3.01915477364076 -4.71702669629847 -0.643947413215571
          -2.21080181698824 -5.40551568416729 -0.564136572290031 -1.09865173875724 -5.61648016985813 -0.13021892262849 -1.5828647911697 -5.60212759208898 -0.504621207226225 -0.655135251805271 -5.78416363274634 -0.335951078795371
          -0.333331287516523 -5.95520216164475 -0.19931750134357 -0.338002998366183 -6.02960996838137 -0.528653345217072 -0.339779343883135 -5.6575534895905 -0.577104513022604 -0.344625962446219 -5.72788318134182 -1.13993631728313
          -1.14275176542047 -5.77808130678685 -0.705089766594379 -0.806253676193555 -5.90931273233366 -0.927029575587104 -0.813454954349295 -5.78337689605218 -1.27012930223335 -0.477859101310868 -5.91949614182538 -1.49045511977749
          -3.63288040928479 -4.55288557366987 -0.438509748105167 -2.16094707470891 -5.45983604238989 -0.787216202105257 -3.48758183658864 -4.68772497262709 -0.846478706990625 -2.29565304297243 -5.32330613328669 -0.417731159320338
          -3.03333335712812 -4.89621409246154 -0.428132685308759 -3.08522075007664 -4.9108123214751 -0.817165898738207 -2.9431821104531 -5.05650710320807 -1.2096084550439 -1.74500457710602 -5.6698512541337 -0.376285569603871
          -1.11494010762833 -5.84375171194071 -0.734362082455393 -0.649324625136432 -5.96071952725334 -0.335695833794441 -0.340914087997526 -5.89652104513892 -0.326534023390468 -1.29529745916549 -5.52143160822436 -0.429871470450668
          -2.02664015019495 -5.3535777232246 -0.841817845404348 -0.694898315313515 -5.77296481354043 -0.774861669914446 -1.16051039746819 -5.75437759741152 -1.16682181306511 -1.90599835421777 -5.48623378013152 -1.21216768509894
          -2.13977890868102 -5.29529492822403 -2.21576880787927 -0.382429208272574 -5.73632416516477 -1.53989116192281 -0.858626165361998 -5.72288855910281 -1.9237650733665 -2.61378326945916 -4.86192663156885 -1.38327451376295
          -1.89705515379861 -5.20983180359733 -1.52676184336758 -2.2842738150042 -4.50920914896677 -1.242050914922 -1.9021730565013 -4.85310641280277 -1.40990887880264 -1.72480324747061 -5.27992638567266 -0.945719750550419
          -1.11397046774301 -5.50969516490539 -1.3544255548061 -0.651386041851837 -5.44073766296237 -1.22653544733243 -1.05500805477992 -5.01863678238257 -1.96865708481208 -0.345269570302303 -5.28442565329313 -1.44716359269508
          -0.589181310844975 -4.8892300084459 -1.61055818535138 -1.28153092065337 -5.44889710986553 -1.93961380334108 -2.99083850575548 -4.62054320106589 -1.66797677701016 -2.81543027115629 -4.98243628039064 -2.24606978153548
          -2.56051181952559 -4.97677232110483 -2.59318462287937 -2.98480165011632 -4.56010100864775 -3.25688623659845 -0.478162016882145 -5.871394220652 -2.06895096457392 -1.03990026415357 -5.60811690074781 -2.72293991201512
          -1.42285483866807 -5.46128867388116 -2.59545483163785 -1.50722696341575 -5.42584832758287 -2.70697787568269 -1.04498319455533 -5.41982138941803 -3.84394339675386 -0.572688094101742 -5.59800312006554 -3.85440161374143
          -4.96315944933085 -2.99202223481312 -0.168823735603572 -5.13973546635967 -2.78169562531556 -0.602722115556524 -5.16626713781157 -2.51784995967593 -0.185821017916654 -5.47552610970702 -2.01317159012394 -0.172258853867945
          -5.51176942042037 -2.15549056927301 -0.607859069039925 -4.84297271448038 -3.00460042193701 -0.596436240184395 -5.54107545137474 -1.86440909187661 -0.710079161042399 -4.50943706065205 -3.6389167898156 -0.437581527335329
          -4.64612376162766 -3.50752040898853 -0.828491390661015 -5.65118037880387 -1.83241837615277 -0.454453581492624 -5.42314094396926 -2.28125198993747 -0.843139795699936 -4.9032498549151 -3.04980188282231 -0.40047640994969
          -5.35495516100242 -2.31316212127659 -0.391809126972571 -4.80370434575008 -3.21486349264256 -0.904617269750493 -4.9534050839352 -3.08885829195052 -1.28652206893902 -5.22083011509969 -2.26944223241047 -2.32475247012637
          -5.61785845519134 -1.1037340967929 -0.121324566293827 -5.51050685049795 -1.71819499504897 -0.275008485525547 -5.83234834921564 -0.64042127061555 -0.303199963763761 -5.98719354360025 -0.302162035505999 -0.200117204947593
          -6.10272102940397 -0.303168970320281 -0.51239686712899 -5.7663211242829 -1.24484669931214 -0.753971419194068 -5.71008657913277 -0.339091963656811 -0.489660618936995 -5.73757464942525 -0.343501572445376 -1.03279231475491
          -5.92426639407178 -0.913736466298999 -0.963146249870367 -5.8872638795753 -0.599276244017028 -1.48855773589959 -5.84166750373116 -1.23693998316482 -0.791827625397368 -5.58072815040629 -1.32912597728488 -0.462812190629538
          -5.39784749467066 -2.08481833926977 -0.845608797443291 -6.0326874456003 -0.623160619892429 -0.330922946269922 -5.97577304017235 -0.334518850757554 -0.330086155894075 -5.82008236483253 -0.718343928118142 -0.787195521128889
          -5.7493182636141 -1.3225599721945 -1.24757735711557 -5.46100653658347 -2.06795758802249 -1.30170270658164 -5.50518609793095 -1.50992724940304 -2.25168130242781 -5.73919087277814 -0.389321296926247 -1.55367890900192
          -5.59227371460645 -0.922610559221935 -2.59862919303943 -4.81943991188924 -2.72468700118713 -0.768941175041318 -4.92799195763619 -2.23050748138471 -0.99758032663584 -5.18947412707528 -1.95732043486767 -0.925740382982091
          -4.17726684808182 -2.67425356099928 -1.50097332009842 -4.23918879272827 -2.3398604735053 -1.44680439011993 -4.49073573090321 -2.10525398461474 -1.10994055600982 -4.34645678713565 -1.75744550792268 -1.39019902666606
          -4.54888146520165 -3.09873133748351 -3.04243822804722 -4.86270634556358 -2.94688243584667 -2.33471402713179 -4.72429240868332 -2.63513143177814 -4.18309889978732 -5.35230675013877 -1.33661164205243 -1.32655993271974
          -5.72457922955709 -0.935635730845268 -1.29062667789863 -5.33987018118052 -0.750121406500506 -1.08568957114929 -4.94168294398301 -1.25006037501785 -1.69789152288967 -5.03533160803276 -0.854449393647528 -2.49064978104333
          -5.14893853639763 -0.445768894583868 -1.37661946662267 -4.72856530048691 -0.69195575408028 -1.60779807381966 -5.58464172026401 -1.11536757086318 -2.34783665823961 -5.679075939703 -0.53679401498595 -2.70867274706872
          -5.29064524514102 -1.10235536595923 -3.1743449773849 -5.0369022071705 -1.67052903012859 -4.25981714873399 -5.31227795572241 -0.541046661599097 -4.18866903255913 -5.50155884043648 -0.558046617076356 -3.88570110159271
          -3.98704322665911 -3.99504724373769 -0.774693998470949 -3.31002422932946 -4.52538477741394 -0.425439827747938 -2.71804108806318 -4.60903363539608 -0.419220591203548 -4.53232351778148 -3.33954048990317 -0.397261671239407
          -4.86073510914259 -2.69331490182765 -0.843098271472054 -2.93871611960042 -4.14388264366735 -1.42074106081167 -4.07812595656514 -4.1248223625355 -1.22778664922254 -3.85880458792862 -3.90083488176427 -2.25311450581464
          -4.3913784656646 -2.891619071224 -1.84510099188345 -3.77434838606534 -3.77613989047532 -1.79217451046687 -1.42946294135232 -5.19666723408195 -0.425517693100087 -2.16490116839251 -5.04362513763745 -0.838183434056118
          -0.817060489076352 -5.04957506476879 -1.00942908922825 -2.76031675133056 -3.45039531101176 -1.03703284975701 -0.455545007936207 -4.54916161893019 -0.576862737059978 -0.457978882758833 -3.78346077321323 -1.34542217840566
          -2.38306797808742 -4.582695577819 -1.84313326483671 -2.47746429342138 -4.7453802365723 -2.86529968811357 -0.384303457935407 -5.33592067155088 -1.78935314582522 -1.19997790500686 -4.76476382126824 -2.82304158923933
          -1.63571250636187 -4.47788930882023 -2.04035489184079 -1.25988178833386 -3.75246181878944 -2.40778105822441 -0.822869815605914 -3.67496831392054 -4.17589778477578 -4.7514458013488 -2.2991944378479 -0.461023076717045
          -5.23447495489596 -1.38607893098692 -0.458203463603483 -3.46339323464636 -2.6842498552649 -1.03833445876377 -4.27435472823422 -2.48987989157829 -1.46993400784443 -3.68275299321109 -1.78478972571952 -1.65381152366903
          -5.09074995504588 -0.763220863307429 -1.064344870223 -3.71524331017555 -0.986242567437058 -0.596689067900153 -4.56929705163877 -0.378806850537421 -0.610035398261064 -4.73770384026051 -2.48527660239547 -2.89094741339017
          -4.50003164581348 -1.58803356486897 -2.08549323948065 -5.36602886458027 -0.39167818997186 -1.84949028101289 -4.77198343145542 -1.21524141308684 -2.86262488500519 -3.65607795115328 -0.820480445538553 -4.19309933997822
          -1.8481450432649 -3.19472141291123 -1.82984096307418 -1.05271216910062 -3.2285961132714 -0.753046574164432 -0.626810207025104 -2.11087438337122 -0.737789623671162 -2.08755469344079 -0.629004681608359 -0.78553330576509
          -3.21766241831369 -0.614672830121282 -1.39633633475359 -1.25435881964999 -1.2989683138409 -1.57206587046719 -2.04523021677344 -2.08734035498896 -2.64005969396932 -3.19120745137204 -1.4207359432911 -2.45878327989994
          -0.66242861626236 -0.695985897294137 -2.86065809318661 -1.46888986743594 -1.49407878391345 -3.91482624280551 -3.15996816819 -4.43361180457416 -2.89175140585113 -4.38997898991811 -3.16790876926392 -2.90058623788402
          -3.69023503907659 -3.6988241097493 -3.55072651545003 -3.7428196715502 -3.76907754166611 -3.65199571239863 -3.31598005561835 -3.91852693598637 -4.79486667409545 -3.89556651142891 -3.14632845401469 -5.36173276194716
          -3.26772584465483 -3.85465090989777 -4.80395271651512 -1.76193257404739 -4.92862042752176 -3.24280631455106 -1.39193354784682 -4.61777120473617 -4.56370419202041 -0.828014482776413 -4.45249779380723 -4.15427613866193
          -1.97085677488599 -4.42338116252319 -5.49518102859506 -0.576804598478565 -5.16591125868823 -5.02074558713913 -1.13645703348398 -4.97543031748996 -5.94808550485823 -1.4317891332725 -3.92744984261649 -7.43080982356458
          -4.9135429593727 -1.74727292363296 -3.30151269918663 -4.58135851358626 -1.35589403279742 -4.61661655353946 -4.43601880174634 -0.821962521731969 -4.17593083918166 -4.38896840362006 -1.92091088544083 -5.53384759606865
          -3.86240199513182 -2.1333503152983 -7.62124581636741 -5.07301838317624 -0.560744275888638 -5.09438240319645 -4.87633111210592 -1.11246145786694 -5.99024929689886 -1.88792477656956 -1.88214946676141 -5.81823076008618
          -0.826115806940176 -2.55649892956364 -4.87402311577172 -2.53100975338586 -0.82102700896548 -4.88379130334903 -1.87003629763449 -2.70054249658386 -7.56977298693203 -2.59332165772474 -2.35889277916721 -9.03400630737255
          -1.07056650708559 -1.06650372324622 -7.41065919965532 -1.06094320495391 -1.88480724904779 -9.17070364891458 -2.69856439463509 -2.58719828715875 0.582926344206677 -2.21433831999597 -2.1277786020708 0.866581777800848
          -2.80654302659445 -2.74410038486879 -0.00782117537642441 -1.82816211309834 -1.76008748096263 0.750760781180914 -1.67574383320675 -1.72484661333312 -0.0458652064268838 -1.89932862186402 -1.86615024056518 0.12208434545767
          -2.40968621122837 -2.40774392124754 -0.342918054148788 -2.85988126097997 -3.11128262275282 -0.25831929485306 -2.57979446634883 -3.08843334957747 -0.86592379647204 -2.52056528597111 -3.79249072437468 -1.65867406522444
          -2.13636151797087 -2.65861805474967 -0.629434874884714 -1.90237836735248 -2.23748703279848 -0.770447828269207 -1.87116354607531 -2.67616798043798 -1.0329040355305 -2.3470033136417 -2.66579235785429 -1.00972124165129
          -3.07424020719343 -2.84772701158397 -0.21974071534018 -2.67171176618349 -2.51561598223815 -0.553234650339547 -2.99830511174768 -2.5626051369597 -1.25884597491464 -3.66784466742646 -2.74087648711549 -1.16057757923366
          -2.28510455963775 -2.03538710305909 -0.314435928939236 -1.72467199831905 -1.63299613948737 -0.0661567168248976 -3.05383331764328 -2.1052242844714 -1.01762614970853 -2.61052540753856 -2.08108443409994 -1.01828587042171
          -2.78568416099397 -3.88311997309248 -2.52020307613882 -3.19229242239062 -3.20951981444188 -2.39022655222593 -2.65456180008699 -2.6862721890714 -1.71809699916626 -2.52252458693286 -2.55445993724905 -2.76725920863965
          -3.04219472222804 -3.0650070627222 -3.43692681224668 -1.55235872710105 -1.50021998916032 0.799850869416662 -0.966987213333859 -0.929825428124558 1.04644084853256 -1.62111185246453 -1.60606288281428 0.173515811565527
          -1.08489891259052 -1.14822507297526 -0.305291278094476 -1.02955372827534 -1.02871158558994 -0.0839087815651697 -0.592126077674635 -0.574034113451035 0.530927517542787 -0.644041691205983 -0.6968850131734 -0.0244590806634293
          -0.292209317762824 -0.292633099385978 0.389579999269473 -0.297880928791782 -0.279812546272014 0.368360368914628 -0.299000537828334 -0.283219173811306 -0.483651015570138 -0.732689142372033 -0.740892118460554 -0.741467076504361
          -1.20412550127673 -1.78995678155252 -1.19381075341452 -0.863796425216217 -1.20843370893807 -1.3968572765869 -1.30679107681454 -1.65908957367496 -1.36935355484458 -0.352146733822426 -0.409174330809102 -0.671832359691382
          -0.349766210919563 -0.413266485490192 -0.803059862006909 -0.792465914437216 -0.859567377595565 -0.951625336433887 -1.14818028108505 -1.07605997976993 -0.662906524174078 -1.80860394864878 -1.1744252649505 -1.48588687347826
          -1.75142942550613 -1.39411137762253 -1.41118192676009 -0.71358832079168 -0.621515864520724 -0.402743377962303 -0.905707953010244 -0.577280490518811 -1.15548959117672 -0.417428351294078 -0.345519858293342 -0.816895611274371
          -1.61347107383229 -1.97444729847642 -2.65030660244327 -2.01078774404712 -1.73267992150257 -2.68316990999254 -1.10280860474777 -1.14030169813025 -2.57166826197624 -0.444432234349992 -0.455708948188321 -1.38943011994763
          -0.682845158873929 -0.704906817080587 -4.03008214723112 -2.17735355633846 -4.01715439015368 -1.61572724126331 -2.00018978076977 -3.31375339262776 -1.24474000563035 -1.88075572371328 -3.72342298162852 -1.81425985496823
          -1.53835474873529 -4.545398053815 -1.6527387651251 -1.57863940543972 -3.9088356264858 -1.64557756594227 -0.991909444571796 -2.9303907461018 -2.06285703667798 -1.65650500840394 -3.51204404086192 -2.443901140704
          -1.34130113710054 -3.70345981010309 -2.28517633033677 -0.271093983016708 -4.08321288905081 -2.17389263279816 -0.747818132728088 -5.03491721572219 -2.69339590461548 -0.276475397008851 -4.91669241404797 -2.34374430975854
          -0.26653252308024 -3.48205834573307 -2.7618286910225 -1.00886490966078 -4.37855749855836 -3.01971881973376 -0.493969000102861 -3.71650044712339 -3.22830859988088 -2.584148770751 -4.27060941284669 -3.83899116109772
          -2.55215403522132 -4.71850441274465 -4.4130225478764 -1.91385318551321 -4.16547813498376 -3.77698659118308 -1.81026164370052 -3.53652513032491 -4.9177567768285 -2.73132522853985 -3.67207068184838 -4.47459467601797
          -2.18136217022973 -3.36741413888739 -5.35486888490278 -0.491017095751496 -5.40730682518239 -3.80356707611638 -1.63460210458148 -5.14108109170664 -4.90921041689001 -1.0812085223709 -5.12240660077652 -4.84865564099249
          -1.34306595614797 -4.6112849176666 -4.26008324966427 -0.253643501516398 -3.93093811092887 -5.67098660528114 -0.840137217710059 -4.48564167233235 -5.68513361564112 -1.12188116190235 -4.09139905803504 -6.7888390482077
          -0.57119713613415 -5.00545283578003 -6.27498999825084 -0.878242942506577 -1.40186866212749 -1.99822190314256 -0.745948404911964 -1.95322047326827 -2.51416142655987 -1.15241785710419 -2.2519090015165 -2.62273712002444
          -0.325937057510989 -0.606220752316054 -1.95465389554141 -0.484615405990299 -1.10828724183079 -2.10433991288493 -0.535369710527526 -0.818906067671821 -2.20148816946993 -0.617280010884331 -2.94230338754241 -2.70396080495194
          -0.385449077869609 -2.72500891277087 -2.22500420641932 -0.128466413324797 -1.74957703646372 -2.4065220621583 -0.359660158238471 -1.96132873684557 -3.22136933188642 -0.156266035723316 -0.508290529130192 -2.44075736506864
          -0.13784262866984 -0.518897419659266 -2.73395491903672 -0.131626068318814 -1.09798160995902 -2.88032581718728 -0.3885180812737 -1.35489939075591 -3.14254261522248 -0.228752125463303 -1.4660348246327 -4.29098206118222
          -0.253722954054472 -0.854178968421592 -4.20978438611099 0.0042327405563781 -0.596754468391556 -3.6878363723355 0.0183351104237458 -0.61839524141601 -4.63074865854881 -1.18106396183801 -1.51951576890191 -3.25258041577729
          -1.5688869430711 -2.15111356071983 -4.62969274345025 -1.20952421966289 -2.31947985564194 -4.19934635365017 -1.50524852050367 -3.5914228169785 -6.53055772035197 -0.648811125827912 -0.718215088510568 -4.39622403940778
          -0.65752302170509 -1.50398284070092 -5.15499128455826 -1.02596808752676 -1.35532386909707 -5.77862323328566 -0.410894681145129 -0.701215338979121 -6.98978100945488 -0.397922251306872 -0.68000304201005 -6.79895361365699
          -0.531912936977515 -2.38889884547231 -6.20265706532383 -0.243826051180565 -3.39801184209574 -4.45826269934624 -0.242148778621329 -2.14788789196636 -4.95925054319379 -0.92101360736696 -2.38547786211492 -6.46301665185119
          -0.536482430158468 -3.54427327058148 -6.79354450004787 -0.290740332834206 -2.71830637853489 -8.80581490466918 0.00937702992375987 -1.29765922422586 -5.29871887369003 0.0121361478131037 -0.684132750710642 -7.29260903677809
          -0.673087904476289 -1.5799977108076 -8.10374806640607 -0.262282187180192 -0.927010014112474 -9.17015067410711 -0.286807979736447 -1.56486546500938 -8.21386677535813 -3.74920721995696 -2.40864988993575 -1.09118350766198
          -4.01432498144052 -1.99171122031282 -2.21011695637715 -4.06854109716689 -1.63464586467529 -2.03982056035078 -2.69369618110661 -1.67545819959609 -1.26424092612499 -3.20154790695012 -1.26971610016531 -1.94089644207434
          -3.14162784259569 -1.61618909705018 -2.11126770658596 -4.4308592963071 -2.75894448858707 -3.63245665596718 -4.34615705431653 -2.07952658798192 -3.56937376327968 -3.69899063718688 -2.83376706540539 -4.50212878619825
          -3.43916786478906 -2.28036194175009 -5.37426526750983 -3.64014307613478 -1.89776943163417 -4.93700672158504 -4.44384283235447 -1.13347598439415 -2.83865596843943 -4.84404228457987 -0.282667620330447 -2.40449382045021
          -4.04279247079594 -0.265129950710605 -2.24309845399578 -3.41598488449977 -0.258850042153239 -2.8609703766531 -3.66401577589156 -0.508026618009391 -3.31944024139168 -4.6904050028277 -1.45383684294383 -4.0429900705199
          -5.05127604426939 -1.10197032939344 -5.27010784300288 -4.4642435349691 -0.83771582477507 -5.67597190973263 -4.11698464028336 -1.11970313317454 -6.76983030400949 -3.91481658589624 -0.249725308341105 -5.60936503885156
          -4.92892164729178 -0.562191882982022 -6.25187768156582 -1.40950928329543 -0.84771098860768 -2.47427929010919 -2.26716826799886 -1.12426515767758 -2.89586068098525 -0.500049217791968 -0.247359877056506 -2.14485147114865
          -0.510149719648458 -0.227588953571788 -2.19605440336128 -0.506132247388535 -0.244234245604404 -2.94789828944597 -1.36895125761742 -0.511652538444999 -3.30913154855703 -1.57362986404039 -1.27834381003094 -3.48237948181993
          -2.24007981465103 -1.67221571711219 -4.86508091655339 -2.43257770684312 -1.29020736304798 -4.43607730105664 -3.634095081754 -1.55543720018785 -6.51455673273077 -1.3533235724229 -1.06386994633159 -5.97980772754244
          -0.692632139782546 -0.676056375595865 -4.60165059190438 -1.52530749145448 -0.664467324353309 -5.58254867866759 -0.740979413157209 -0.434477083470521 -7.24346606921066 -0.728058809080002 -0.407621454460414 -7.28299187322539