<?xml version="1.0"?>
<VTKFile type="UnstructuredGrid" version="0.1" byte_order="LittleEndian">
  <UnstructuredGrid>
    <Piece NumberOfCells="1000" NumberOfPoints="1331">
      <CellData Scalars="wetting pressure">
        <DataArray type="Float32" Name="wetting pressure" NumberOfComponents="1" format="ascii">
          265556 270781 272369 271430 268447 263579 256768 247778 236105 220678 265563 270803
          272413 271505 268563 263736 256944 247938 236214 220716 265573 270837 272482 271626
          268756 264024 257279 248254 236428 220789 265580 270864 272539 271733 268917 264354
          257714 248702 236720 220884 265580 270864 272546 271754 268929 264331 258008 249214
          236973 220951 265568 270829 272484 271662 268838 264283 257654 248649 236683 220871
          265548 270766 272369 271480 268591 263856 257126 248127 236344 220760 265526 270694
          272237 271274 268294 263454 256679 247720 236070 220665 265506 270633 272128 271106
          268062 263165 256371 247448 235886 220601 265495 270599 272067 271015 267938 263016
          256217 247313 235795 220569 262006 264588 265045 263591 260410 255556 248965 240494
          229942 217139 262014 264615 265099 263686 260562 255764 249190 240694 230076 217185
          262026 264656 265186 263847 260837 256186 249655 241113 230355 217278 262035 264691
          265263 264000 261076 256798 250370 241801 230805 217414 262036 264695 265283 264070
          261317 256869 250684 242697 231492 217548 262023 264655 265206 263928 260992 256695
          250340 241759 230771 217402 262001 264582 265068 263697 260673 256018 249509 240990
          230271 217248 261975 264500 264914 263444 260282 255471 248916 240467 229926 217132
          261953 264432 264788 263246 259998 255114 248541 240141 229709 217057 261941 264393
          264719 263140 259853 254938 248359 239985 229604 217021 260254 260495 259577 257384
          253896 249065 242815 235091 225897 215405 260264 260529 259649 257516 254112 249357
          243121 235351 226067 215462 260280 260584 259768 257749 254549 249998 243791 235922
          226431 215582 260293 260631 259879 257987 254997 250959 244979 236934 227051 215763
          260295 260641 259917 258120 255480 251274 245531 238281 228041 215951 260280 260593
          259820 257917 254939 250924 245003 236914 227023 215752 260253 260504 259642 257592
          254390 249846 243665 235806 226348 215551 260222 260404 259447 257252 253810 249044
          242831 235111 225906 215406 260196 260321 259292 256999 253435 248570 242343 234700
          225638 215314 260182 260275 259208 256867 253251 248347 242116 234508 225513 215271
          259138 257525 255313 252341 248507 243702 237835 230899 222981 214308 259150 257569
          255406 252513 248796 244082 238219 231215 223182 214375 259170 257639 255561 252827
          249410 244948 239076 231910 223613 214515 259187 257701 255709 253155 250087 246227
          240620 233135 224329 214724 259190 257716 255762 253326 250654 246623 241293 234651
          225398 214930 259173 257659 255644 253079 250022 246167 240890 233168 224312 214714
          259140 257550 255423 252656 249242 244794 238994 231808 223530 214483 259103 257428
          255180 252218 248460 243738 237910 230955 223006 214313 259072 257328 254990 251902
          247981 243138 237300 230457 222690 214206 259055 257273 254888 251740 247752 242862
          237023 230227 222541 214155 258274 255110 251718 247988 243803 239022 233542 227373
          220619 213463 258289 255163 251830 248196 244150 239470 233985 227731 220842 213538
          258313 255248 252018 248576 244893 240491 234967 228503 221310 213688 258334 255324
          252197 248969 245715 241954 236719 229821 222053 213905 258338 255342 252259 249159
          246295 242362 237410 231377 223059 214105 258318 255277 252124 248884 245640 241871
          237118 229881 222039 213895 258279 255149 251863 248384 244705 240321 234898 228398
          221220 213654 258236 255005 251575 247862 243769 239082 233640 227440 220646 213468
          258199 254886 251348 247485 243199 238376 232933 226872 220290 213349 258178 254821
          251227 247292 242928 238052 232610 226608 220121 213291 257483 252872 248350 243880
          239350 234593 229496 224077 218435 212692 257501 252934 248481 244120 239743 235094
          229983 224465 218675 212772 257529 253033 248697 244551 240568 236207 231028 225280
          219163 212929 257553 253121 248901 244989 241458 237749 232780 226607 219893 213143
          257558 253142 248970 245190 242043 238161 233535 228158 220782 213324 257535 253068
          248820 244894 241375 237667 233067 226635 219869 213130 257491 252922 248523 244335
          240355 236009 230908 225143 219055 212889 257440 252755 248191 243741 239310 234648
          229580 224129 218450 212693 257398 252617 247928 243305 238658 233854 228799 223506
          218062 212563 257374 252540 247786 243080 238344 233483 228435 223211 217874 212499
          256627 250483 244800 239593 234730 230004 225287 220616 216113 211861 256648 250556
          244952 239870 235178 230568 225829 221045 216376 211948 256681 250671 245201 240358
          236086 231776 226953 221916 216891 212113 256709 250771 245431 240839 237024 233363
          228729 223257 217613 212326 256715 250796 245507 241052 237621 233796 229496 224798
          218380 212488 256689 250712 245341 240734 236935 233290 228744 223222 217572 212309
          256639 250546 245006 240116 235846 231544 226750 221733 216761 212066 256580 250354
          244626 239442 234686 230058 225357 220655 216118 211858 256531 250194 244321 238938
          233940 229158 224489 219966 215690 211714 256503 250105 244155 238675 233574 228729
          224074 219631 215478 211643 255525 247560 240624 234687 229525 224845 220490 216561
          213278 210791 255550 247646 240806 235022 230072 225529 221140 217067 213583 210890
          255589 247781 241100 235599 231136 226930 222442 218069 214166 211076 255621 247898
          241366 236148 232170 228615 224334 219517 214934 211304 255628 247928 241455 236386
          232807 229096 225146 221090 215617 211457 255599 247835 241269 236034 232074 228537
          224344 219481 214890 211286 255542 247645 240886 235334 230873 226673 222214 217868
          214024 211025 255475 247423 240444 234545 229523 224959 220610 216631 213296 210790
          255418 247237 240085 233944 228625 223878 219580 215823 212800 210626 255386 247134
          239890 233630 228182 223360 219084 215429 212555 210543 253790 243523 235268 228669
          223292 218676 214620 211355 209344 209092 253820 243625 235490 229102 224040 219622
          215487 212003 209720 209212 253865 243785 235848 229831 225447 221496 217228 213307
          210446 209438 253903 243922 236165 230498 226711 223391 219460 215152 211388 209711
          253911 243959 236273 230786 227469 223989 220348 216698 212098 209879 253879 243854
          236062 230377 226611 223286 219767 215201 211364 209696 253815 243639 235619 229549
          225172 221231 217044 213124 210306 209386 253739 243384 235099 228586 223452 219010
          214920 211537 209411 209104 253674 243170 234674 227844 222282 217586 213597 210532
          208814 208909 253637 243051 234444 227462 221722 216926 212980 210054 208522 208813
          250252 237371 228031 221000 215549 211003 207093 204250 203274 205581 250285 237487
          228295 221559 216710 212503 208307 205086 203731 205723 250335 237667 228716 222495
          218828 215669 211178 206946 204660 205997 250377 237821 229085 223314 220583 217643
          214126 210292 205989 206347 250387 237865 229214 223678 221655 218571 215010 211422
          207053 206572 250353 237752 228978 223191 220484 217557 214080 210477 205995 206337
          250283 237516 228480 222207 218561 215421 210999 206789 204528 205946 250200 237236
          227887 221026 216139 211916 207724 204603 203411 205610 250130 237000 227403 220119
          214463 209826 205988 203366 202709 205387 250090 236869 227144 219669 213757 208985
          205238 202807 202377 205278
        </DataArray>
        <DataArray type="Float32" Name="nonwetting pressure" NumberOfComponents="1" format="ascii">
          265556 270781 272369 271430 268447 263579 256768 247778 236105 220678 265563 270803
          272413 271505 268563 263736 256944 247938 236214 220716 265573 270837 272482 271626
          268756 264024 257279 248254 236428 220789 265580 270864 272539 271733 268929 264354
          257714 248702 236720 220884 265580 270864 272546 271754 269332 264473 258065 249214
          236973 220951 265568 270829 272484 271662 268853 264283 257654 248649 236683 220871
          265548 270766 272369 271480 268591 263856 257126 248127 236344 220760 265526 270694
          272237 271274 268294 263454 256679 247720 236070 220665 265506 270633 272128 271106
          268062 263165 256371 247448 235886 220601 265495 270599 272067 271015 267938 263016
          256217 247313 235795 220569 262006 264588 265045 263591 260410 255556 248965 240494
          229942 217139 262014 264615 265099 263686 260562 255764 249190 240694 230076 217185
          262026 264656 265186 263847 260837 256186 249655 241113 230355 217278 262035 264691
          265263 264000 261141 256824 250370 241801 230805 217414 262036 264695 265283 264070
          261996 257205 250863 242777 231492 217548 262023 264655 265206 263928 261064 256729
          250340 241759 230771 217402 262001 264582 265068 263697 260673 256018 249509 240990
          230271 217248 261975 264500 264914 263444 260282 255471 248916 240467 229926 217132
          261953 264432 264788 263246 259998 255114 248541 240141 229709 217057 261941 264393
          264719 263140 259853 254938 248359 239985 229604 217021 260254 260495 259577 257384
          253896 249065 242815 235091 225897 215405 260264 260529 259649 257516 254112 249357
          243121 235351 226067 215462 260280 260584 259768 257749 254549 249998 243791 235922
          226431 215582 260293 260631 259879 257987 255132 251039 244979 236934 227051 215763
          260295 260641 259917 258120 256273 251717 245788 238408 228041 215951 260280 260593
          259820 257917 255081 251011 245003 236914 227023 215752 260253 260504 259642 257592
          254390 249846 243665 235806 226348 215551 260222 260404 259447 257252 253810 249044
          242831 235111 225906 215406 260196 260321 259292 256999 253435 248570 242343 234700
          225638 215314 260182 260275 259208 256867 253251 248347 242116 234508 225513 215271
          259138 257525 255313 252341 248507 243702 237835 230899 222981 214308 259150 257569
          255406 252513 248796 244082 238219 231215 223182 214375 259170 257639 255561 252827
          249410 244948 239076 231910 223613 214515 259187 257701 255709 253155 250263 246347
          240620 233135 224329 214724 259190 257716 255762 253326 251475 247097 241576 234792
          225398 214930 259173 257659 255644 253079 250204 246294 240892 233168 224312 214714
          259140 257550 255423 252656 249242 244794 238994 231808 223530 214483 259103 257428
          255180 252218 248460 243738 237910 230955 223006 214313 259072 257328 254990 251902
          247981 243138 237300 230457 222690 214206 259055 257273 254888 251740 247752 242862
          237023 230227 222541 214155 258274 255110 251718 247988 243803 239022 233542 227373
          220619 213463 258289 255163 251830 248196 244150 239470 233985 227731 220842 213538
          258313 255248 252018 248576 244893 240491 234967 228503 221310 213688 258334 255324
          252197 248969 245901 242087 236719 229821 222053 213905 258338 255342 252259 249159
          247116 242839 237694 231512 223059 214105 258318 255277 252124 248884 245832 242013
          237128 229881 222039 213895 258279 255149 251863 248384 244705 240321 234898 228398
          221220 213654 258236 255005 251575 247862 243769 239082 233640 227440 220646 213468
          258199 254886 251348 247485 243199 238376 232933 226872 220290 213349 258178 254821
          251227 247292 242928 238052 232610 226608 220121 213291 257483 252872 248350 243880
          239350 234593 229496 224077 218435 212692 257501 252934 248481 244120 239743 235094
          229983 224465 218675 212772 257529 253033 248697 244551 240568 236207 231028 225280
          219163 212929 257553 253121 248901 244989 241641 237883 232780 226607 219893 213143
          257558 253142 248970 245190 242856 238637 233813 228278 220782 213324 257535 253068
          248820 244894 241564 237810 233069 226635 219869 213130 257491 252922 248523 244335
          240355 236009 230908 225143 219055 212889 257440 252755 248191 243741 239310 234648
          229580 224129 218450 212693 257398 252617 247928 243305 238658 233854 228799 223506
          218062 212563 257374 252540 247786 243080 238344 233483 228435 223211 217874 212499
          256627 250483 244800 239593 234730 230004 225287 220616 216113 211861 256648 250556
          244952 239870 235178 230568 225829 221045 216376 211948 256681 250671 245201 240358
          236086 231776 226953 221916 216891 212113 256709 250771 245431 240839 237202 233498
          228729 223257 217613 212326 256715 250796 245507 241052 238428 234270 229766 224899
          218380 212488 256689 250712 245341 240734 237119 233431 228744 223222 217572 212309
          256639 250546 245006 240116 235846 231544 226750 221733 216761 212066 256580 250354
          244626 239442 234686 230058 225357 220655 216118 211858 256531 250194 244321 238938
          233940 229158 224489 219966 215690 211714 256503 250105 244155 238675 233574 228729
          224074 219631 215478 211643 255525 247560 240624 234687 229525 224845 220490 216561
          213278 210791 255550 247646 240806 235022 230072 225529 221140 217067 213583 210890
          255589 247781 241100 235599 231136 226930 222442 218069 214166 211076 255621 247898
          241366 236148 232347 228750 224334 219517 214934 211304 255628 247928 241455 236386
          233617 229570 225408 221169 215617 211457 255599 247835 241269 236034 232259 228680
          224344 219481 214890 211286 255542 247645 240886 235334 230873 226673 222214 217868
          214024 211025 255475 247423 240444 234545 229523 224959 220610 216631 213296 210790
          255418 247237 240085 233944 228625 223878 219580 215823 212800 210626 255386 247134
          239890 233630 228182 223360 219084 215429 212555 210543 253790 243523 235268 228669
          223292 218676 214620 211355 209344 209092 253820 243625 235490 229102 224040 219622
          215487 212003 209720 209212 253865 243785 235848 229831 225447 221496 217228 213307
          210446 209438 253903 243922 236165 230498 226907 223539 219460 215152 211388 209711
          253911 243959 236273 230786 228317 224481 220614 216765 212098 209879 253879 243854
          236062 230377 226815 223444 219776 215201 211364 209696 253815 243639 235619 229549
          225172 221231 217044 213124 210306 209386 253739 243384 235099 228586 223452 219010
          214920 211537 209411 209104 253674 243170 234674 227844 222282 217586 213597 210532
          208814 208909 253637 243051 234444 227462 221722 216926 212980 210054 208522 208813
          250252 237371 228031 221000 215549 211003 207093 204250 203274 205581 250285 237487
          228295 221559 216710 212503 208307 205086 203731 205723 250335 237667 228716 222495
          218994 215811 211178 206946 204660 205997 250377 237821 229085 223314 221163 218138
          214398 210308 205989 206347 250387 237865 229214 223678 223021 219507 215630 211704
          207053 206572 250353 237752 228978 223191 221076 218063 214361 210502 205995 206337
          250283 237516 228480 222207 218741 215578 210999 206789 204528 205946 250200 237236
          227887 221026 216139 211916 207724 204603 203411 205610 250130 237000 227403 220119
          214463 209826 205988 203366 202709 205387 250090 236869 227144 219669 213757 208985
          205238 202807 202377 205278
        </DataArray>
        <DataArray type="Float32" Name="wetting saturation" NumberOfComponents="1" format="ascii">
          1 1 1 1 1 1 1 1 1 1 1 1
          1 1 1 1 1 1 1 1 1 1 1 1
          1 1 1 1 1 1 1 1 1 1 0.998781 1
          1 1 1 1 1 1 1 1 0.959686 0.985758 0.994322 1
          1 1 1 1 1 1 0.99852 1 1 1 1 1
          1 1 1 1 1 1 1 1 1 1 1 1
          1 1 1 1 1 1 1 1 1 1 1 1
          1 1 1 1 1 1 1 1 1 1 1 1
          1 1 1 1 1 1 1 1 1 1 1 1
          1 1 1 1 1 1 1 1 1 1 1 1
          1 1 1 1 1 1 1 1 1 1 1 1
          1 1 0.993528 0.997349 1 1 1 1 1 1 1 1
          0.932112 0.966428 0.982107 0.991962 1 1 1 1 1 1 0.992847 0.996586
          1 1 1 1 1 1 1 1 1 1 1 1
          1 1 1 1 1 1 1 1 1 1 1 1
          1 1 1 1 1 1 1 1 1 1 1 1
          1 1 1 1 1 1 1 1 1 1 1 1
          1 1 1 1 1 1 1 1 1 1 1 1
          1 1 1 1 1 1 1 1 1 1 1 1
          1 1 1 1 1 1 0.98647 0.991935 1 1 1 1
          1 1 1 1 0.920681 0.955797 0.974228 0.9873 1 1 1 1
          1 1 0.985787 0.99126 1 1 1 1 1 1 1 1
          1 1 1 1 1 1 1 1 1 1 1 1
          1 1 1 1 1 1 1 1 1 1 1 1
          1 1 1 1 1 1 1 1 1 1 1 1
          1 1 1 1 1 1 1 1 1 1 1 1
          1 1 1 1 1 1 1 1 1 1 1 1
          1 1 1 1 1 1 1 1 1 1 0.982423 0.988013
          1 1 1 1 1 1 1 1 0.917892 0.952665 0.97165 0.985956
          1 1 1 1 1 1 0.981749 0.987271 0.999844 1 1 1
          1 1 1 1 1 1 1 1 1 1 1 1
          1 1 1 1 1 1 1 1 1 1 1 1
          1 1 1 1 1 1 1 1 1 1 1 1
          1 1 1 1 1 1 1 1 1 1 1 1
          1 1 1 1 1 1 1 1 1 1 1 1
          1 1 1 1 1 1 1 1 1 1 1 1
          1 1 0.98146 0.986699 1 1 1 1 1 1 1 1
          0.917944 0.952226 0.971512 0.986529 1 1 1 1 1 1 0.980758 0.985815
          0.998996 1 1 1 1 1 1 1 1 1 1 1
          1 1 1 1 1 1 1 1 1 1 1 1
          1 1 1 1 1 1 1 1 1 1 1 1
          1 1 1 1 1 1 1 1 1 1 1 1
          1 1 1 1 1 1 1 1 1 1 1 1
          1 1 1 1 1 1 1 1 1 1 1 1
          1 1 1 1 1 1 0.981765 0.986534 1 1 1 1
          1 1 1 1 0.918694 0.952403 0.97219 0.987945 1 1 1 1
          1 1 0.98103 0.985687 0.999736 1 1 1 1 1 1 1
          1 1 1 1 1 1 1 1 1 1 1 1
          1 1 1 1 1 1 1 1 1 1 1 1
          1 1 1 1 1 1 1 1 1 1 1 1
          1 1 1 1 1 1 1 1 1 1 1 1
          1 1 1 1 1 1 1 1 1 1 1 1
          1 1 1 1 1 1 1 1 1 1 0.982285 0.986582
          1 1 1 1 1 1 1 1 0.919286 0.952612 0.97305 0.989846
          1 1 1 1 1 1 0.981517 0.985856 1 1 1 1
          1 1 1 1 1 1 1 1 1 1 1 1
          1 1 1 1 1 1 1 1 1 1 1 1
          1 1 1 1 1 1 1 1 1 1 1 1
          1 1 1 1 1 1 1 1 1 1 1 1
          1 1 1 1 1 1 1 1 1 1 1 1
          1 1 1 1 1 1 1 1 1 1 1 1
          1 1 0.982363 0.986448 1 1 1 1 1 1 1 1
          0.919022 0.952608 0.973785 0.992124 1 1 1 1 1 1 0.981569 0.985719
          1 1 1 1 1 1 1 1 1 1 1 1
          1 1 1 1 1 1 1 1 1 1 1 1
          1 1 1 1 1 1 1 1 1 1 1 1
          1 1 1 1 1 1 1 1 1 1 1 1
          1 1 1 1 1 1 1 1 1 1 1 1
          1 1 1 1 1 1 1 1 1 1 1 1
          1 1 1 1 1 1 0.980462 0.985159 1 1 1 1
          1 1 1 1 0.915183 0.950826 0.973375 0.993276 1 1 1 1
          1 1 0.979654 0.984184 0.999119 1 1 1 1 1 1 1
          1 1 1 1 1 1 1 1 1 1 1 1
          1 1 1 1 1 1 1 1 1 1 1 1
          1 1 1 1 1 1 1 1 1 1 1 1
          1 1 1 1 1 1 1 1 1 1 1 1
          1 1 1 1 1 1 1 1 1 1 1 1
          0.983331 0.985834 1 1 1 1 1 1 1 1 0.942048 0.950467
          0.972736 0.998449 1 1 1 1 1 1 0.863336 0.906372 0.938065 0.971788
          1 1 1 1 1 1 0.940843 0.949365 0.971954 0.997491 1 1
          1 1 1 1 0.981959 0.984244 1 1 1 1 1 1
          1 1 1 1 1 1 1 1 1 1 1 1
          1 1 1 1 1 1 1 1 1 1 1 1
          1 1 1 1
        </DataArray>
        <DataArray type="Float32" Name="C^w from cellData" NumberOfComponents="1" format="ascii">
          199.956 199.956 199.956 199.956 199.956 199.956 199.955 199.954 199.953 199.952 199.956 199.956
          199.956 199.956 199.956 199.956 199.955 199.954 199.953 199.952 199.956 199.956 199.956 199.956
          199.953 199.956 199.955 199.954 199.953 199.952 199.956 199.956 199.956 199.942 199.339 199.672
          199.926 199.954 199.953 199.952 199.956 199.956 199.956 199.847 191.705 196.83 198.105 199.304
          199.953 199.952 199.956 199.956 199.956 199.939 199.274 199.619 199.921 199.954 199.953 199.952
          199.956 199.956 199.956 199.956 199.949 199.956 199.955 199.954 199.953 199.952 199.956 199.956
          199.956 199.956 199.956 199.956 199.955 199.954 199.953 199.952 199.956 199.956 199.956 199.956
          199.956 199.956 199.955 199.954 199.953 199.952 199.956 199.956 199.957 199.956 199.956 199.956
          199.955 199.954 199.953 199.952 199.956 199.956 199.956 199.956 199.955 199.955 199.954 199.954
          199.953 199.952 199.956 199.956 199.956 199.956 199.955 199.955 199.954 199.954 199.953 199.952
          199.956 199.956 199.956 199.956 199.843 199.95 199.954 199.954 199.953 199.952 199.956 199.956
          199.956 199.926 198.261 198.942 199.67 199.917 199.953 199.952 199.956 199.956 199.956 199.754
          186.589 193.004 195.992 197.545 199.537 199.952 199.956 199.956 199.956 199.926 198.158 198.803
          199.608 199.916 199.953 199.952 199.956 199.956 199.956 199.956 199.808 199.945 199.954 199.954
          199.953 199.952 199.956 199.956 199.956 199.956 199.955 199.955 199.954 199.954 199.953 199.952
          199.956 199.956 199.956 199.956 199.955 199.955 199.954 199.954 199.953 199.952 199.956 199.956
          199.956 199.956 199.955 199.955 199.954 199.954 199.953 199.952 199.955 199.955 199.955 199.955
          199.955 199.954 199.954 199.953 199.952 199.951 199.955 199.955 199.955 199.955 199.955 199.954
          199.954 199.953 199.952 199.951 199.955 199.955 199.955 199.955 199.641 199.865 199.954 199.953
          199.952 199.951 199.955 199.955 199.955 199.926 196.883 197.634 199.15 199.83 199.952 199.951
          199.955 199.955 199.955 199.78 184.35 191.029 194.25 196.247 199.082 199.951 199.955 199.955
          199.955 199.924 196.732 197.468 199.112 199.826 199.952 199.951 199.955 199.955 199.955 199.955
          199.603 199.842 199.954 199.953 199.952 199.951 199.955 199.955 199.955 199.955 199.955 199.954
          199.954 199.953 199.952 199.951 199.955 199.955 199.955 199.955 199.955 199.954 199.954 199.953
          199.952 199.951 199.955 199.955 199.955 199.955 199.955 199.954 199.954 199.953 199.952 199.951
          199.955 199.955 199.955 199.955 199.954 199.954 199.953 199.953 199.952 199.951 199.955 199.955
          199.955 199.955 199.954 199.954 199.953 199.953 199.952 199.951 199.955 199.955 199.955 199.954
          199.537 199.762 199.953 199.953 199.952 199.951 199.955 199.955 199.955 199.922 196.02 196.688
          198.968 199.799 199.952 199.951 199.955 199.955 199.955 199.809 183.742 190.418 193.651 195.936
          199.092 199.951 199.955 199.955 199.955 199.922 195.864 196.557 198.838 199.794 199.952 199.951
          199.955 199.955 199.955 199.954 199.502 199.723 199.953 199.953 199.952 199.951 199.955 199.955
          199.955 199.955 199.954 199.954 199.953 199.953 199.952 199.951 199.955 199.955 199.955 199.955
          199.954 199.954 199.953 199.953 199.952 199.951 199.955 199.955 199.955 199.955 199.954 199.954
          199.953 199.953 199.952 199.951 199.955 199.955 199.955 199.954 199.954 199.953 199.953 199.952
          199.952 199.951 199.955 199.955 199.955 199.954 199.954 199.953 199.953 199.952 199.952 199.951
          199.955 199.955 199.955 199.954 199.498 199.71 199.953 199.952 199.952 199.951 199.955 199.955
          199.954 199.918 195.798 196.4 198.91 199.819 199.952 199.951 199.955 199.955 199.954 199.873
          183.723 190.323 193.609 196.166 199.291 199.951 199.955 199.955 199.954 199.919 195.634 196.276
          198.727 199.814 199.952 199.951 199.955 199.955 199.955 199.954 199.462 199.664 199.953 199.952
          199.952 199.951 199.955 199.955 199.955 199.954 199.954 199.953 199.953 199.952 199.952 199.951
          199.955 199.955 199.955 199.954 199.954 199.953 199.953 199.952 199.952 199.951 199.955 199.955
          199.955 199.954 199.954 199.953 199.953 199.952 199.952 199.951 199.955 199.955 199.954 199.954
          199.953 199.953 199.952 199.952 199.951 199.951 199.955 199.955 199.954 199.954 199.953 199.953
          199.952 199.952 199.951 199.951 199.955 199.955 199.954 199.954 199.489 199.695 199.952 199.952
          199.952 199.951 199.955 199.955 199.954 199.914 195.852 196.367 198.961 199.857 199.952 199.951
          199.955 199.955 199.954 199.876 183.88 190.354 193.727 196.64 199.53 199.951 199.955 199.955
          199.954 199.914 195.678 196.22 198.815 199.853 199.952 199.951 199.955 199.955 199.954 199.954
          199.45 199.642 199.952 199.952 199.952 199.951 199.955 199.955 199.954 199.954 199.953 199.953
          199.952 199.952 199.951 199.951 199.955 199.955 199.954 199.954 199.953 199.953 199.952 199.952
          199.951 199.951 199.955 199.955 199.954 199.954 199.953 199.953 199.952 199.952 199.951 199.951
          199.955 199.955 199.954 199.953 199.953 199.952 199.952 199.952 199.951 199.951 199.955 199.955
          199.954 199.953 199.953 199.952 199.952 199.952 199.951 199.951 199.955 199.954 199.954 199.953
          199.485 199.686 199.952 199.952 199.951 199.951 199.955 199.954 199.954 199.909 195.955 196.401
          198.997 199.894 199.951 199.951 199.955 199.954 199.954 199.915 184.047 190.401 193.853 197.186
          199.726 199.951 199.955 199.954 199.954 199.91 195.772 196.217 198.954 199.891 199.951 199.951
          199.955 199.954 199.954 199.953 199.443 199.628 199.952 199.952 199.951 199.951 199.955 199.954
          199.954 199.953 199.953 199.952 199.952 199.952 199.951 199.951 199.955 199.955 199.954 199.953
          199.953 199.952 199.952 199.952 199.951 199.951 199.955 199.955 199.954 199.953 199.953 199.952
          199.952 199.952 199.951 199.951 199.955 199.954 199.954 199.953 199.952 199.952 199.952 199.951
          199.951 199.951 199.955 199.954 199.954 199.953 199.952 199.952 199.952 199.951 199.951 199.951
          199.955 199.954 199.954 199.953 199.464 199.655 199.952 199.951 199.951 199.951 199.955 199.954
          199.953 199.906 195.961 196.386 199.021 199.921 199.951 199.951 199.955 199.954 199.953 199.902
          184.081 190.42 193.972 197.744 199.85 199.951 199.955 199.954 199.953 199.906 195.771 196.199
          198.982 199.92 199.951 199.951 199.955 199.954 199.954 199.953 199.421 199.594 199.952 199.951
          199.951 199.951 199.955 199.954 199.954 199.953 199.952 199.952 199.952 199.951 199.951 199.951
          199.955 199.954 199.953 199.953 199.952 199.952 199.951 199.951 199.951 199.951 199.955 199.954
          199.953 199.953 199.952 199.952 199.951 199.951 199.951 199.951 199.955 199.954 199.953 199.952
          199.952 199.951 199.951 199.951 199.951 199.951 199.955 199.954 199.953 199.952 199.952 199.951
          199.951 199.951 199.951 199.951 199.955 199.954 199.953 199.952 199.393 199.55 199.951 199.951
          199.951 199.951 199.955 199.954 199.953 199.907 195.533 196.088 198.98 199.928 199.951 199.951
          199.955 199.954 199.953 199.914 183.392 190.096 193.86 198.03 199.892 199.951 199.955 199.954
          199.953 199.907 195.336 195.93 198.783 199.926 199.951 199.951 199.955 199.954 199.953 199.952
          199.352 199.489 199.951 199.951 199.951 199.951 199.955 199.954 199.953 199.952 199.952 199.951
          199.951 199.951 199.951 199.951 199.955 199.954 199.953 199.952 199.952 199.951 199.951 199.951
          199.951 199.951 199.955 199.954 199.953 199.952 199.952 199.951 199.951 199.951 199.951 199.951
          199.955 199.953 199.952 199.952 199.951 199.951 199.95 199.95 199.95 199.95 199.955 199.953
          199.952 199.952 199.578 199.753 199.95 199.95 199.95 199.95 199.955 199.953 199.952 199.928
          196.05 196.314 198.937 199.95 199.95 199.95 199.955 199.953 199.952 199.913 188.146 189.764
          193.19 198.327 199.95 199.95 199.955 199.953 199.952 199.895 172.978 181.455 187.411 192.961
          199.011 199.95 199.955 199.953 199.952 199.914 187.918 189.561 193.026 198.202 199.95 199.95
          199.955 199.953 199.952 199.929 195.728 195.869 198.816 199.95 199.95 199.95 199.955 199.953
          199.952 199.952 199.471 199.67 199.95 199.95 199.95 199.95 199.955 199.953 199.952 199.952
          199.951 199.951 199.95 199.95 199.95 199.95 199.955 199.953 199.952 199.952 199.951 199.95
          199.95 199.95 199.95 199.95
        </DataArray>
        <DataArray type="Float32" Name="C^n from cellData" NumberOfComponents="1" format="ascii">
          0 0 0 3.3625e-15 6.21169e-11 4.45301e-12 1.38653e-13 2.64185e-15 8.98105e-18 0 0 0
          5.16598e-16 8.33635e-12 1.09049e-07 9.47308e-09 3.70315e-10 7.68647e-12 1.10927e-13 1.5294e-15 7.0075e-18 1.00691e-14 9.34735e-13 7.6135e-09
          8.70584e-05 7.78431e-06 4.6341e-07 1.09677e-08 1.59575e-10 2.11504e-12 2.75041e-13 1.35726e-11 1.00507e-09 3.60265e-06 0.0165981 0.00353036
          0.000410293 1.16696e-05 1.60276e-07 1.96695e-09 5.98196e-10 2.40938e-08 1.36963e-06 0.00141001 0.0417588 0.0245422 0.0186348 0.00780003
          0.000131868 1.66696e-06 4.69042e-13 2.4446e-11 1.82632e-09 4.7338e-06 0.01676 0.00430717 0.000478013 1.31413e-05 1.80273e-07 2.20894e-09
          2.26611e-16 2.17068e-14 2.10652e-12 1.19139e-08 0.000146797 1.09561e-05 6.26783e-07 1.42839e-08 2.04635e-10 2.68148e-12 0 2.62168e-18
          1.61527e-15 1.74109e-11 2.0078e-07 1.63242e-08 6.2224e-10 1.24886e-11 1.77882e-13 1.93805e-15 0 0 0 1.27375e-14
          1.77444e-10 1.25617e-11 3.80056e-13 6.775e-15 1.87326e-17 0 0 0 0 0 6.32479e-14 3.70647e-15
          6.00662e-17 0 0 0 0 0 0 1.01279e-14 6.42938e-10 3.40883e-11 1.07403e-12 1.6318e-14
          4.31662e-17 0 0 0 5.44796e-16 2.25899e-11 1.54652e-06 8.51142e-08 3.63439e-09 6.90472e-11 6.96665e-13 5.09933e-15