<?xml version="1.0"?>
<VTKFile type="UnstructuredGrid" version="0.1" byte_order="LittleEndian">
  <UnstructuredGrid>
    <Piece NumberOfCells="1600" NumberOfPoints="1681">
      <CellData Scalars="rank" Vectors="velocity">
        <DataArray type="Float32" Name="velocity" NumberOfComponents="3" format="ascii">
          3.97946e-06 -3.97946e-06 0 3.05085e-05 -1.13683e-05 0 1.13683e-05 -3.05085e-05 0 8.6286e-05 -8.6286e-05 0
          8.03603e-05 -1.77186e-05 0 0.00014948 -2.29807e-05 0 0.000234062 -2.71754e-05 0 0.000226764 -0.000133392 0
          0.00042146 -0.000172055 0 0.000659691 -0.000202654 0 1.77186e-05 -8.03603e-05 0 2.29807e-05 -0.00014948 0
          0.000133392 -0.000226764 0 0.000172055 -0.00042146 0 2.71754e-05 -0.000234062 0 0.000202654 -0.000659691 0
          0.000349874 -0.000349874 0 0.00064977 -0.000450682 0 0.000450682 -0.00064977 0 0.00083652 -0.00083652 0
          0.00101667 -0.000530317 0 0.0013085 -0.000983932 0 0.000530317 -0.00101667 0 0.000983932 -0.0013085 0
          0.00153875 -0.00153875 0 0.00033054 -3.03456e-05 0 0.000435577 -3.25443e-05 0 0.000931422 -0.000225619 0
          0.00122726 -0.00024141 0 0.000546065 -3.38305e-05 0 0.000659121 -3.42663e-05 0 0.000772085 -3.39162e-05 0
          0.00153846 -0.000250499 0 0.00185689 -0.00025337 0 0.00217507 -0.00025051 0 0.00143514 -0.000589983 0
          0.00184678 -0.0010943 0 0.00189074 -0.000630919 0 0.00243282 -0.00116994 0 0.00217148 -0.00171106 0
          0.00286031 -0.00182911 0 0.00237 -0.000654385 0 0.0028604 -0.000661656 0 0.00304927 -0.00121323 0
          0.00368006 -0.00122653 0 0.00335041 -0.000654013 0 0.00431035 -0.00121223 0 0.00358488 -0.00189659 0
          0.00432631 -0.00191723 0 0.00506716 -0.00189475 0 3.03456e-05 -0.00033054 0 0.000225619 -0.000931422 0
          3.25443e-05 -0.000435577 0 0.00024141 -0.00122726 0 0.000589983 -0.00143514 0 0.0010943 -0.00184678 0
          0.00171106 -0.00217148 0 0.000630919 -0.00189074 0 0.00116994 -0.00243282 0 0.00182911 -0.00286031 0
          3.38305e-05 -0.000546065 0 3.42663e-05 -0.000659121 0 0.000250499 -0.00153846 0 0.00025337 -0.00185689 0
          3.39162e-05 -0.000772085 0 0.00025051 -0.00217507 0 0.000654385 -0.00237 0 0.00121323 -0.00304927 0
          0.000661656 -0.0028604 0 0.00122653 -0.00368006 0 0.00189659 -0.00358488 0 0.00191723 -0.00432631 0
          0.000654013 -0.00335041 0 0.00121223 -0.00431035 0 0.00189475 -0.00506716 0 0.0024144 -0.0024144 0
          0.00318008 -0.00258077 0 0.00258077 -0.00318008 0 0.00339904 -0.00339904 0 0.00398549 -0.00267582 0
          0.00480962 -0.00270481 0 0.0056331 -0.002673 0 0.00425974 -0.00352408 0 0.00514045 -0.00356214 0
          0.00602046 -0.00352016 0 0.00267582 -0.00398549 0 0.00270481 -0.00480962 0 0.00352408 -0.00425974 0
          0.00356214 -0.00514045 0 0.002673 -0.0056331 0 0.00352016 -0.00602046 0 0.00441632 -0.00441632 0
          0.00532929 -0.00446392 0 0.00446392 -0.00532929 0 0.00538664 -0.00538664 0 0.00624154 -0.00441123 0
          0.00630862 -0.00532299 0 0.00441123 -0.00624154 0 0.00532299 -0.00630862 0 0.00623402 -0.00623402 0
          0.00088252 -3.2846e-05 0 0.000988214 -3.11225e-05 0 0.00248613 -0.000242411 0 0.00278384 -0.000229567 0
          0.00108718 -2.88132e-05 0 0.00117763 -2.5986e-05 0 0.00125804 -2.27094e-05 0 0.00306258 -0.000212474 0
          0.00331738 -0.00019163 0 0.00354387 -0.000167533 0 0.00382946 -0.000632743 0 0.00492655 -0.0011727 0
          0.00428796 -0.000599138 0 0.00551631 -0.00111036 0 0.00579144 -0.0018329 0 0.00648465 -0.0017354 0
          0.00471725 -0.000554491 0 0.00510966 -0.000500097 0 0.00606851 -0.00102759 0 0.00657327 -0.000926787 0
          0.00545847 -0.000437253 0 0.00702195 -0.000810358 0 0.0071337 -0.00160601 0 0.007727 -0.00144847 0
          0.00825438 -0.00126654 0 0.00132707 -1.90518e-05 0 0.00138362 -1.50822e-05 0 0.0037383 -0.000140682 0
          0.00389758 -0.000111576 0 0.00142679 -1.08693e-05 0 0.00145594 -6.48233e-06 0 0.00147061 -1.99022e-06 0
          0.0040192 -8.07146e-05 0 0.0041013 -4.85984e-05 0 0.00414263 -1.57272e-05 0 0.00575793 -0.000367257 0
          0.00740714 -0.000680703 0 0.00600323 -0.000291407 0 0.00772267 -0.000540224 0 0.00870714 -0.00106395 0
          0.00907801 -0.000844472 0 0.00619053 -0.000211002 0 0.00631697 -0.00012734 0 0.0079636 -0.000391321 0
          0.00812623 -0.000236399 0 0.00638061 -4.17211e-05 0 0.00820809 -7.78598e-05 0 0.0093612 -0.000611843 0
          0.00955235 -0.000369818 0 0.00964855 -0.00012215 0 0.00643817 -0.00258566 0 0.0072087 -0.00244808 0
          0.0068808 -0.00340508 0 0.00770422 -0.00322386 0 0.00793016 -0.00226553 0 0.00858963 -0.0020433 0
          0.00917584 -0.00178668 0 0.0084752 -0.00298344 0 0.00917995 -0.0026908 0 0.00980639 -0.00235288 0
          0.00713339 -0.00426696 0 0.00720998 -0.00514886 0 0.00798696 -0.00403983 0 0.00807266 -0.00487475 0
          0.00712467 -0.00603003 0 0.00797709 -0.00570899 0 0.00878617 -0.00373855 0 0.00951673 -0.00337184 0
          0.0088804 -0.00451119 0 0.00961874 -0.00406869 0 0.0101661 -0.00294841 0 0.010275 -0.00355777 0
          0.00877522 -0.00528319 0 0.00950478 -0.00476496 0 0.0101533 -0.00416662 0 0.00967909 -0.00150095 0
          0.0100913 -0.0011914 0 0.0103442 -0.00197664 0 0.0107847 -0.00156906 0 0.0104061 -0.000863319 0
          0.0106186 -0.000521994 0 0.0107255 -0.000172715 0 0.0111211 -0.00113708 0 0.0113481 -0.000687675 0
          0.0114624 -0.000227801 0 0.0107236 -0.00247699 0 0.0108385 -0.00298895 0 0.0111802 -0.00196629 0
          0.0113 -0.00237275 0 0.01071 -0.00350049 0 0.011166 -0.00277887 0 0.0115289 -0.00142504 0
          0.0117643 -0.000861961 0 0.0116524 -0.00171969 0 0.0118902 -0.0010403 0 0.0118827 -0.000285766 0
          0.0120099 -0.000345092 0 0.0115142 -0.00201411 0 0.0117492 -0.0012185 0 0.0118674 -0.000404374 0
          3.2846e-05 -0.00088252 0 0.000242411 -0.00248613 0 3.11225e-05 -0.000988214 0 0.000229567 -0.00278384 0
          0.000632743 -0.00382946 0 0.0011727 -0.00492655 0 0.0018329 -0.00579144 0 0.000599138 -0.00428796 0
          0.00111036 -0.00551631 0 0.0017354 -0.00648465 0 2.88132e-05 -0.00108718 0 2.5986e-05 -0.00117763 0
          0.000212474 -0.00306258 0 0.00019163 -0.00331738 0 2.27094e-05 -0.00125804 0 0.000167533 -0.00354387 0
          0.000554491 -0.00471725 0 0.00102759 -0.00606851 0 0.000500097 -0.00510966 0 0.000926787 -0.00657327 0
          0.00160601 -0.0071337 0 0.00144847 -0.007727 0 0.000437253 -0.00545847 0 0.000810358 -0.00702195 0
          0.00126654 -0.00825438 0 0.00258566 -0.00643817 0 0.00340508 -0.0068808 0 0.00244808 -0.0072087 0
          0.00322386 -0.00770422 0 0.00426696 -0.00713339 0 0.00514886 -0.00720998 0 0.00603003 -0.00712467 0
          0.00403983 -0.00798696 0 0.00487475 -0.00807266 0 0.00570899 -0.00797709 0 0.00226553 -0.00793016 0
          0.0020433 -0.00858963 0 0.00298344 -0.0084752 0 0.0026908 -0.00917995 0 0.00178668 -0.00917584 0
          0.00235288 -0.00980639 0 0.00373855 -0.00878617 0 0.00451119 -0.0088804 0 0.00337184 -0.00951673 0
          0.00406869 -0.00961874 0 0.00528319 -0.00877522 0 0.00476496 -0.00950478 0 0.00294841 -0.0101661 0
          0.00355777 -0.010275 0 0.00416662 -0.0101533 0 1.90518e-05 -0.00132707 0 0.000140682 -0.0037383 0
          1.50822e-05 -0.00138362 0 0.000111576 -0.00389758 0 0.000367257 -0.00575793 0 0.000680703 -0.00740714 0
          0.00106395 -0.00870714 0 0.000291407 -0.00600323 0 0.000540224 -0.00772267 0 0.000844472 -0.00907801 0
          1.08693e-05 -0.00142679 0 6.48233e-06 -0.00145594 0 8.07146e-05 -0.0040192 0 4.85984e-05 -0.0041013 0
          1.99022e-06 -0.00147061 0 1.57272e-05 -0.00414263 0 0.000211002 -0.00619053 0 0.000391321 -0.0079636 0
          0.00012734 -0.00631697 0 0.000236399 -0.00812623 0 0.000611843 -0.0093612 0 0.000369818 -0.00955235 0
          4.17211e-05 -0.00638061 0 7.78598e-05 -0.00820809 0 0.00012215 -0.00964855 0 0.00150095 -0.00967909 0
          0.00197664 -0.0103442 0 0.0011914 -0.0100913 0 0.00156906 -0.0107847 0 0.00247699 -0.0107236 0
          0.00298895 -0.0108385 0 0.00350049 -0.01071 0 0.00196629 -0.0111802 0 0.00237275 -0.0113 0
          0.00277887 -0.011166 0 0.000863319 -0.0104061 0 0.000521994 -0.0106186 0 0.00113708 -0.0111211 0
          0.000687675 -0.0113481 0 0.000172715 -0.0107255 0 0.000227801 -0.0114624 0 0.00142504 -0.0115289 0
          0.00171969 -0.0116524 0 0.000861961 -0.0117643 0 0.0010403 -0.0118902 0 0.00201411 -0.0115142 0
          0.0012185 -0.0117492 0 0.000285766 -0.0118827 0 0.000345092 -0.0120099 0 0.000404374 -0.0118674 0
          0.0068915 -0.0068915 0 0.00771599 -0.00652456 0 0.00652456 -0.00771599 0 0.00730513 -0.00730513 0
          0.00848796 -0.00603792 0 0.00919361 -0.00544566 0 0.00982084 -0.00476185 0 0.00803597 -0.00676025 0
          0.00870402 -0.00609713 0 0.00929783 -0.00533153 0 0.00603792 -0.00848796 0 0.00544566 -0.00919361 0
          0.00676025 -0.00803597 0 0.00609713 -0.00870402 0 0.00476185 -0.00982084 0 0.00533153 -0.00929783 0
          0.00743657 -0.00743657 0 0.00805477 -0.0067071 0 0.0067071 -0.00805477 0 0.00726466 -0.00726466 0
          0.00860427 -0.0058649 0 0.00776024 -0.00635244 0 0.0058649 -0.00860427 0 0.00635244 -0.00776024 0
          0.00678579 -0.00678579 0 0.0103593 -0.00400058 0 0.0108004 -0.00317591 0 0.00980759 -0.00447919 0
          0.0102251 -0.00355589 0 0.0111371 -0.00230193 0 0.0113644 -0.00139271 0 0.0114787 -0.000462328 0
          0.0105439 -0.00257738 0 0.0107591 -0.00155943 0 0.0108673 -0.000517784 0 0.009076 -0.00492731 0
          0.00818568 -0.00533691 0 0.00946238 -0.00391166 0 0.00853414 -0.00423684 0 0.0071578 -0.00570098 0
          0.00746249 -0.00452587 0 0.00975737 -0.00283528 0 0.00995644 -0.00171551 0 0.00880018 -0.003071 0
          0.00897969 -0.00185817 0 0.0100565 -0.000569691 0 0.00906995 -0.000617116 0 0.0076951 -0.0032805 0
          0.00785204 -0.00198494 0 0.00793093 -0.00065924 0 0.00400058 -0.0103593 0 0.00447919 -0.00980759 0
          0.00317591 -0.0108004 0 0.00355589 -0.0102251 0 0.00492731 -0.009076 0 0.00533691 -0.00818568 0
          0.00570098 -0.0071578 0 0.00391166 -0.00946238 0 0.00423684 -0.00853414 0 0.00452587 -0.00746249 0
          0.00230193 -0.0111371 0 0.00139271 -0.0113644 0 0.00257738 -0.0105439 0 0.00155943 -0.0107591 0
          0.000462328 -0.0114787 0 0.000517784 -0.0108673 0 0.00283528 -0.00975737 0 0.003071 -0.00880018 0
          0.00171551 -0.00995644 0 0.00185817 -0.00897969 0 0.0032805 -0.0076951 0 0.00198494 -0.00785204 0
          0.000569691 -0.0100565 0 0.000617116 -0.00906995 0 0.00065924 -0.00793093 0 0.00601351 -0.00601351 0
          0.00626947 -0.00477397 0 0.00477397 -0.00626947 0 0.00497715 -0.00497715 0 0.00646487 -0.00346033 0
          0.00659669 -0.00209374 0 0.00666293 -0.000695363 0 0.00513225 -0.00360758 0 0.00523686 -0.00218281 0
          0.00528939 -0.000724901 0 0.00346033 -0.00646487 0 0.00209374 -0.00659669 0 0.00360758 -0.00513225 0
          0.00218281 -0.00523686 0 0.000695363 -0.00666293 0 0.000724901 -0.00528939 0 0.00371996 -0.00371996 0
          0.00379574 -0.00225076 0 0.00225076 -0.00379574 0 0.00229654 -0.00229654 0 0.00383375 -0.000747387 0
          0.00231945 -0.000762471 0 0.000747387 -0.00383375 0 0.000762471 -0.00231945 0 0.000769918 -0.000769918 0
          0.00147059 2.53788e-06 0 0.00145588 7.03287e-06 0 0.00414256 1.73987e-05 0 0.0041011 5.02792e-05 0
          0.00142668 1.14257e-05 0 0.00138346 1.56472e-05 0 0.00132686 1.96286e-05 0 0.00401887 8.24141e-05 0
          0.00389711 0.000113303 0 0.00373768 0.000142448 0 0.0063805 4.45558e-05 0 0.00820794 8.18931e-05 0
          0.00631664 0.000130191 0 0.00812577 0.000240457 0 0.00964836 0.000127411 0 0.00955176 0.000375114 0
          0.00618998 0.000213887 0 0.00600243 0.000294342 0 0.00796283 0.000395429 0 0.00772156 0.000544406 0
          0.00575688 0.000370261 0 0.00740568 0.000684988 0 0.00936021 0.000617205 0 0.0090766 0.000849936 0
          0.00870528 0.00106956 0 0.00125778 2.33011e-05 0 0.00117731 2.6596e-05 0 0.00354307 0.000169347 0
          0.0033164 0.000193504 0 0.00108678 2.94451e-05 0 0.000987747 3.17804e-05 0 0.000881964 3.35348e-05 0
          0.0030614 0.000214419 0 0.00278242 0.000231596 0 0.00248445 0.000244541 0 0.00545715 0.000440343 0
          0.0070201 0.000814772 0 0.00510803 0.000503293 0 0.006571 0.000931358 0 0.00825204 0.00127231 0
          0.00772412 0.00145446 0 0.00471527 0.000557815 0 0.00428559 0.000602614 0 0.00606576 0.00103235 0
          0.00551302 0.00111535 0 0.00382665 0.0006364 0 0.00492265 0.00117796 0 0.00713023 0.00161226 0
          0.0064805 0.00174196 0 0.00578654 0.00183982 0 0.0107253 0.000179229 0 0.0106179 0.000528551 0
          0.0114621 0.000235581 0 0.0113473 0.000695508 0 0.0104049 0.000869961 0 0.0100897 0.00119817 0
          0.00967688 0.0015079 0 0.0111197 0.00114502 0 0.0107828 0.00157715 0 0.0103417 0.00198495 0
          0.0118824 0.000294819 0 0.0120095 0.000355413 0 0.0117634 0.000871075 0 0.0118892 0.00105069 0
          0.0118671 0.00041595 0 0.0117482 0.00123015 0 0.0115274 0.00143428 0 0.0111781 0.00197572 0
          0.0116508 0.00173023 0 0.0112977 0.0023835 0 0.0107208 0.00248667 0 0.0108354 0.00299999 0
          0.0115125 0.00202592 0 0.0111636 0.00279093 0 0.0107068 0.00351287 0 0.00917304 0.00179385 0
          0.00858621 0.00205075 0 0.0098032 0.00236146 0 0.00917604 0.00269971 0 0.00792603 0.0022733 0
          0.00720379 0.00245624 0 0.00643238 0.00259428 0 0.00847051 0.00299275 0 0.00769866 0.00323364 0
          0.00687426 0.00341542 0 0.0101626 0.00295841 0 0.0102713 0.00356917 0 0.00951242 0.00338223 0
          0.00961413 0.00408054 0 0.0101493 0.00417942 0 0.00949993 0.00477826 0 0.00878102 0.00374941 0
          0.00798086 0.00405124 0 0.00887489 0.00452357 0 0.00806617 0.00488776 0 0.00712624 0.00427901 0
          0.0072024 0.00516259 0 0.00876945 0.00529708 0 0.00797031 0.00572357 0 0.00711679 0.00604541 0
          0.000771426 3.46419e-05 0 0.000658344 3.50369e-05 0 0.00217308 0.00025276 0 0.00185454 0.000255766 0
          0.00054515 3.46572e-05 0 0.000434499 3.34446e-05 0 0.000329267 3.1348e-05 0 0.00153568 0.000253078 0
          0.00122398 0.000244224 0 0.000927537 0.000228757 0 0.00334708 0.000657886 0 0.00430574 0.00121781 0
          0.00285647 0.000665791 0 0.00367463 0.0012325 0 0.00506138 0.0019021 0 0.00431953 0.0019251 0
          0.00236537 0.000658844 0 0.00188527 0.000635793 0 0.00304288 0.00121967 0 0.00242529 0.00117698 0
          0.00142866 0.000595416 0 0.0018379 0.00110212 0 0.00357693 0.00190508 0 0.00285098 0.00183837 0
          0.00216053 0.0017213 0 0.000232555 2.83318e-05 0 0.000147683 2.4397e-05 0 0.000655059 0.000206269 0
          0.00041587 0.000176451 0 7.81799e-05 1.96453e-05 0 2.77595e-05 1.48318e-05 0 1.10853e-06 1.75144e-05 0
          0.000219855 0.000139263 0 7.73141e-05 9.56973e-05 0 -5.57419e-07 4.76894e-05 0 0.00100893 0.00053655 0
          0.00129795 0.000992836 0 0.000640424 0.000458159 0 0.000823929 0.000846982 0 0.00152588 0.00155026 0
          0.000968802 0.00132172 0 0.000338414 0.000359481 0 0.000119201 0.000240141 0 0.000435607 0.000662559 0
          0.000154129 0.000437617 0 6.04266e-07 9.94634e-05 0 2.09431e-06 0.000170013 0 0.000512582 0.00103215 0
          0.000182054 0.00067806 0 3.61115e-06 0.000255787 0 0.0056263 0.00268216 0 0.00480167 0.00271461 0
          0.00601282 0.00353114 0 0.00513155 0.00357388 0 0.00397621 0.00268639 0 0.00316927 0.00259226 0
          0.00240182 0.00242702 0 0.00424942 0.0035367 0 0.00338709 0.00341271 0 0.00256698 0.00319499 0
          0.00623323 0.00442402 0 0.00629983 0.00533755 0 0.00531967 0.00447757 0 0.00537652 0.00540215 0
          0.00622493 0.0062503 0 0.00531258 0.00632593 0 0.00440523 0.00443096 0 0.00351133 0.00427552 0
          0.00445232 0.00534588 0 0.00354891 0.00515826 0 0.00266123 0.00400258 0 0.00268977 0.00482878 0
          0.00439937 0.00625999 0 0.00350671 0.0060402 0 0.00265783 0.00565423 0 0.00169642 0.00218549 0
          0.00107732 0.00186253 0 0.00181323 0.00287667 0 0.00115175 0.00245089 0 0.000570402 0.00145299 0
          0.00020323 0.000951711 0 5.04729e-06 0.000353407 0 0.000610186 0.00191075 0 0.000217976 0.00124933 0
          6.30546e-06 0.000459655 0 0.00187995 0.00360346 0 0.00190022 0.00434698 0 0.00119434 0.0030695 0
          0.0012074 0.00370233 0 0.00187772 0.00508979 0 0.0011932 0.00433456 0 0.000633079 0.00239201 0
          0.000226633 0.00156227 0 0.000640247 0.00288433 0 0.000229563 0.00188243 0 7.29738e-06 0.000571485 0
          7.95185e-06 0.000686034 0 0.000632874 0.00337621 0 0.000227147 0.00220237 0 8.21752e-06 0.000800638 0
          0.0114784 0.000475134 0 0.0113633 0.0014056 0 0.0108669 0.000531787 0 0.010758 0.00157353 0
          0.0111353 0.002315 0 0.0107979 0.00318925 0 0.010356 0.00401427 0 0.0105421 0.00259167 0
          0.0102226 0.00357047 0 0.00980423 0.00449417 0 0.0100562 0.000584849 0 0.00906959 0.000633377 0
          0.00995535 0.00173077 0 0.0089786 0.00187454 0 0.00793057 0.000676547 0 0.00785097 0.00200236 0
          0.00975554 0.00285075 0 0.00945979 0.00392744 0 0.00879836 0.00308759 0 0.00853157 0.00425377 0
          0.00907262 0.00494351 0 0.00818233 0.00535428 0 0.0076933 0.00329816 0 0.00745995 0.00454388 0
          0.0071545 0.00571946 0 0.00981673 0.004776 0 0.00918862 0.00546036 0 0.00929364 0.00534699 0
          0.00869896 0.00611319 0 0.00848204 0.00605327 0 0.00770905 0.00654066 0 0.00688347 0.00690846 0
          0.00802998 0.00677701 0 0.00729814 0.00732269 0 0.0065165 0.00773447 0 0.00860008 0.00588163 0
          0.00775608 0.00637037 0 0.00804971 0.00672446 0 0.00725965 0.00728325 0 0.00678171 0.00680485 0
          0.00634755 0.00778001 0 0.00743059 0.00745467 0 0.00675331 0.00805493 0 0.00670121 0.00807415 0
          0.00609031 0.0087243 0 0.00602994 0.00850789 0 0.00543785 0.0092149 0 0.00585916 0.00862486 0
          0.00532489 0.00931935 0 0.00475428 0.00984342 0 0.00666258 0.000713651 0 0.00659564 0.00211215 0
          0.00528905 0.000744101 0 0.00523584 0.00220214 0 0.00646311 0.00347898 0 0.006267 0.00479299 0
          0.0060103 0.00603302 0 0.00513054 0.00362716 0 0.00497475 0.00499712 0 0.00477086 0.00628994 0
          0.00383342 0.000767425 0 0.00231913 0.000783269 0 0.00379475 0.00227093 0 0.00229559 0.00231748 0
          0.000769612 0.000791398 0 0.000761554 0.00234107 0 0.00371831 0.0037404 0 0.00360526 0.00515307 0
          0.00224917 0.00381694 0 0.00218058 0.00525847 0 0.00345733 0.00648622 0 0.00209086 0.00661884 0
          0.000745858 0.00385565 0 0.000722758 0.0053117 0 0.000692605 0.0066858 0 0.00569702 0.00717792 0
          0.00533216 0.00820653 0 0.00452204 0.00748359 0 0.00423226 0.00855601 0 0.00492175 0.0090977 0
          0.00447279 0.00983027 0 0.0039933 0.0103831 0 0.00390632 0.00948513 0 0.00354976 0.0102489 0
          0.00316896 0.0108252 0 0.00327682 0.0077171 0 0.00198141 0.00787486 0 0.00306661 0.00882297 0
          0.00185398 0.00900332 0 0.000655864 0.00795449 0 0.000613119 0.00909433 0 0.00283017 0.00978107 0
          0.00257154 0.0105687 0 0.00171065 0.00998101 0 0.00155388 0.0107847 0 0.00229533 0.011163 0
          0.00138647 0.0113912 0 0.00056507 0.0100819 0 0.000512534 0.0108937 0 0.000456445 0.0115064 0
          0.00602082 0.0071426 0 0.00513835 0.00722901 0 0.00569978 0.0079966 0 0.0048643 0.00809333 0
          0.00425506 0.00715362 0 0.00339166 0.00690236 0 0.00257062 0.00646116 0 0.00402805 0.00800888 0
          0.00321065 0.00772751 0 0.00243336 0.00723344 0 0.00527411 0.00879623 0 0.00475611 0.0095272 0
          0.00450093 0.00890261 0 0.00405873 0.0096424 0 0.00415807 0.010177 0 0.00354819 0.0103001 0
          0.00372705 0.00880968 0 0.00297061 0.00850011 0 0.00336072 0.00954172 0 0.00267845 0.00920639 0
          0.0022513 0.00795656 0 0.00202968 0.00861759 0 0.00293776 0.0101925 0 0.0023411 0.00983426 0
          0.00177374 0.00920526 0 0.00181611 0.00581594 0 0.00115407 0.00495262 0 0.00171907 0.00651092 0
          0.00109234 0.00554415 0 0.000612164 0.00385708 0 0.000219785 0.0025152 0 8.06255e-06 0.000912834 0
          0.000579336 0.00431735 0 0.000207894 0.0028147 0 7.4729e-06 0.00102038 0 0.0015903 0.00716166 0
          0.0014335 0.00775655 0 0.00101034 0.00609806 0 0.000910419 0.00660444 0 0.00125239 0.00828543 0
          0.000794948 0.00705467 0 0.000535622 0.00474838 0 0.000191908 0.00309524 0 0.000482269 0.00514247 0
          0.000172273 0.00335179 0 6.45028e-06 0.00112123 0 5.00989e-06 0.00121358 0 0.000420534 0.00549289 0
          0.000149447 0.00357998 0 3.17845e-06 0.00129585 0 0.0034923 0.010735 0 0.00297981 0.0108648 0
          0.00277109 0.0111921 0 0.00236409 0.0113274 0 0.00246687 0.0107513 0 0.0019655 0.0103734 0
          0.00148875 0.00970989 0 0.00195674 0.0112092 0 0.00155858 0.0108152 0 0.00117998 0.0101234 0
          0.00200674 0.0115413 0 0.00121156 0.0117773 0 0.00171154 0.0116809 0 0.00103265 0.0119197 0
          0.000397855 0.0118964 0 0.000337931 0.0120403 0 0.00141608 0.0115589 0 0.00112729 0.0111527 0
          0.000853581 0.0117953 0 0.000678559 0.0113808 0 0.00085268 0.0104394 0 0.000512133 0.0106529 0
          0.00027796 0.0119146 0 0.000219347 0.011496 0 0.000163611 0.0107608 0 0.00105067 0.0087396 0
          0.000666293 0.00744132 0 0.000832077 0.00911179 0 0.000526831 0.00775822 0 0.000351683 0.00579387 0
          0.000123897 0.00377605 0 9.92232e-07 0.00136666 0 0.00027699 0.00604061 0 9.60973e-05 0.00393687 0
          -1.5047e-06 0.00142488 0 0.000600344 0.0093962 0 0.000359204 0.00958848 0 0.000378946 0.00800043 0
          0.000225025 0.00816423 0 0.000112395 0.00968572 0 6.74562e-05 0.00824717 0 0.000197733 0.00622926 0
          6.653e-05 0.00405991 0 0.000115198 0.00635693 0 3.56801e-05 0.00414331 0 -4.26213e-06 0.0014696 0
          -7.22518e-06 0.00150013 0 3.06715e-05 0.00642169 0 4.03641e-06 0.0041858 0 -1.03358e-05 0.00151602 0
          -2.53788e-06 -0.00147059 0 -1.73987e-05 -0.00414256 0 -7.03287e-06 -0.00145588 0 -5.02792e-05 -0.0041011 0
          -4.45558e-05 -0.0063805 0 -8.18931e-05 -0.00820794 0 -0.000127411 -0.00964836 0 -0.000130191 -0.00631664 0
          -0.000240457 -0.00812577 0 -0.000375114 -0.00955176 0 -1.14257e-05 -0.00142668 0 -1.56472e-05 -0.00138346 0
          -8.24141e-05 -0.00401887 0 -0.000113303 -0.00389711 0 -1.96286e-05 -0.00132686 0 -0.000142448 -0.00373768 0
          -0.000213887 -0.00618998 0 -0.000395429 -0.00796283 0 -0.000294342 -0.00600243 0 -0.000544406 -0.00772156 0
          -0.000617205 -0.00936021 0 -0.000849936 -0.0090766 0 -0.000370261 -0.00575688 0 -0.000684988 -0.00740568 0
          -0.00106956 -0.00870528 0 -0.000179229 -0.0107253 0 -0.000235581 -0.0114621 0 -0.000528551 -0.0106179 0
          -0.000695508 -0.0113473 0 -0.000294819 -0.0118824 0 -0.000355413 -0.0120095 0 -0.00041595 -0.0118671 0
          -0.000871075 -0.0117634 0 -0.00105069 -0.0118892 0 -0.00123015 -0.0117482 0 -0.000869961 -0.0104049 0
          -0.00119817 -0.0100897 0 -0.00114502 -0.0111197 0 -0.00157715 -0.0107828 0 -0.0015079 -0.00967688 0
          -0.00198495 -0.0103417 0 -0.00143428 -0.0115274 0 -0.00173023 -0.0116508 0 -0.00197572 -0.0111781 0
          -0.0023835 -0.0112977 0 -0.00202592 -0.0115125 0 -0.00279093 -0.0111636 0 -0.00248667 -0.0107208 0
          -0.00299999 -0.0108354 0 -0.00351287 -0.0107068 0 -2.33011e-05 -0.00125778 0 -0.000169347 -0.00354307 0
          -2.6596e-05 -0.00117731 0 -0.000193504 -0.0033164 0 -0.000440343 -0.00545715 0 -0.000814772 -0.0070201 0
          -0.00127231 -0.00825204 0 -0.000503293 -0.00510803 0 -0.000931358 -0.006571 0 -0.00145446 -0.00772412 0
          -2.94451e-05 -0.00108678 0 -3.17804e-05 -0.000987747 0 -0.000214419 -0.0030614 0 -0.000231596 -0.00278242 0
          -3.35348e-05 -0.000881964 0 -0.000244541 -0.00248445 0 -0.000557815 -0.00471527 0 -0.00103235 -0.00606576 0
          -0.000602614 -0.00428559 0 -0.00111535 -0.00551302 0 -0.00161226 -0.00713023 0 -0.00174196 -0.0064805 0
          -0.0006364 -0.00382665 0 -0.00117796 -0.00492265 0 -0.00183982 -0.00578654 0 -0.00179385 -0.00917304 0
          -0.00236146 -0.0098032 0 -0.00205075 -0.00858621 0 -0.00269971 -0.00917604 0 -0.00295841 -0.0101626 0
          -0.00356917 -0.0102713 0 -0.00417942 -0.0101493 0 -0.00338223 -0.00951242 0 -0.00408054 -0.00961413 0
          -0.00477826 -0.00949993 0 -0.0022733 -0.00792603 0 -0.00245624 -0.00720379 0 -0.00299275 -0.00847051 0
          -0.00323364 -0.00769866 0 -0.00259428 -0.00643238 0 -0.00341542 -0.00687426 0 -0.00374941 -0.00878102 0
          -0.00452357 -0.00887489 0 -0.00405124 -0.00798086 0 -0.00488776 -0.00806617 0 -0.00529708 -0.00876945 0
          -0.00572357 -0.00797031 0 -0.00427901 -0.00712624 0 -0.00516259 -0.0072024 0 -0.00604541 -0.00711679 0
          -0.000475134 -0.0114784 0 -0.000531787 -0.0108669 0 -0.0014056 -0.0113633 0 -0.00157353 -0.010758 0
          -0.000584849 -0.0100562 0 -0.000633377 -0.00906959 0 -0.000676547 -0.00793057 0 -0.00173077 -0.00995535 0
          -0.00187454 -0.0089786 0 -0.00200236 -0.00785097 0 -0.002315 -0.0111353 0 -0.00318925 -0.0107979 0
          -0.00259167 -0.0105421 0 -0.00357047 -0.0102226 0 -0.00401427 -0.010356 0 -0.00449417 -0.00980423 0
          -0.00285075 -0.00975554 0 -0.00308759 -0.00879836 0 -0.00392744 -0.00945979 0 -0.00425377 -0.00853157 0
          -0.00329816 -0.0076933 0 -0.00454388 -0.00745995 0 -0.00494351 -0.00907262 0 -0.00535428 -0.00818233 0
          -0.00571946 -0.0071545 0 -0.000713651 -0.00666258 0 -0.000744101 -0.00528905 0 -0.00211215 -0.00659564 0
          -0.00220214 -0.00523584 0 -0.000767425 -0.00383342 0 -0.000783269 -0.00231913 0 -0.000791398 -0.000769612 0
          -0.00227093 -0.00379475 0 -0.00231748 -0.00229559 0 -0.00234107 -0.000761554 0 -0.00347898 -0.00646311 0
          -0.00479299 -0.006267 0 -0.00362716 -0.00513054 0 -0.00499712 -0.00497475 0 -0.00603302 -0.0060103 0
          -0.00628994 -0.00477086 0 -0.0037404 -0.00371831 0 -0.00381694 -0.00224917 0 -0.00515307 -0.00360526 0
          -0.00525847 -0.00218058 0 -0.00385565 -0.000745858 0 -0.0053117 -0.000722758 0 -0.00648622 -0.00345733 0
          -0.00661884 -0.00209086 0 -0.0066858 -0.000692605 0 -0.004776 -0.00981673 0 -0.00534699 -0.00929364 0
          -0.00546036 -0.00918862 0 -0.00611319 -0.00869896 0 -0.00588163 -0.00860008 0 -0.00637037 -0.00775608 0
          -0.00680485 -0.00678171 0 -0.00672446 -0.00804971 0 -0.00728325 -0.00725965 0 -0.00778001 -0.00634755 0
          -0.00605327 -0.00848204 0 -0.00654066 -0.00770905 0 -0.00677701 -0.00802998 0 -0.00732269 -0.00729814 0
          -0.00690846 -0.00688347 0 -0.00773447 -0.0065165 0 -0.00745467 -0.00743059 0 -0.00807415 -0.00670121 0
          -0.00805493 -0.00675331 0 -0.0087243 -0.00609031 0 -0.00862486 -0.00585916 0 -0.00931935 -0.00532489 0
          -0.00850789 -0.00602994 0 -0.0092149 -0.00543785 0 -0.00984342 -0.00475428 0 -0.00717792 -0.00569702 0
          -0.00748359 -0.00452204 0 -0.00820653 -0.00533216 0 -0.00855601 -0.00423226 0 -0.0077171 -0.00327682 0
          -0.00787486 -0.00198141 0 -0.00795449 -0.000655864 0 -0.00882297 -0.00306661 0 -0.00900332 -0.00185398 0
          -0.00909433 -0.000613119 0 -0.0090977 -0.00492175 0 -0.00983027 -0.00447279 0 -0.00948513 -0.00390632 0
          -0.0102489 -0.00354976 0 -0.0103831 -0.0039933 0 -0.0108252 -0.00316896 0 -0.00978107 -0.00283017 0
          -0.00998101 -0.00171065 0 -0.0105687 -0.00257154 0 -0.0107847 -0.00155388 0 -0.0100819 -0.00056507 0
          -0.0108937 -0.000512534 0 -0.011163 -0.00229533 0 -0.0113912 -0.00138647 0 -0.0115064 -0.000456445 0
          -3.46419e-05 -0.000771426 0 -0.00025276 -0.00217308 0 -3.50369e-05 -0.000658344 0 -0.000255766 -0.00185454 0
          -0.000657886 -0.00334708 0 -0.00121781 -0.00430574 0 -0.0019021 -0.00506138 0 -0.000665791 -0.00285647 0
          -0.0012325 -0.00367463 0 -0.0019251 -0.00431953 0 -3.46572e-05 -0.00054515 0 -3.34446e-05 -0.000434499 0
          -0.000253078 -0.00153568 0 -0.000244224 -0.00122398 0 -3.1348e-05 -0.000329267 0 -0.000228757 -0.000927537 0
          -0.000658844 -0.00236537 0 -0.00121967 -0.00304288 0 -0.000635793 -0.00188527 0 -0.00117698 -0.00242529 0
          -0.00190508 -0.00357693 0 -0.00183837 -0.00285098 0 -0.000595416 -0.00142866 0 -0.00110212 -0.0018379 0
          -0.0017213 -0.00216053 0 -0.00268216 -0.0056263 0 -0.00353114 -0.00601282 0 -0.00271461 -0.00480167 0
          -0.00357388 -0.00513155 0 -0.00442402 -0.00623323 0 -0.00533755 -0.00629983 0 -0.0062503 -0.00622493 0
          -0.00447757 -0.00531967 0 -0.00540215 -0.00537652 0 -0.00632593 -0.00531258 0 -0.00268639 -0.00397621 0
          -0.00259226 -0.00316927 0 -0.0035367 -0.00424942 0 -0.00341271 -0.00338709 0 -0.00242702 -0.00240182 0
          -0.00319499 -0.00256698 0 -0.00443096 -0.00440523 0 -0.00534588 -0.00445232 0 -0.00427552 -0.00351133 0
          -0.00515826 -0.00354891 0 -0.00625999 -0.00439937 0 -0.0060402 -0.00350671 0 -0.00400258 -0.00266123 0
          -0.00482878 -0.00268977 0 -0.00565423 -0.00265783 0 -2.83318e-05 -0.000232555 0 -0.000206269 -0.000655059 0
          -2.4397e-05 -0.000147683 0 -0.000176451 -0.00041587 0 -0.00053655 -0.00100893 0 -0.000992836 -0.00129795 0
          -0.00155026 -0.00152588 0 -0.000458159 -0.000640424 0 -0.000846982 -0.000823929 0 -0.00132172 -0.000968802 0
          -1.96453e-05 -7.81799e-05 0 -1.48318e-05 -2.77595e-05 0 -0.000139263 -0.000219855 0 -9.56973e-05 -7.73141e-05 0
          -1.75144e-05 -1.10853e-06 0 -4.76894e-05 5.57419e-07 0 -0.000359481 -0.000338414 0 -0.000662559 -0.000435607 0
          -0.000240141 -0.000119201 0 -0.000437617 -0.000154129 0 -0.00103215 -0.000512582 0 -0.00067806 -0.000182054 0
          -9.94634e-05 -6.04266e-07 0 -0.000170013 -2.09431e-06 0 -0.000255787 -3.61115e-06 0 -0.00218549 -0.00169642 0
          -0.00287667 -0.00181323 0 -0.00186253 -0.00107732 0 -0.00245089 -0.00115175 0 -0.00360346 -0.00187995 0