<?xml version="1.0"?>
<VTKFile type="UnstructuredGrid" version="0.1" byte_order="LittleEndian">
  <UnstructuredGrid>
    <Piece NumberOfCells="560" NumberOfPoints="615">
      <CellData Scalars="wetting pressure">
        <DataArray type="Float32" Name="wetting pressure" NumberOfComponents="1" format="ascii">
          200000 200000 200000 200000 200000 200000 200000 200000 200000 200000 200000 200000
          200000 200000 200000 200000 200000 200000 200000 200000 200000 200000 200000 200000
          200000 200000 200000 200000 200000 200000 200000 200000 200000 200000 200000 200000
          200000 200000 200000 200000 200000 200000 200000 200000 200000 200000 200000 200000
          200000 200000 200000 200000 200000 200000 200000 200000 200000 200000 200000 200000
          200000 200000 200000 200000 200000 200000 200000 200000 200000 200000 200000 200000
          200000 200000 200000 200000 200000 200000 200000 200000 200000 200000 200000 200000
          200000 200000 200000 200000 200000 200000 200000 200000 200000 200000 200000 200000
          200000 200000 200000 200000 200000 200000 200000 200000 200000 200000 200000 200000
          200000 200000 200000 200000 200000 200000 200000 200000 200000 200000 200000 200000
          200000 200000 200000 200000 200000 200000 200000 200000 200000 200000 200000 200000
          200000 200000 200000 200000 200000 200000 200000 200000 200000 200000 200000 200000
          200000 200000 200000 200000 200000 200000 200000 200000 200000 200000 200000 200000
          200000 200000 200000 200000 200000 200000 200000 200000 200000 200000 200000 200000
          200000 200000 200000 200000 200000 200000 200000 200000 200000 200000 200000 200000
          200000 200000 200000 200000 200000 200000 200000 200000 200000 200000 200000 200000
          200000 200000 200000 200000 200000 200000 200000 200000 200000 200000 200000 200000
          200000 200000 200000 200000 200000 200000 200000 200000 200000 200000 200000 200000
          200000 200000 200000 200000 200000 200000 200000 200000 200000 200000 200000 200000
          200000 200000 200000 200000 200000 200000 200000 200000 200000 200000 200000 200000
          200000 200000 200000 200000 200000 200000 200000 200000 200000 200000 200000 200000
          200000 200000 200000 200000 200000 199999 199999 200000 199999 199999 200000 199999
          199999 200000 199999 199999 200000 199999 199999 200000 199999 199999 200000 199999
          199999 200000 200000 199999 199999 200000 199999 199999 200000 199999 199999 200000
          199999 199999 200000 199999 199999 200000 199999 199999 200000 199999 199999 200000
          200000 200000 200000 200000 200000 200000 200000 200000 200000 200000 200000 200000
          200000 200000 200000 200000 200000 200000 200000 200000 200000 200000 200000 200000
          200000 200000 200000 200000 200000 200000 200000 200000 200000 200000 200000 200000
          200000 200000 200000 200000 200000 200000 200000 200000 200000 200000 200000 200000
          200000 200000 200000 200000 200000 200000 200000 200000 200000 200000 200000 200000
          200000 200000 200000 200000 200000 200000 200000 200000 200000 200000 200000 200000
          200000 200000 200000 200000 200000 200000 200000 200000 200000 200000 200000 200000
          200000 200000 200000 200000 200000 200000 200000 200000 200000 200000 200000 200000
          200000 200000 200000 200000 200000 200000 200000 200000 200000 200000 200000 200000
          200000 200000 200000 200000 200000 200000 200000 200000 200000 200000 200000 200000
          200000 200000 200000 200000 200000 200000 200000 200000 200000 200000 200000 200000
          200000 200000 200000 200000 200000 200000 200000 200000 200000 200000 200000 200000
          200000 200000 200000 200000 200000 200000 200000 200000 200000 200000 200000 200000
          200000 200000 200000 200000 200000 200000 200000 200000 200000 200000 200000 200000
          200000 200000 200000 200000 200000 200000 200000 200000 200000 200000 200000 200000
          200000 200000 200000 200000 200000 200000 200000 200000 200000 200000 200000 200000
          200000 200000 200000 200000 200000 200000 200000 200000 200000 200000 200000 200000
          200000 200000 200000 200000 200000 200000 200000 200000 200000 200000 200000 200000
          200000 200000 200000 200000 200000 200000 200000 200000 200000 200000 200000 200000
          200000 200000 200000 200000 200000 200000 200000 200000 200000 200000 200000 200000
          200000 200000 200000 200000 200000 200000 200000 200000 200000 200000 200000 200000
          200000 200000 200000 200000 199999 199999 199999 199999
        </DataArray>
        <DataArray type="Float32" Name="wetting saturation" NumberOfComponents="1" format="ascii">
          0.771601 0.732497 0.732497 0.771601 0.71553 0.703305 0.703305 0.71553 0.71553 0.703305 0.703305 0.71553
          0.771601 0.732497 0.732497 0.771601 0.693405 0.68488 0.68488 0.693405 0.677217 0.670063 0.670063 0.677217
          0.677217 0.670063 0.670063 0.677217 0.693405 0.68488 0.68488 0.693405 0.693405 0.68488 0.68488 0.693405
          0.677217 0.670063 0.670063 0.677217 0.677217 0.670063 0.670063 0.677217 0.693405 0.68488 0.68488 0.693405
          0.771601 0.732497 0.732497 0.771601 0.71553 0.703305 0.703305 0.71553 0.71553 0.703305 0.703305 0.71553
          0.771601 0.732497 0.732497 0.771601 0.663099 0.65591 0.65591 0.663099 0.647703 0.636158 0.636158 0.647703
          0.647703 0.636158 0.636158 0.647703 0.663099 0.65591 0.65591 0.663099 0.607301 0.341295 0.341295 0.607301
          0.200035 0.2 0.2 0.200035 0.200035 0.2 0.2 0.200035 0.607301 0.341295 0.341295 0.607301
          0.607301 0.341295 0.341295 0.607301 0.200035 0.2 0.2 0.200035 0.200035 0.2 0.2 0.200035
          0.607301 0.341295 0.341295 0.607301 0.663099 0.65591 0.65591 0.663099 0.647703 0.636158 0.636158 0.647703
          0.647703 0.636158 0.636158 0.647703 0.663099 0.65591 0.65591 0.663099 0.663099 0.65591 0.65591 0.663099
          0.647703 0.636158 0.636158 0.647703 0.647703 0.636158 0.636158 0.647703 0.663099 0.65591 0.65591 0.663099
          0.607301 0.341295 0.341295 0.607301 0.200035 0.2 0.2 0.200035 0.200035 0.2 0.2 0.200035
          0.607301 0.341295 0.341295 0.607301 0.607301 0.341295 0.341295 0.607301 0.200035 0.2 0.2 0.200035
          0.200035 0.2 0.2 0.200035 0.607301 0.341295 0.341295 0.607301 0.663099 0.65591 0.65591 0.663099
          0.647703 0.636158 0.636158 0.647703 0.647703 0.636158 0.636158 0.647703 0.663099 0.65591 0.65591 0.663099
          0.771601 0.732497 0.732497 0.771601 0.71553 0.703305 0.703305 0.71553 0.71553 0.703305 0.703305 0.71553
          0.771601 0.732497 0.732497 0.771601 0.693405 0.68488 0.68488 0.693405 0.677217 0.670063 0.670063 0.677217
          0.677217 0.670063 0.670063 0.677217 0.693405 0.68488 0.68488 0.693405 0.693405 0.68488 0.68488 0.693405
          0.677217 0.670063 0.670063 0.677217 0.677217 0.670063 0.670063 0.677217 0.693405 0.68488 0.68488 0.693405
          0.771601 0.732497 0.732497 0.771601 0.71553 0.703305 0.703305 0.71553 0.71553 0.703305 0.703305 0.71553
          0.771601 0.732497 0.732497 0.771601 0.2 0.2 0.2 0.2 0.2 0.2 0.2 0.2
          0.2 0.2 0.2 0.2 0.2 0.2 0.2 0.2 0.2 0.2 0.2 0.2
          0.2 0.2 0.2 0.2 0.2 0.2 0.2 0.2 0.2 0.2 0.2 0.2
          0.2 0.2 0.2 0.2 0.2 0.2 0.2 0.2 0.2 0.2 0.2 0.2
          0.771601 0.732497 0.732497 0.771601 0.71553 0.703305 0.703305 0.71553 0.71553 0.703305 0.703305 0.71553
          0.771601 0.732497 0.732497 0.771601 0.693405 0.68488 0.68488 0.693405 0.677217 0.670063 0.670063 0.677217
          0.677217 0.670063 0.670063 0.677217 0.693405 0.68488 0.68488 0.693405 0.693405 0.68488 0.68488 0.693405
          0.677217 0.670063 0.670063 0.677217 0.677217 0.670063 0.670063 0.677217 0.693405 0.68488 0.68488 0.693405
          0.771601 0.732497 0.732497 0.771601 0.71553 0.703305 0.703305 0.71553 0.71553 0.703305 0.703305 0.71553
          0.771601 0.732497 0.732497 0.771601 0.663099 0.65591 0.65591 0.663099 0.647703 0.636158 0.636158 0.647703
          0.647703 0.636158 0.636158 0.647703 0.663099 0.65591 0.65591 0.663099 0.607301 0.341295 0.341295 0.607301
          0.200035 0.2 0.2 0.200035 0.200035 0.2 0.2 0.200035 0.607301 0.341295 0.341295 0.607301
          0.607301 0.341295 0.341295 0.607301 0.200035 0.2 0.2 0.200035 0.200035 0.2 0.2 0.200035
          0.607301 0.341295 0.341295 0.607301 0.663099 0.65591 0.65591 0.663099 0.647703 0.636158 0.636158 0.647703
          0.647703 0.636158 0.636158 0.647703 0.663099 0.65591 0.65591 0.663099 0.663099 0.65591 0.65591 0.663099
          0.647703 0.636158 0.636158 0.647703 0.647703 0.636158 0.636158 0.647703 0.663099 0.65591 0.65591 0.663099
          0.607301 0.341295 0.341295 0.607301 0.200035 0.2 0.2 0.200035 0.200035 0.2 0.2 0.200035
          0.607301 0.341295 0.341295 0.607301 0.607301 0.341295 0.341295 0.607301 0.200035 0.2 0.2 0.200035
          0.200035 0.2 0.2 0.200035 0.607301 0.341295 0.341295 0.607301 0.663099 0.65591 0.65591 0.663099
          0.647703 0.636158 0.636158 0.647703 0.647703 0.636158 0.636158 0.647703 0.663099 0.65591 0.65591 0.663099
          0.771601 0.732497 0.732497 0.771601 0.71553 0.703305 0.703305 0.71553 0.71553 0.703305 0.703305 0.71553
          0.771601 0.732497 0.732497 0.771601 0.693405 0.68488 0.68488 0.693405 0.677217 0.670063 0.670063 0.677217
          0.677217 0.670063 0.670063 0.677217 0.693405 0.68488 0.68488 0.693405 0.693405 0.68488 0.68488 0.693405
          0.677217 0.670063 0.670063 0.677217 0.677217 0.670063 0.670063 0.677217 0.693405 0.68488 0.68488 0.693405
          0.771601 0.732497 0.732497 0.771601 0.71553 0.703305 0.703305 0.71553 0.71553 0.703305 0.703305 0.71553
          0.771601 0.732497 0.732497 0.771601 0.2 0.2 0.2 0.2
        </DataArray>
      </CellData>
      <Points>
        <DataArray type="Float32" Name="Coordinates" NumberOfComponents="3" format="ascii">
          0 0 0 4.6875 0 0 0 3.125 0 4.6875 3.125 0
          9.375 0 0 9.375 3.125 0 4.6875 6.25 0 9.375 6.25 0
          0 6.25 0 14.0625 0 0 14.0625 3.125 0 18.75 0 0
          18.75 3.125 0 14.0625 6.25 0 18.75 6.25 0 9.375 9.375 0
          14.0625 9.375 0 18.75 9.375 0 14.0625 12.5 0 18.75 12.5 0
          9.375 12.5 0 0 9.375 0 4.6875 9.375 0 4.6875 12.5 0
          0 12.5 0 23.4375 0 0 23.4375 3.125 0 28.125 0 0
          28.125 3.125 0 23.4375 6.25 0 28.125 6.25 0 32.8125 0 0
          32.8125 3.125 0 37.5 0 0 37.5 3.125 0 32.8125 6.25 0
          37.5 6.25 0 28.125 9.375 0 32.8125 9.375 0 37.5 9.375 0
          32.8125 12.5 0 37.5 12.5 0 28.125 12.5 0 23.4375 9.375 0
          23.4375 12.5 0 18.75 15.625 0 23.4375 15.625 0 28.125 15.625 0
          23.4375 18.75 0 28.125 18.75 0 18.75 18.75 0 32.8125 15.625 0
          37.5 15.625 0 32.8125 18.75 0 37.5 18.75 0 28.125 21.875 0
          32.8125 21.875 0 37.5 21.875 0 32.8125 25 0 37.5 25 0
          28.125 25 0 18.75 21.875 0 23.4375 21.875 0 23.4375 25 0
          18.75 25 0 0 15.625 0 4.6875 15.625 0 9.375 15.625 0
          4.6875 18.75 0 9.375 18.75 0 0 18.75 0 14.0625 15.625 0
          14.0625 18.75 0 9.375 21.875 0 14.0625 21.875 0 14.0625 25 0
          9.375 25 0 0 21.875 0 4.6875 21.875 0 4.6875 25 0
          0 25 0 42.1875 0 0 42.1875 3.125 0 46.875 0 0
          46.875 3.125 0 42.1875 6.25 0 46.875 6.25 0 51.5625 0 0
          51.5625 3.125 0 56.25 0 0 56.25 3.125 0 51.5625 6.25 0
          56.25 6.25 0 46.875 9.375 0 51.5625 9.375 0 56.25 9.375 0
          51.5625 12.5 0 56.25 12.5 0 46.875 12.5 0 42.1875 9.375 0
          42.1875 12.5 0 60.9375 0 0 60.9375 3.125 0 65.625 0 0
          65.625 3.125 0 60.9375 6.25 0 65.625 6.25 0 70.3125 0 0
          70.3125 3.125 0 75 0 0 75 3.125 0 70.3125 6.25 0
          75 6.25 0 65.625 9.375 0 70.3125 9.375 0 75 9.375 0
          70.3125 12.5 0 75 12.5 0 65.625 12.5 0 60.9375 9.375 0
          60.9375 12.5 0 56.25 15.625 0 60.9375 15.625 0 65.625 15.625 0
          60.9375 18.75 0 65.625 18.75 0 56.25 18.75 0 70.3125 15.625 0
          75 15.625 0 70.3125 18.75 0 75 18.75 0 65.625 21.875 0
          70.3125 21.875 0 75 21.875 0 70.3125 25 0 75 25 0
          65.625 25 0 56.25 21.875 0 60.9375 21.875 0 60.9375 25 0
          56.25 25 0 42.1875 15.625 0 46.875 15.625 0 42.1875 18.75 0
          46.875 18.75 0 51.5625 15.625 0 51.5625 18.75 0 46.875 21.875 0
          51.5625 21.875 0 51.5625 25 0 46.875 25 0 42.1875 21.875 0
          42.1875 25 0 37.5 28.125 0 42.1875 28.125 0 46.875 28.125 0
          42.1875 31.25 0 46.875 31.25 0 37.5 31.25 0 51.5625 28.125 0
          56.25 28.125 0 51.5625 31.25 0 56.25 31.25 0 46.875 34.375 0
          51.5625 34.375 0 56.25 34.375 0 51.5625 37.5 0 56.25 37.5 0
          46.875 37.5 0 37.5 34.375 0 42.1875 34.375 0 42.1875 37.5 0
          37.5 37.5 0 60.9375 28.125 0 65.625 28.125 0 60.9375 31.25 0
          65.625 31.25 0 70.3125 28.125 0 75 28.125 0 70.3125 31.25 0
          75 31.25 0 65.625 34.375 0 70.3125 34.375 0 75 34.375 0
          70.3125 37.5 0 75 37.5 0 65.625 37.5 0 60.9375 34.375 0
          60.9375 37.5 0 56.25 40.625 0 60.9375 40.625 0 65.625 40.625 0
          60.9375 43.75 0 65.625 43.75 0 56.25 43.75 0 70.3125 40.625 0
          75 40.625 0 70.3125 43.75 0 75 43.75 0 65.625 46.875 0
          70.3125 46.875 0 75 46.875 0 70.3125 50 0 75 50 0
          65.625 50 0 56.25 46.875 0 60.9375 46.875 0 60.9375 50 0
          56.25 50 0 37.5 40.625 0 42.1875 40.625 0 46.875 40.625 0
          42.1875 43.75 0 46.875 43.75 0 37.5 43.75 0 51.5625 40.625 0
          51.5625 43.75 0 46.875 46.875 0 51.5625 46.875 0 51.5625 50 0
          46.875 50 0 37.5 46.875 0 42.1875 46.875 0 42.1875 50 0
          37.5 50 0 0 28.125 0 4.6875 28.125 0 9.375 28.125 0
          4.6875 31.25 0 9.375 31.25 0 0 31.25 0 14.0625 28.125 0
          18.75 28.125 0 14.0625 31.25 0 18.75 31.25 0 9.375 34.375 0
          14.0625 34.375 0 18.75 34.375 0 14.0625 37.5 0 18.75 37.5 0
          9.375 37.5 0 0 34.375 0 4.6875 34.375 0 4.6875 37.5 0
          0 37.5 0 23.4375 28.125 0 28.125 28.125 0 23.4375 31.25 0
          28.125 31.25 0 32.8125 28.125 0 32.8125 31.25 0 28.125 34.375 0
          32.8125 34.375 0 32.8125 37.5 0 28.125 37.5 0 23.4375 34.375 0
          23.4375 37.5 0 18.75 40.625 0 23.4375 40.625 0 28.125 40.625 0
          23.4375 43.75 0 28.125 43.75 0 18.75 43.75 0 32.8125 40.625 0
          32.8125 43.75 0 28.125 46.875 0 32.8125 46.875 0 32.8125 50 0
          28.125 50 0 18.75 46.875 0 23.4375 46.875 0 23.4375 50 0
          18.75 50 0 0 40.625 0 4.6875 40.625 0 9.375 40.625 0
          4.6875 43.75 0 9.375 43.75 0 0 43.75 0 14.0625 40.625 0
          14.0625 43.75 0 9.375 46.875 0 14.0625 46.875 0 14.0625 50 0
          9.375 50 0 0 46.875 0 4.6875 46.875 0 4.6875 50 0
          0 50 0 84.375 0 0 84.375 6.25 0 93.75 0 0
          93.75 6.25 0 84.375 12.5 0 93.75 12.5 0 112.5 0 0
          112.5 12.5 0 93.75 25 0 112.5 25 0 84.375 18.75 0
          93.75 18.75 0 84.375 25 0 150 0 0 150 25 0
          112.5 50 0 150 50 0 84.375 31.25 0 93.75 31.25 0
          84.375 37.5 0 93.75 37.5 0 112.5 37.5 0 93.75 50 0
          84.375 43.75 0 93.75 43.75 0 84.375 50 0 75 56.25 0
          84.375 56.25 0 93.75 56.25 0 84.375 62.5 0 93.75 62.5 0
          75 62.5 0 112.5 62.5 0 93.75 75 0 112.5 75 0
          75 68.75 0 84.375 68.75 0 93.75 68.75 0 84.375 75 0
          75 75 0 150 75 0 112.5 100 0 150 100 0
          75 81.25 0 84.375 81.25 0 93.75 81.25 0 84.375 87.5 0
          93.75 87.5 0 75 87.5 0 112.5 87.5 0 93.75 100 0
          75 93.75 0 84.375 93.75 0 93.75 93.75 0 84.375 100 0
          75 100 0 0 53.125 0 4.6875 53.125 0 9.375 53.125 0
          4.6875 56.25 0 9.375 56.25 0 0 56.25 0 14.0625 53.125 0
          18.75 53.125 0 14.0625 56.25 0 18.75 56.25 0 9.375 59.375 0
          14.0625 59.375 0 18.75 59.375 0 14.0625 62.5 0 18.75 62.5 0
          9.375 62.5 0 0 59.375 0 4.6875 59.375 0 4.6875 62.5 0
          0 62.5 0 23.4375 53.125 0 28.125 53.125 0 23.4375 56.25 0
          28.125 56.25 0 32.8125 53.125 0 37.5 53.125 0 32.8125 56.25 0
          37.5 56.25 0 28.125 59.375 0 32.8125 59.375 0 37.5 59.375 0
          32.8125 62.5 0 37.5 62.5 0 28.125 62.5 0 23.4375 59.375 0
          23.4375 62.5 0 18.75 65.625 0 23.4375 65.625 0 28.125 65.625 0
          23.4375 68.75 0 28.125 68.75 0 18.75 68.75 0 32.8125 65.625 0
          37.5 65.625 0 32.8125 68.75 0 37.5 68.75 0 28.125 71.875 0
          32.8125 71.875 0 37.5 71.875 0 32.8125 75 0 37.5 75 0
          28.125 75 0 18.75 71.875 0 23.4375 71.875 0 23.4375 75 0
          18.75 75 0 0 65.625 0 4.6875 65.625 0 9.375 65.625 0
          4.6875 68.75 0 9.375 68.75 0 0 68.75 0 14.0625 65.625 0
          14.0625 68.75 0 9.375 71.875 0 14.0625 71.875 0 14.0625 75 0
          9.375 75 0 0 71.875 0 4.6875 71.875 0 4.6875 75 0
          0 75 0 42.1875 53.125 0 46.875 53.125 0 42.1875 56.25 0
          46.875 56.25 0 51.5625 53.125 0 56.25 53.125 0 51.5625 56.25 0
          56.25 56.25 0 46.875 59.375 0 51.5625 59.375 0 56.25 59.375 0
          51.5625 62.5 0 56.25 62.5 0 46.875 62.5 0 42.1875 59.375 0
          42.1875 62.5 0 60.9375 53.125 0 65.625 53.125 0 60.9375 56.25 0
          65.625 56.25 0 70.3125 53.125 0 75 53.125 0 70.3125 56.25 0
          65.625 59.375 0 70.3125 59.375 0 75 59.375 0 70.3125 62.5 0
          65.625 62.5 0 60.9375 59.375 0 60.9375 62.5 0 56.25 65.625 0
          60.9375 65.625 0 65.625 65.625 0 60.9375 68.75 0 65.625 68.75 0
          56.25 68.75 0 70.3125 65.625 0 75 65.625 0 70.3125 68.75 0
          65.625 71.875 0 70.3125 71.875 0 75 71.875 0 70.3125 75 0
          65.625 75 0 56.25 71.875 0 60.9375 71.875 0 60.9375 75 0
          56.25 75 0 42.1875 65.625 0 46.875 65.625 0 42.1875 68.75 0
          46.875 68.75 0 51.5625 65.625 0 51.5625 68.75 0 46.875 71.875 0
          51.5625 71.875 0 51.5625 75 0 46.875 75 0 42.1875 71.875 0
          42.1875 75 0 37.5 78.125 0 42.1875 78.125 0 46.875 78.125 0
          42.1875 81.25 0 46.875 81.25 0 37.5 81.25 0 51.5625 78.125 0
          56.25 78.125 0 51.5625 81.25 0 56.25 81.25 0 46.875 84.375 0
          51.5625 84.375 0 56.25 84.375 0 51.5625 87.5 0 56.25 87.5 0
          46.875 87.5 0 37.5 84.375 0 42.1875 84.375 0 42.1875 87.5 0
          37.5 87.5 0 60.9375 78.125 0 65.625 78.125 0 60.9375 81.25 0
          65.625 81.25 0 70.3125 78.125 0 75 78.125 0 70.3125 81.25 0
          65.625 84.375 0 70.3125 84.375 0 75 84.375 0 70.3125 87.5 0
          65.625 87.5 0 60.9375 84.375 0 60.9375 87.5 0 56.25 90.625 0
          60.9375 90.625 0 65.625 90.625 0 60.9375 93.75 0 65.625 93.75 0
          56.25 93.75 0 70.3125 90.625 0 75 90.625 0 70.3125 93.75 0
          65.625 96.875 0 70.3125 96.875 0 75 96.875 0 70.3125 100 0
          65.625 100 0 56.25 96.875 0 60.9375 96.875 0 60.9375 100 0
          56.25 100 0 37.5 90.625 0 42.1875 90.625 0 46.875 90.625 0
          42.1875 93.75 0 46.875 93.75 0 37.5 93.75 0 51.5625 90.625 0
          51.5625 93.75 0 46.875 96.875 0 51.5625 96.875 0 51.5625 100 0
          46.875 100 0 37.5 96.875 0 42.1875 96.875 0 42.1875 100 0
          37.5 100 0 0 78.125 0 4.6875 78.125 0 9.375 78.125 0
          4.6875 81.25 0 9.375 81.25 0 0 81.25 0 14.0625 78.125 0
          18.75 78.125 0 14.0625 81.25 0 18.75 81.25 0 9.375 84.375 0
          14.0625 84.375 0 18.75 84.375 0 14.0625 87.5 0 18.75 87.5 0
          9.375 87.5 0 0 84.375 0 4.6875 84.375 0 4.6875 87.5 0
          0 87.5 0 23.4375 78.125 0 28.125 78.125 0 23.4375 81.25 0
          28.125 81.25 0 32.8125 78.125 0 32.8125 81.25 0 28.125 84.375 0
          32.8125 84.375 0 32.8125 87.5 0 28.125 87.5 0 23.4375 84.375 0
          23.4375 87.5 0 18.75 90.625 0 23.4375 90.625 0 28.125 90.625 0
          23.4375 93.75 0 28.125 93.75 0 18.75 93.75 0 32.8125 90.625 0
          32.8125 93.75 0 28.125 96.875 0 32.8125 96.875 0 32.8125 100 0
          28.125 100 0 18.75 96.875 0 23.4375 96.875 0 23.4375 100 0
          18.75 100 0 0 90.625 0 4.6875 90.625 0 9.375 90.625 0
          4.6875 93.75 0 9.375 93.75 0 0 93.75 0 14.0625 90.625 0
          14.0625 93.75 0 9.375 96.875 0 14.0625 96.875 0 14.0625 100 0
          9.375 100 0 0 96.875 0 4.6875 96.875 0 4.6875 100 0
          0 100 0 225 0 0 225 50 0 300 0 0
          300 50 0 225 100 0 300 100 0
        </DataArray>
      </Points>
      <Cells>
        <DataArray type="Int32" Name="connectivity" NumberOfComponents="1" format="ascii">
          0 1 3 2 1 4 5 3 3 5 7 6
          2 3 6 8 4 9 10 5 9 11 12 10
          10 12 14 13 5 10 13 7 7 13 16 15
          13 14 17 16 16 17 19 18 15 16 18 20
          8 6 22 21 6 7 15 22 22 15 20 23
          21 22 23 24 11 25 26 12 25 27 28 26
          26 28 30 29 12 26 29 14 27 31 32 28
          31 33 34 32 32 34 36 35 28 32 35 30
          30 35 38 37 35 36 39 38 38 39 41 40
          37 38 40 42 14 29 43 17 29 30 37 43
          43 37 42 44 17 43 44 19 19 44 46 45
          44 42 47 46 46 47 49 48 45 46 48 50
          42 40 51 47 40 41 52 51 51 52 54 53
          47 51 53 49 49 53 56 55 53 54 57 56
          56 57 59 58 55 56 58 60 50 48 62 61
          48 49 55 62 62 55 60 63 61 62 63 64
          24 23 66 65 23 20 67 66 66 67 69 68
          65 66 68 70 20 18 71 67 18 19 45 71
          71 45 50 72 67 71 72 69 69 72 74 73
          72 50 61 74 74 61 64 75 73 74 75 76
          70 68 78 77 68 69 73 78 78 73 76 79
          77 78 79 80 33 81 82 34 81 83 84 82
          82 84 86 85 34 82 85 36 83 87 88 84
          87 89 90 88 88 90 92 91 84 88 91 86
          86 91 94 93 91 92 95 94 94 95 97 96
          93 94 96 98 36 85 99 39 85 86 93 99
          99 93 98 100 39 99 100 41 89 101 102 90
          101 103 104 102 102 104 106 105 90 102 105 92
          103 107 108 104 107 109 110 108 108 110 112 111
          104 108 111 106 106 111 114 113 111 112 115 114
          114 115 117 116 113 114 116 118 92 105 119 95
          105 106 113 119 119 113 118 120 95 119 120 97
          97 120 122 121 120 118 123 122 122 123 125 124
          121 122 124 126 118 116 127 123 116 117 128 127
          127 128 130 129 123 127 129 125 125 129 132 131
          129 130 133 132 132 133 135 134 131 132 134 136
          126 124 138 137 124 125 131 138 138 131 136 139
          137 138 139 140 41 100 141 52 100 98 142 141
          141 142 144 143 52 141 143 54 98 96 145 142
          96 97 121 145 145 121 126 146 142 145 146 144
          144 146 148 147 146 126 137 148 148 137 140 149
          147 148 149 150 54 143 151 57 143 144 147 151
          151 147 150 152 57 151 152 59 59 152 154 153
          152 150 155 154 154 155 157 156 153 154 156 158
          150 149 159 155 149 140 160 159 159 160 162 161
          155 159 161 157 157 161 164 163 161 162 165 164
          164 165 167 166 163 164 166 168 158 156 170 169
          156 157 163 170 170 163 168 171 169 170 171 172
          140 139 173 160 139 136 174 173 173 174 176 175
          160 173 175 162 136 134 177 174 134 135 178 177
          177 178 180 179 174 177 179 176 176 179 182 181
          179 180 183 182 182 183 185 184 181 182 184 186
          162 175 187 165 175 176 181 187 187 181 186 188
          165 187 188 167 167 188 190 189 188 186 191 190
          190 191 193 192 189 190 192 194 186 184 195 191
          184 185 196 195 195 196 198 197 191 195 197 193
          193 197 200 199 197 198 201 200 200 201 203 202
          199 200 202 204 194 192 206 205 192 193 199 206
          206 199 204 207 205 206 207 208 172 171 210 209
          171 168 211 210 210 211 213 212 209 210 212 214
          168 166 215 211 166 167 189 215 215 189 194 216
          211 215 216 213 213 216 218 217 216 194 205 218
          218 205 208 219 217 218 219 220 214 212 222 221
          212 213 217 222 222 217 220 223 221 222 223 224
          80 79 226 225 79 76 227 226 226 227 229 228
          225 226 228 230 76 75 231 227 75 64 232 231
          231 232 234 233 227 231 233 229 229 233 236 235
          233 234 237 236 236 237 239 238 235 236 238 240
          230 228 242 241 228 229 235 242 242 235 240 243
          241 242 243 244 64 63 245 232 63 60 246 245
          245 246 248 247 232 245 247 234 60 58 249 246
          58 59 153 249 249 153 158 250 246 249 250 248
          248 250 252 251 250 158 169 252 252 169 172 253
          251 252 253 254 234 247 255 237 247 248 251 255
          255 251 254 256 237 255 256 239 239 256 258 257
          256 254 259 258 258 259 261 260 257 258 260 262
          254 253 263 259 253 172 209 263 263 209 214 264
          259 263 264 261 261 264 266 265 264 214 221 266
          266 221 224 267 265 266 267 268 262 260 270 269
          260 261 265 270 270 265 268 271 269 270 271 272
          244 243 274 273 243 240 275 274 274 275 277 276
          273 274 276 278 240 238 279 275 238 239 257 279
          279 257 262 280 275 279 280 277 277 280 282 281
          280 262 269 282 282 269 272 283 281 282 283 284
          278 276 286 285 276 277 281 286 286 281 284 287
          285 286 287 288 109 289 290 112 289 291 292 290
          290 292 294 293 112 290 293 117 291 295 296 294
          294 296 298 297 117 293 299 130 293 294 300 299
          299 300 297 301 130 299 301 135 295 302 303 298
          298 303 305 304 135 301 306 180 301 297 307 306
          306 307 309 308 180 306 308 185 297 298 310 309
          309 310 304 311 185 308 312 198 308 309 313 312
          312 313 311 314 198 312 314 203 203 314 316 315
          314 311 317 316 316 317 319 318 315 316 318 320
          311 304 321 319 319 321 323 322 320 318 325 324
          318 319 326 325 325 326 322 327 324 325 327 328
          304 305 329 323 323 329 331 330 328 327 333 332
          327 322 334 333 333 334 336 335 332 333 335 337
          322 323 338 336 336 338 330 339 337 335 341 340
          335 336 342 341 341 342 339 343 340 341 343 344
          288 287 346 345 287 284 347 346 346 347 349 348
          345 346 348 350 284 283 351 347 283 272 352 351
          351 352 354 353 347 351 353 349 349 353 356 355
          353 354 357 356 356 357 359 358 355 356 358 360
          350 348 362 361 348 349 355 362 362 355 360 363
          361 362 363 364 272 271 365 352 271 268 366 365
          365 366 368 367 352 365 367 354 268 267 369 366
          267 224 370 369 369 370 372 371 366 369 371 368
          368 371 374 373 371 372 375 374 374 375 377 376
          373 374 376 378 354 367 379 357 367 368 373 379
          379 373 378 380 357 379 380 359 359 380 382 381
          380 378 383 382 382 383 385 384 381 382 384 386
          378 376 387 383 376 377 388 387 387 388 390 389
          383 387 389 385 385 389 392 391 389 390 393 392
          392 393 395 394 391 392 394 396 386 384 398 397
          384 385 391 398 398 391 396 399 397 398 399 400
          364 363 402 401 363 360 403 402 402 403 405 404
          401 402 404 406 360 358 407 403 358 359 381 407
          407 381 386 408 403 407 408 405 405 408 410 409
          408 386 397 410 410 397 400 411 409 410 411 412
          406 404 414 413 404 405 409 414 414 409 412 415
          413 414 415 416 224 223 417 370 223 220 418 417
          417 418 420 419 370 417 419 372 220 219 421 418
          219 208 422 421 421 422 424 423 418 421 423 420
          420 423 426 425 423 424 427 426 426 427 429 428
          425 426 428 430 372 419 431 375 419 420 425 431
          431 425 430 432 375 431 432 377 208 207 433 422
          207 204 434 433 433 434 436 435 422 433 435 424
          204 202 437 434 202 203 438 437 437 438 315 439
          434 437 439 436 436 439 441 440 439 315 442 441
          441 442 320 443 440 441 443 444 424 435 445 427
          435 436 440 445 445 440 444 446 427 445 446 429
          429 446 448 447 446 444 449 448 448 449 451 450
          447 448 450 452 444 443 453 449 443 320 454 453
          453 454 324 455 449 453 455 451 451 455 457 456
          455 324 458 457 457 458 328 459 456 457 459 460
          452 450 462 461 450 451 456 462 462 456 460 463
          461 462 463 464 377 432 465 388 432 430 466 465
          465 466 468 467 388 465 467 390 430 428 469 466
          428 429 447 469 469 447 452 470 466 469 470 468
          468 470 472 471 470 452 461 472 472 461 464 473
          471 472 473 474 390 467 475 393 467 468 471 475
          475 471 474 476 393 475 476 395 395 476 478 477
          476 474 479 478 478 479 481 480 477 478 480 482
          474 473 483 479 473 464 484 483 483 484 486 485
          479 483 485 481 481 485 488 487 485 486 489 488
          488 489 491 490 487 488 490 492 482 480 494 493
          480 481 487 494 494 487 492 495 493 494 495 496
          464 463 497 484 463 460 498 497 497 498 500 499
          484 497 499 486 460 459 501 498 459 328 502 501
          501 502 332 503 498 501 503 500 500 503 505 504
          503 332 506 505 505 506 337 507 504 505 507 508
          486 499 509 489 499 500 504 509 509 504 508 510
          489 509 510 491 491 510 512 511 510 508 513 512
          512 513 515 514 511 512 514 516 508 507 517 513
          507 337 518 517 517 518 340 519 513 517 519 515
          515 519 521 520 519 340 522 521 521 522 344 523
          520 521 523 524 516 514 526 525 514 515 520 526
          526 520 524 527 525 526 527 528 496 495 530 529
          495 492 531 530 530 531 533 532 529 530 532 534
          492 490 535 531 490 491 511 535 535 511 516 536
          531 535 536 533 533 536 538 537 536 516 525 538
          538 525 528 539 537 538 539 540 534 532 542 541
          532 533 537 542 542 537 540 543 541 542 543 544
          416 415 546 545 415 412 547 546 546 547 549 548
          545 546 548 550 412 411 551 547 411 400 552 551
          551 552 554 553 547 551 553 549 549 553 556 555
          553 554 557 556 556 557 559 558 555 556 558 560
          550 548 562 561 548 549 555 562 562 555 560 563
          561 562 563 564 400 399 565 552 399 396 566 565
          565 566 568 567 552 565 567 554 396 394 569 566
          394 395 477 569 569 477 482 570 566 569 570 568