<?xml version="1.0"?>
<VTKFile type="UnstructuredGrid" version="0.1" byte_order="LittleEndian">
  <UnstructuredGrid>
    <Piece NumberOfCells="3667" NumberOfPoints="3794">
      <CellData Scalars="S_liq">
        <DataArray type="Float32" Name="S_liq" NumberOfComponents="1" format="ascii">
          0.510958 0.542006 0.476826 0.546655 0.525351 0.566052 0.582193 0.596961 0.568921 0.492367 0.392347 0.448485
          0.377049 0.492395 0.528997 0.587665 0.555527 0.577277 0.614618 0.632841 0.651698 0.67191 0.6992 0.750354
          0.607673 0.647674 0.629443 0.598493 0.66229 0.679876 0.711217 0.669317 0.653774 0.684416 0.438727 0.35246
          0.486129 0.520399 0.415959 0.54844 0.571589 0.354494 0.451005 0.494121 0.391123 0.510567 0.525651 0.551038
          0.573353 0.539313 0.561074 0.619546 0.631736 0.593071 0.6584 0.636561 0.699296 0.613193 0.624358 0.593271
          0.612382 0.646779 0.666518 0.634233 0.67684 0.904285 1 1 1 1 0.807451 0.982899
          1 1 1 1 1 1 1 1 1 1 1 1
          1 1 1 1 1 1 1 1 1 1 1 1
          0.780454 0.951235 0.983813 1 1 0.711112 0.801455 0.745933 0.87614 1 1 1
          1 1 1 1 1 1 1 1 1 1 1 0.471351
          0.410756 0.475702 0.50705 0.536309 0.5814 0.559113 0.573133 0.589174 0.517001 0.548896 0.423798 0.487425
          0.573491 0.585172 0.596546 0.598229 0.612971 0.622556 0.602341 0.621418 0.629817 0.641687 0.65874 0.672364
          0.614518 0.624341 0.636497 0.607035 0.616783 0.628596 0.650553 0.646082 0.668973 0.415239 0.527301 0.476852
          0.511626 0.560543 0.576698 0.537455 0.55624 0.57107 0.384922 0.44561 0.510619 0.392803 0.480566 0.532573
          0.552755 0.525189 0.569629 0.588706 0.600338 0.612236 0.64447 0.621497 0.667175 0.586833 0.600537 0.612755
          0.587522 0.603631 0.620589 0.626134 0.647865 0.674314 0.706512 0.768606 0.699015 0.930089 1 1
          1 0.748502 0.877409 0.694202 0.735182 1 1 1 1 1 1 1
          1 1 1 1 1 0.68621 0.838252 0.713021 0.786919 1 1 1
          0.952804 1 0.695567 0.759915 1 0.880971 1 1 1 1 1 1
          1 1 1 1 1 1 1 1 1 1 1 1
          1 1 1 1 1 1 1 1 1 1 1 1
          1 1 1 1 1 1 1 1 1 1 1 1
          1 1 1 1 1 1 1 1 1 1 1 1
          1 1 1 1 1 1 1 1 1 1 1 1
          1 1 1 1 1 1 1 1 1 1 1 1
          1 1 1 1 1 1 1 1 1 1 1 1
          1 1 1 1 1 1 1 1 1 1 1 1
          1 1 1 1 1 1 1 1 1 1 1 1
          1 1 1 1 1 1 1 1 1 1 1 1
          1 1 1 1 1 1 1 1 1 1 1 1
          1 1 1 1 1 1 1 1 1 1 1 1
          1 1 1 1 1 1 1 1 1 1 1 1
          1 1 1 1 1 1 1 1 1 1 1 1
          1 1 1 1 1 1 1 1 1 1 1 1
          1 1 1 1 1 1 1 1 1 1 1 1
          1 1 1 1 1 1 1 1 1 1 1 1
          1 1 1 1 1 1 1 1 1 1 1 1
          1 1 1 1 1 1 1 1 1 1 0.458364 0.507038
          0.409249 0.484853 0.520948 0.548988 0.569201 0.547688 0.455358 0.392279 0.491759 0.447821 0.359744 0.487684
          0.57027 0.520637 0.546667 0.56962 0.589914 0.609622 0.630114 0.638046 0.66119 0.652526 0.592039 0.613694
          0.591729 0.635043 0.680273 0.660146 0.688834 0.418859 0.360979 0.445685 0.489486 0.521539 0.54372 0.564927
          0.553071 0.390571 0.461054 0.494109 0.410315 0.529659 0.5797 0.614446 0.635282 0.58779 0.610405 0.659743
          0.681859 0.630307 0.603232 0.622538 0.649435 0.681199 0.661422 0.694106 0.746665 0.851933 1 1
          1 0.96417 1 1 0.72951 0.806796 0.742307 0.954961 1 1 1 1
          1 1 1 1 1 1 1 1 1 1 1 1
          1 1 0.804236 0.7116 0.751299 0.890391 1 1 1 0.71125 0.779483 0.703324
          0.959053 1 1 1 1 1 1 1 1 1 1 1
          1 1 1 1 1 1 1 1 1 0.441746 0.484156 0.518518
          0.477453 0.491457 0.550604 0.549626 0.582199 0.515503 0.505593 0.564705 0.57846 0.605693 0.587611 0.606025
          0.62621 0.636624 0.649483 0.641067 0.692557 0.627125 0.647204 0.682276 0.668121 0.709336 0.695946 0.727968
          0.527277 0.534944 0.574842 0.550745 0.585236 0.612196 0.619107 0.594111 0.612675 0.546667 0.566107 0.563538
          0.596787 0.607154 0.62766 0.624565 0.628264 0.638156 0.641327 0.660526 0.682726 0.716663 0.790888 0.63323
          0.657337 0.677618 0.64711 0.672571 0.698847 0.705215 0.759535 0.923464 0.74221 0.852785 1 0.752745
          0.914451 1 1 1 1 0.870958 1 0.988333 1 1 1 1
          1 1 1 1 1 1 1 1 1 1 1 1
          1 1 1 1 1 1 1 1 1 1 1 1
          1 1 1 1 1 1 1 1 1 1 1 1
          1 1 1 1 1 1 1 1 1 1 1 1
          1 1 1 1 1 1 1 1 1 1 1 1
          1 1 1 1 1 1 1 1 1 1 1 1
          1 1 1 1 1 1 1 1 1 1 1 1
          1 1 1 1 1 1 1 1 1 1 1 1
          1 1 1 1 1 1 1 1 1 1 1 1
          1 1 1 1 1 1 1 1 1 1 1 1
          1 1 1 1 1 1 1 1 1 1 1 1
          1 1 1 1 1 1 1 1 1 1 1 1
          1 1 1 1 1 1 1 1 1 1 1 1
          1 1 1 1 1 1 1 1 1 1 1 1
          1 1 1 1 1 1 1 1 1 1 1 1
          1 1 1 1 1 1 1 1 1 1 1 1
          1 1 1 1 1 1 1 1 1 1 1 1
          1 1 1 1 1 1 1 1 1 1 1 1
          1 1 1 1 1 1 1 1 1 1 1 1
          1 1 1 1 1 1 1 1 1 1 1 1
          1 1 1 1 1 1 1 1 1 1 1 1
          1 1 1 1 1 1 1 1 1 1 1 1
          1 1 1 1 1 1 1 1 1 1 1 1
          1 1 1 1 1 1 1 1 1 1 1 1
          1 1 1 1 1 1 1 1 1 1 1 1
          1 1 1 1 1 1 1 1 1 1 1 1
          1 1 1 1 1 1 1 1 1 1 1 1
          1 1 1 1 1 1 1 1 1 1 1 1
          1 1 1 1 1 1 1 1 1 1 1 1
          1 1 1 1 1 1 1 1 1 1 1 1
          1 1 1 1 1 1 1 1 1 1 1 1
          1 1 1 1 1 1 1 1 1 1 1 1
          1 1 1 1 1 1 1 1 1 1 1 1
          1 1 1 1 1 1 1 1 1 1 1 1
          1 1 1 1 1 1 1 1 1 1 1 1
          1 1 1 1 1 1 1 1 1 1 1 1
          1 1 1 1 1 1 1 1 1 1 1 1
          1 1 1 1 1 1 1 1 1 1 1 1
          1 1 1 1 1 1 1 1 1 1 1 1
          1 1 1 1 1 1 1 1 1 1 1 1
          1 1 1 1 1 1 1 1 1 1 1 1
          1 1 1 1 1 1 1 1 1 1 1 1
          1 1 1 1 1 1 1 1 1 1 1 1
          1 1 1 1 1 1 1 1 1 1 1 1
          1 1 1 1 1 1 1 1 1 1 1 1
          1 1 1 1 1 1 1 1 1 1 1 1
          1 1 1 1 1 1 1 1 1 1 1 1
          1 1 1 1 1 1 1 1 1 1 1 1
          1 1 1 1 1 1 1 1 1 1 1 1
          1 1 1 1 1 1 1 1 1 1 1 1
          1 1 1 1 1 1 1 1 1 1 1 1
          1 1 1 1 1 1 1 1 1 1 1 1
          1 1 1 1 1 1 1 1 1 1 1 1
          1 1 1 1 1 1 1 1 1 1 1 1
          1 1 1 1 1 1 1 1 1 1 1 1
          1 1 1 1 1 1 1 1 1 1 1 1
          1 1 1 1 1 1 1 1 1 1 1 1
          1 1 1 1 1 1 1 1 1 1 1 1
          1 1 1 1 1 1 1 1 1 1 1 1
          1 1 1 1 1 1 1 1 1 1 1 1
          1 1 1 1 1 1 1 1 1 1 1 1
          1 1 1 1 1 1 1 1 1 1 1 1
          1 1 1 1 1 1 1 1 1 1 1 1
          1 1 1 1 1 1 1 1 1 1 1 1
          1 1 1 1 1 1 1 1 1 1 1 1
          1 1 1 1 1 1 1 1 1 1 1 1
          1 1 1 1 1 1 1 1 1 1 1 1
          1 1 1 1 1 1 1 1 1 1 1 1
          1 1 1 1 1 1 1 1 1 1 1 1
          1 1 1 1 1 1 1 1 1 1 1 1
          1 1 1 1 1 1 1 1 1 1 1 1
          1 1 1 1 1 1 1 1 1 1 1 1
          1 1 1 1 1 1 1 1 1 1 1 1
          1 1 1 1 1 1 1 1 1 1 1 1
          1 1 1 1 1 1 1 1 1 1 1 1
          1 1 1 1 1 1 1 1 1 1 1 1
          1 1 1 1 1 1 1 1 1 1 1 1
          1 1 1 1 1 1 1 1 1 1 1 1
          1 1 1 1 1 1 1 1 1 1 1 1
          1 1 1 1 1 1 1 1 1 1 1 1
          1 1 1 1 1 1 1 1 1 1 1 1
          1 1 1 1 1 1 1 1 1 1 1 1
          1 1 1 1 1 1 1 1 1 1 1 1
          1 1 1 1 1 1 1 1 1 1 1 1
          1 1 1 1 1 1 1 1 1 1 1 1
          1 1 1 1 1 1 1 1 1 1 1 1
          1 1 1 1 1 1 1 1 1 1 1 1
          1 1 1 1 1 1 1 1 1 1 1 1
          1 1 1 1 1 1 1 1 1 1 1 1
          1 1 1 1 1 1 1 1 1 1 1 1
          1 1 1 1 1 1 1 1 1 1 1 1
          1 1 1 1 1 1 1 1 1 1 1 1
          1 1 1 1 1 1 1 1 1 1 1 1
          1 1 1 1 1 1 1 1 1 1 1 1
          1 1 1 1 1 1 1 1 1 1 1 1
          1 1 1 1 1 1 1 1 1 1 1 1
          1 1 1 1 1 1 1 1 1 1 1 1
          1 1 1 1 1 1 1 1 1 1 1 1
          1 1 1 1 1 1 1 1 1 1 1 1
          1 1 1 1 1 1 1 1 0.579321 0.605763 0.579384 0.592214
          0.638803 0.646947 0.635477 0.650831 0.65968 0.593038 0.613362 0.601867 0.613308 0.645852 0.666371 0.685418
          0.660078 0.690235 0.735873 0.825236 0.993791 1 0.671769 0.702196 0.701031 0.784267 0.846427 0.989846
          1 1 1 0.67778 0.672742 0.735219 0.755876 0.742379 0.724858 0.792622 0.837545 0.885325
          0.912542 0.906378 1 0.999401 1 1 0.781486 1 0.992307 0.964849 1 1
          1 1 1 1 1 1 1 1 1 1 1 1
          1 1 1 1 1 1 1 1 1 1 1 1
          1 1 1 1 1 1 1 1 1 1 1 1
          1 1 1 1 1 1 1 1 1 1 1 1
          1 1 1 1 1 1 1 1 1 1 1 1
          1 1 1 1 1 1 1 1 1 1 1 1
          1 1 1 1 1 1 1 1 1 1 1 1
          1 1 1 1 1 1 1 1 1 1 1 1
          1 1 1 1 1 1 1 1 1 1 1 1
          1 1 1 1 1 1 1 1 1 1 1 1
          1 1 1 1 1 1 1 1 1 1 1 1
          1 1 1 1 1 1 1 1 1 1 1 1
          1 1 1 1 1 1 1 1 1 1 1 1
          1 1 1 1 1 1 1 1 1 1 1 1
          1 1 1 1 1 1 1 1 1 1 1 1
          1 1 1 1 1 1 1 1 1 1 1 1
          1 1 1 1 1 1 1 1 1 1 1 1
          1 1 1 1 1 1 1 1 1 1 1 1
          1 1 1 1 1 1 1 1 1 1 1 1
          1 1 1 1 1 1 1 1 1 1 1 1
          1 1 1 1 1 1 1 1 1 1 1 1
          1 1 1 1 1 1 1 1 1 1 1 1
          1 1 1 1 1 1 1 1 1 1 1 1
          1 1 1 1 1 1 1 1 1 1 1 1
          1 1 1 1 1 1 1 1 1 1 1 1
          1 1 1 1 1 1 1 1 1 1 1 1
          1 1 1 1 1 1 1 1 1 1 1 1
          1 1 1 1 1 1 1 1 1 1 1 1
          1 1 1 1 1 1 1 1 1 1 1 1
          1 1 1 1 1 1 1 1 1 1 1 1
          1 1 1 1 1 1 1 1 1 1 1 1
          1 1 1 1 1 1 1 1 1 1 1 1
          1 1 1 1 1 1 1 1 1 1 1 1
          1 1 1 1 1 1 1 1 1 1 1 1
          1 1 1 1 1 1 1 1 1 1 1 1
          1 1 1 1 1 1 1 1 1 1 1 1
          1 1 1 1 1 1 1 1 1 1 1 1
          1 1 1 1 1 1 1 1 1 1 1 1
          1 1 1 1 1 1 1 1 1 1 1 1
          1 1 1 1 1 1 1 1 1 1 1 1
          1 1 1 1 1 1 1 1 1 1 1 1
          1 1 1 1 1 1 1 1 1 1 1 1
          1 1 1 1 1 1 1 1 1 1 1 1
          1 1 1 1 1 1 1 1 1 1 1 1
          1 1 1 1 1 1 1 1 1 1 1 1
          1 1 1 1 1 1 1 1 1 1 1 1
          1 1 1 1 1 1 1 1 1 1 1 1
          1 1 1 1 1 1 1 1 1 1 1 1
          1 1 1 1 1 1 1 1 1 1 1 1
          1 1 1 1 1 1 1 1 1 1 1 1
          1 1 1 1 1 1 1 1 1 1 1 1
          1 1 1 1 1 1 1 1 1 1 1 1
          1 1 1 1 1 1 1 1 1 1 1 1
          1 1 1 1 1 1 1 1 1 1 1 1
          1 1 1 1 1 1 1 1 1 1 1 1
          1 1 1 1 1 1 1 1 1 1 1 1
          1 1 1 1 1 1 1 1 1 1 1 1
          1 1 1 1 1 1 1 1 1 1 1 1
          1 1 1 1 1 1 1 1 1 1 1 1
          1 1 1 1 1 1 1 1 1 1 1 1
          1 1 1 1 1 1 1 1 1 1 1 1
          1 1 1 1 1 1 1 1 1 1 1 1
          1 1 1 1 1 1 1 1 1 1 1 1
          1 1 1 1 1 1 1 1 1 1 1 1
          1 1 1 1 1 1 1 1 1 1 1 1
          1 1 1 1 1 1 1 1 1 1 1 1
          1 1 1 1 1 1 1 1 1 1 1 1
          1 1 1 1 1 1 1 1 1 1 1 1
          1 1 1 1 1 1 1 1 1 1 1 1
          1 1 1 1 1 1 1 1 1 1 1 1
          1 1 1 1 1 1 1 1 1 1 1 1
          1 1 1 1 1 1 1 1 1 1 1 1
          1 1 1 1 1 1 1 1 1 1 1 1
          1 1 1 1 1 1 1 1 1 1 1 1
          1 1 1 1 1 1 1 1 1 1 1 1
          1 1 1 1 1 1 1 1 1 1 1 1
          1 1 1 1 1 1 1 1 1 1 1 1
          1 1 1 1 1 1 1 1 1 1 1 1
          1 1 1 1 1 1 1 1 1 1 1 1
          1 1 1 1 1 1 1 1 1 1 1 1
          1 1 1 1 1 1 1 1 1 1 1 1
          1 1 1 1 1 1 1 1 1 1 1 1
          1 1 1 1 1 1 1 1 1 1 1 1
          1 1 1 1 1 1 1 1 1 1 1 1
          1 1 1 1 1 1 1 1 1 1 1 1
          1 1 1 1 1 1 1 1 1 1 1 1
          1 1 1 1 1 1 1 1 1 1 1 1
          1 1 1 1 1 1 1 1 1 1 1 1
          1 1 1 1 1 1 1 1 1 1 1 1
          1 1 1 1 1 1 1 1 1 1 1 1
          1 1 1 1 1 1 1 1 1 1 1 1
          1 1 1 1 1 1 1 1 1 1 1 1
          1 1 1 1 1 1 1 1 1 1 1 1
          1 1 1 1 1 1 1 1 1 1 1 1
          1 1 1 1 1 1 1 1 1 1 1 1
          1 1 1 1 1 1 1 1 1 1 1 1
          1 1 1 1 1 1 1 1 1 1 1 1
          1 1 1 1 1 1 1 1 1 1 1 1
          1 1 1 1 1 1 1 1 1 1 1 1
          1 1 1 1 1 1 1 1 1 1 1 1
          1 1 1 1 1 1 1 1 1 1 1 1
          1 1 1 1 1 1 1 1 1 1 1 1
          1 1 1 1 1 1 1 1 1 1 1 1
          1 1 1 1 1 1 1 1 1 1 1 1
          1 1 1 1 1 1 1 1 1 1 1 1
          1 1 1 1 1 1 1 1 1 1 1 1
          1 1 1 1 1 1 1 1 1 1 1 1
          1 1 1 1 1 1 1 1 1 1 1 1
          1 1 1 1 1 1 1 1 1 1 1 1
          1 1 1 1 1 1 1 1 1 1 1 1
          1 1 1 1 1 1 1 1 1 1 1 1
          1 1 1 1 1 1 1 1 1 1 1 1
          1 1 1 1 1 1 1 1 1 1 1 1
          1 1 1 1 1 1 1 1 1 1 1 1
          1 1 1 1 1 1 1 1 1 1 1 1
          1 1 1 1 1 1 1 1 1 1 1 1
          1 1 1 1 1 1 1 1 1 1 1 1
          1 1 1 1 1 1 1 1 1 1 1 1
          1 1 1 1 1 1 1 1 1 1 1 1
          1 1 1 1 1 1 1 1 1 1 1 1
          1 1 1 1 1 1 1 1 1 1 1 1
          1 1 1 1 1 1 1 1 1 1 1 1
          1 1 1 1 1 1 1 1 1 1 1 1
          1 1 1 1 1 1 1 1 1 1 1 1
          1 1 1 1 1 1 1 1 1 1 1 1
          1 1 1 1 1 1 1 1 1 1 1 1
          1 1 1 1 1 1 1 1 1 1 1 1
          1 1 1 1 1 1 1 1 1 1 1 1
          1 1 1 1 1 1 1 1 1 1 1 1
          1 1 1 1 1 1 1 1 1 1 1 1
          1 1 1 1 1 1 1 1 1 1 1 1
          1 1 1 1 1 1 1 1 1 1 1 1
          1 1 1 1 1 1 1 1 1 1 1 1
          1 1 1 1 1 1 1 1 1 1 1 1
          1 1 1 1 1 1 1 1 1 1 1 1
          1 1 1 1 1 1 1 1 1 1 1 1
          1 1 1 1 1 1 1 1 1 1 1 1
          1 1 1 1 1 1 1 1 1 1 1 1
          1 1 1 1 1 1 1 1 1 1 1 1
          1 1 1 1 1 1 1 1 1 1 1 1
          1 1 1 1 1 1 1 1 1 1 1 1
          1 1 1 1 1 1 1 1 1 1 1 1
          1 1 1 1 1 1 1 1 1 1 1 1
          1 1 1 1 1 1 1 1 1 1 1 1
          1 1 1 1 1 1 1 1 1 1 1 1
          1 1 1 1 1 1 1 1 1 1 1 1
          1 1 1 1 1 1 1 1 1 1 1 1
          1 1 1 1 1 1 1
        </DataArray>
        <DataArray type="Float32" Name="p_liq" NumberOfComponents="1" format="ascii">
          4.40084e+07 4.38649e+07 4.41396e+07 4.37045e+07 4.38778e+07 4.36303e+07 4.33183e+07 4.29779e+07 4.33764e+07 4.40342e+07 4.43078e+07 4.41623e+07
          4.44289e+07 4.39935e+07 4.37804e+07 4.29953e+07 4.34349e+07 4.30338e+07 4.25791e+07 4.21324e+07 4.16865e+07 4.12134e+07 4.06927e+07 4.00812e+07
          4.25741e+07 4.15818e+07 4.20865e+07 4.26027e+07 4.11514e+07 4.07202e+07 4.01599e+07 4.09195e+07 4.12778e+07 4.04826e+07 4.42706e+07 4.45193e+07
          4.40376e+07 4.37725e+07 4.44127e+07 4.34499e+07 4.30645e+07 4.4531e+07 4.42841e+07 4.40388e+07 4.44656e+07 4.3968e+07 4.37588e+07 4.34515e+07
          4.30876e+07 4.37062e+07 4.34262e+07 4.21e+07 4.15842e+07 4.26393e+07 4.08912e+07 4.12296e+07 3.99552e+07 4.21404e+07 4.16323e+07 4.26907e+07
          4.22348e+07 4.09556e+07 4.05021e+07 4.1418e+07 4.00967e+07 3.92161e+07 3.83339e+07 3.78307e+07 3.7439e+07 3.70929e+07 3.92708e+07 3.82878e+07
          3.77781e+07 3.73668e+07 3.76922e+07 3.727e+07 3.65371e+07 3.67977e+07 3.62589e+07 3.70021e+07 3.66832e+07 3.64327e+07 3.55779e+07 3.52261e+07
          3.48641e+07 3.59318e+07 3.54645e+07 3.51751e+07 3.4837e+07 3.62148e+07 3.65168e+07 3.68804e+07 3.5708e+07 3.54482e+07 3.59403e+07 3.51431e+07
          3.91566e+07 3.82141e+07 3.80498e+07 3.75937e+07 3.71561e+07 3.95464e+07 3.88701e+07 3.91758e+07 3.85763e+07 3.70392e+07 3.79096e+07 3.74855e+07
          3.67324e+07 3.6305e+07 3.55339e+07 3.51388e+07 3.55811e+07 3.51262e+07 3.65856e+07 3.61036e+07 3.59887e+07 3.55229e+07 3.50747e+07 4.41839e+07
          4.43755e+07 4.42441e+07 4.40912e+07 4.38929e+07 4.30939e+07 4.36333e+07 4.33847e+07 4.3111e+07 4.40415e+07 4.38199e+07 4.43005e+07 4.40463e+07
          4.35212e+07 4.32246e+07 4.2885e+07 4.27343e+07 4.23295e+07 4.17775e+07 4.27897e+07 4.19416e+07 4.15725e+07 4.11694e+07 4.06494e+07 4.04206e+07
          4.23973e+07 4.19705e+07 4.15116e+07 4.24648e+07 4.20072e+07 4.14963e+07 4.1001e+07 4.08764e+07 4.02854e+07 4.4298e+07 4.37706e+07 4.4041e+07
          4.37187e+07 4.34161e+07 4.29701e+07 4.3367e+07 4.2985e+07 4.25702e+07 4.42667e+07 4.40649e+07 4.35981e+07 4.41552e+07 4.38126e+07 4.33146e+07
          4.29786e+07 4.3369e+07 4.2585e+07 4.2528e+07 4.20658e+07 4.15788e+07 4.06703e+07 4.1111e+07 4.01222e+07 4.21238e+07 4.16757e+07 4.12587e+07
          4.21607e+07 4.17161e+07 4.12654e+07 4.08573e+07 4.04229e+07 3.98434e+07 3.95761e+07 3.9023e+07 3.97515e+07 3.83822e+07 3.69216e+07 3.77948e+07
          3.73681e+07 3.90846e+07 3.83785e+07 3.97323e+07 3.9115e+07 3.76898e+07 3.67897e+07 3.72385e+07 3.64607e+07 3.58832e+07 3.54464e+07 3.50119e+07
          3.6334e+07 3.62121e+07 3.57816e+07 3.53631e+07 3.49433e+07 3.96642e+07 3.84149e+07 3.91581e+07 3.85151e+07 3.76159e+07 3.71006e+07 3.66526e+07
          3.76765e+07 3.68799e+07 3.93631e+07 3.86339e+07 3.71741e+07 3.77922e+07 3.7235e+07 3.69665e+07 3.66921e+07 3.60882e+07 3.64894e+07 3.56823e+07
          3.52851e+07 3.4875e+07 3.63421e+07 3.5968e+07 3.55814e+07 3.52067e+07 3.48044e+07 3.51414e+07 3.47951e+07 3.45167e+07 3.41557e+07 3.3768e+07
          3.44983e+07 3.33478e+07 3.28769e+07 3.41618e+07 3.48101e+07 3.44787e+07 3.41918e+07 3.39041e+07 3.37728e+07 3.33201e+07 3.284e+07 3.24711e+07
          3.21328e+07 3.18298e+07 3.15384e+07 3.12435e+07 3.09269e+07 3.18141e+07 3.11373e+07 3.23829e+07 3.20699e+07 3.18893e+07 3.21317e+07 3.15035e+07
          3.08674e+07 3.15508e+07 3.47677e+07 3.44174e+07 3.41279e+07 3.47156e+07 3.43242e+07 3.39619e+07 3.36155e+07 3.32618e+07 3.2848e+07 3.30371e+07
          3.46457e+07 3.4212e+07 3.3773e+07 3.339e+07 3.2661e+07 3.32227e+07 3.24168e+07 3.17542e+07 3.11328e+07 3.13238e+07 3.20275e+07 3.22823e+07
          3.17758e+07 3.0967e+07 3.13711e+07 3.10214e+07 3.07527e+07 3.02037e+07 2.98316e+07 3.05765e+07 2.9456e+07 2.90848e+07 2.90115e+07 3.00721e+07
          3.03114e+07 3.00426e+07 2.97661e+07 2.94066e+07 2.97285e+07 2.89499e+07 2.93622e+07 2.8744e+07 2.84354e+07 2.86312e+07 2.81175e+07 2.78251e+07
          2.75036e+07 2.75905e+07 2.83732e+07 2.85445e+07 2.8091e+07 2.78296e+07 2.71956e+07 2.76277e+07 2.7241e+07 3.05111e+07 3.01031e+07 3.07615e+07
          2.97264e+07 2.93428e+07 2.89264e+07 3.04938e+07 3.01086e+07 2.97285e+07 3.03576e+07 3.00829e+07 2.97514e+07 2.93326e+07 2.89216e+07 2.85275e+07
          2.82755e+07 2.80778e+07 2.7888e+07 2.76197e+07 2.72257e+07 2.83353e+07 2.85562e+07 2.80851e+07 2.78108e+07 2.75252e+07 2.71508e+07 3.45904e+07
          3.41593e+07 3.37326e+07 3.35243e+07 3.28312e+07 3.32566e+07 3.29572e+07 3.45482e+07 3.4162e+07 3.38144e+07 3.33896e+07 3.30926e+07 3.25946e+07
          3.34774e+07 3.3127e+07 3.28233e+07 3.2001e+07 3.16966e+07 3.24416e+07 3.20887e+07 3.13538e+07 3.09761e+07 3.17139e+07 3.21652e+07 3.17436e+07
          3.13494e+07 3.09559e+07 3.13673e+07 3.09991e+07 3.41393e+07 3.44952e+07 3.38625e+07 3.36097e+07 3.40703e+07 3.38165e+07 3.30159e+07 3.33704e+07
          3.26279e+07 3.44068e+07 3.3683e+07 3.39617e+07 3.42214e+07 3.39291e+07 3.35612e+07 3.28778e+07 3.25059e+07 3.32173e+07 3.21801e+07 3.17449e+07
          3.06549e+07 3.13662e+07 3.10205e+07 3.07406e+07 3.21096e+07 3.17092e+07 3.10019e+07 3.07252e+07 3.13412e+07 3.06099e+07 3.01664e+07 3.03463e+07
          2.98795e+07 2.93242e+07 2.89243e+07 2.92567e+07 2.88765e+07 3.05394e+07 3.00373e+07 2.97475e+07 3.01793e+07 2.95848e+07 2.94721e+07 2.91735e+07
          2.88102e+07 2.85983e+07 2.83229e+07 2.85301e+07 2.81797e+07 2.78632e+07 2.73074e+07 2.84429e+07 2.80339e+07 2.7641e+07 2.71309e+07 2.73674e+07
          3.03043e+07 2.98356e+07 2.99123e+07 2.94887e+07 2.9145e+07 2.87687e+07 3.04884e+07 3.02956e+07 2.9939e+07 2.95191e+07 2.91378e+07 2.95554e+07
          2.87454e+07 2.83798e+07 2.79395e+07 2.70613e+07 2.748e+07 2.70702e+07 2.83468e+07 2.79248e+07 2.74994e+07 2.70655e+07 4.395e+07 4.35547e+07
          4.39713e+07 4.37137e+07 4.33228e+07 4.29988e+07 4.25921e+07 4.29694e+07 4.37587e+07 4.39611e+07 4.35553e+07 4.37512e+07 4.39533e+07 4.34602e+07
          4.25708e+07 4.31735e+07 4.28745e+07 4.25179e+07 4.21718e+07 4.17176e+07 4.12402e+07 4.0772e+07 4.02416e+07 4.07038e+07 4.21635e+07 4.17059e+07
          4.21307e+07 4.1212e+07 4.01131e+07 4.06535e+07 4.00297e+07 4.37994e+07 4.38969e+07 4.35589e+07 4.32825e+07 4.29964e+07 4.27584e+07 4.24651e+07
          4.25047e+07 4.37544e+07 4.33482e+07 4.29861e+07 4.35974e+07 4.26992e+07 4.20582e+07 4.16801e+07 4.11864e+07 4.2094e+07 4.16535e+07 4.06141e+07
          3.99314e+07 4.1192e+07 4.16109e+07 4.11902e+07 4.06978e+07 3.96843e+07 4.01822e+07 3.95479e+07 3.86665e+07 3.77875e+07 3.71921e+07 3.68776e+07
          3.65667e+07 3.75631e+07 3.71419e+07 3.68073e+07 3.93473e+07 3.83879e+07 3.92759e+07 3.77943e+07 3.70451e+07 3.67518e+07 3.73303e+07 3.68005e+07
          3.62176e+07 3.58538e+07 3.64712e+07 3.61116e+07 3.57409e+07 3.5479e+07 3.49659e+07 3.53408e+07 3.46037e+07 3.64118e+07 3.60352e+07 3.56486e+07
          3.52283e+07 3.47529e+07 3.83753e+07 3.9236e+07 3.8559e+07 3.78642e+07 3.73562e+07 3.70341e+07 3.67593e+07 3.91215e+07 3.84868e+07 3.92271e+07
          3.76786e+07 3.70188e+07 3.66751e+07 3.71263e+07 3.63866e+07 3.59765e+07 3.55822e+07 3.63691e+07 3.519e+07 3.48028e+07 3.51269e+07 3.44187e+07
          3.48073e+07 3.59397e+07 3.55036e+07 3.6337e+07 3.59223e+07 3.53586e+07 3.45084e+07 3.47068e+07 3.49917e+07 4.28636e+07 4.28472e+07 4.25647e+07
          4.18361e+07 4.23038e+07 4.22475e+07 4.23309e+07 4.19535e+07 4.1563e+07 4.05217e+07 4.15145e+07 4.20294e+07 4.17292e+07 4.11612e+07 4.15245e+07
          4.11278e+07 4.08104e+07 4.0499e+07 4.07795e+07 3.98131e+07 4.13626e+07 4.09897e+07 4.02675e+07 4.06135e+07 3.88244e+07 3.93138e+07 3.80935e+07
          3.90528e+07 4.03742e+07 4.02203e+07 3.8957e+07 3.88514e+07 3.98398e+07 4.04524e+07 3.99662e+07 3.91355e+07 3.75287e+07 3.7415e+07 3.59882e+07
          3.72937e+07 3.88076e+07 3.82885e+07 3.73067e+07 3.77545e+07 3.69923e+07 4.03721e+07 4.00356e+07 3.94846e+07 3.84456e+07 3.74894e+07 3.85941e+07
          3.85878e+07 3.82909e+07 3.70798e+07 3.69644e+07 3.66216e+07 3.77615e+07 3.69707e+07 3.60612e+07 3.61149e+07 3.53539e+07 3.4584e+07 3.83846e+07
          3.764e+07 3.67096e+07 3.63786e+07 3.71098e+07 3.66888e+07 3.79234e+07 3.75788e+07 3.75761e+07 3.74059e+07 3.71446e+07 3.63562e+07 3.65266e+07
          3.67859e+07 3.56639e+07 3.60884e+07 3.47688e+07 3.45266e+07 3.49784e+07 3.43514e+07 3.45692e+07 3.61215e+07 3.53689e+07 3.55219e+07 3.55017e+07
          3.46647e+07 3.47044e+07 3.40971e+07 3.39984e+07 3.70856e+07 3.66875e+07 3.56022e+07 3.56019e+07 3.45107e+07 3.60406e+07 3.53772e+07 3.4805e+07
          3.44521e+07 3.42409e+07 3.34864e+07 3.3473e+07 3.44712e+07 3.4582e+07 3.45248e+07 3.39723e+07 3.36976e+07 3.32305e+07 3.33163e+07 3.34305e+07
          3.33045e+07 3.24318e+07 3.2276e+07 3.29996e+07 3.26751e+07 3.24845e+07 3.20796e+07 3.18691e+07 3.44214e+07 3.4029e+07 3.36495e+07 3.31092e+07
          3.34032e+07 3.27815e+07 3.31153e+07 3.27084e+07 3.42027e+07 3.43399e+07 3.38548e+07 3.35299e+07 3.32896e+07 3.2955e+07 3.25961e+07 3.24137e+07
          3.2033e+07 3.16496e+07 3.23178e+07 3.19429e+07 3.12831e+07 3.06111e+07 3.09314e+07 3.15731e+07 3.22219e+07 3.18569e+07 3.14932e+07 3.12205e+07
          3.08532e+07 3.1166e+07 3.0842e+07 3.40031e+07 3.37449e+07 3.40375e+07 3.35549e+07 3.24334e+07 3.32451e+07 3.26852e+07 3.23603e+07 3.39216e+07
          3.42515e+07 3.37476e+07 3.29067e+07 3.33267e+07 3.23374e+07 3.21159e+07 3.17658e+07 3.13824e+07 3.10142e+07 3.04694e+07 3.06958e+07 3.20384e+07
          3.16981e+07 3.19758e+07 3.16708e+07 3.13034e+07 3.08508e+07 3.03881e+07 3.04973e+07 3.01837e+07 3.04704e+07 2.99212e+07 2.91642e+07 2.9596e+07
          2.8754e+07 3.00012e+07 2.96891e+07 3.02185e+07 2.92086e+07 2.87794e+07 2.92992e+07 2.83253e+07 2.79067e+07 2.74994e+07 2.71013e+07 2.6739e+07
          2.78755e+07 2.82973e+07 2.74927e+07 2.71679e+07 2.71282e+07 2.69102e+07 2.98564e+07 3.01264e+07 2.88802e+07 2.93954e+07 2.89759e+07 2.98691e+07
          2.94048e+07 3.02062e+07 2.86584e+07 2.90048e+07 2.86641e+07 2.81896e+07 2.78e+07 2.85287e+07 2.77164e+07 2.74367e+07 2.66574e+07 2.73478e+07
          2.69858e+07 2.83799e+07 2.80776e+07 2.80048e+07 2.83334e+07 2.76385e+07 2.72562e+07 2.68584e+07 3.40689e+07 3.33229e+07 3.35718e+07 3.27609e+07
          3.21157e+07 3.38176e+07 3.26667e+07 3.29048e+07 3.24841e+07 3.1946e+07 3.13287e+07 3.18758e+07 3.16678e+07 3.14773e+07 3.08921e+07 3.04821e+07
          3.17485e+07 3.15965e+07 3.09489e+07 3.09916e+07 3.04051e+07 2.99317e+07 3.30875e+07 3.20728e+07 3.18446e+07 3.15537e+07 3.22849e+07 3.16956e+07
          3.14518e+07 3.12118e+07 3.10436e+07 3.08087e+07 3.12079e+07 3.05719e+07 3.02617e+07 2.98263e+07 2.99673e+07 2.95392e+07 3.04748e+07 3.00231e+07
          2.95209e+07 2.88968e+07 2.91412e+07 3.01264e+07 2.93148e+07 2.97438e+07 2.89875e+07 2.8645e+07 2.97942e+07 2.94272e+07 2.91186e+07 2.89954e+07
          2.91221e+07 2.89942e+07 2.86551e+07 2.89196e+07 2.8537e+07 2.75771e+07 2.82953e+07 2.79525e+07 2.71909e+07 2.67989e+07 2.65952e+07 2.6293e+07
          2.82048e+07 2.78099e+07 2.74128e+07 2.71488e+07 2.70168e+07 2.67734e+07 2.62015e+07 2.63865e+07 2.93371e+07 2.95274e+07 2.88646e+07 2.8932e+07
          2.91901e+07 2.86272e+07 2.87596e+07 2.85852e+07 2.80068e+07 2.82535e+07 2.78226e+07 2.88138e+07 2.84461e+07 2.86169e+07 2.81118e+07 2.84016e+07
          2.81268e+07 2.78669e+07 2.7761e+07 2.73804e+07 2.7541e+07 2.71813e+07 2.69078e+07 2.65523e+07 2.61828e+07 2.5867e+07 2.73117e+07 2.67795e+07
          2.63288e+07 2.68126e+07 2.59628e+07 2.56962e+07 2.71292e+07 2.67351e+07 2.63226e+07 2.59768e+07 2.54289e+07 2.56784e+07 2.55594e+07 2.68167e+07
          2.64923e+07 2.58236e+07 2.60315e+07 2.57694e+07 2.54633e+07 2.52125e+07 2.49444e+07 2.4618e+07 2.53024e+07 2.50098e+07 2.39808e+07 2.36635e+07
          2.43007e+07 2.3549e+07 2.46854e+07 2.50828e+07 2.47314e+07 2.41554e+07 2.44237e+07 2.3873e+07 2.41088e+07 2.3782e+07 2.68737e+07 2.61733e+07
          2.65942e+07 2.68633e+07 2.63587e+07 2.65889e+07 2.58157e+07 2.54617e+07 2.61774e+07 2.6792e+07 2.64816e+07 2.58339e+07 2.5479e+07 2.51053e+07
          2.47541e+07 2.44268e+07 2.44286e+07 2.40798e+07 2.37228e+07 2.5133e+07 2.47767e+07 2.44176e+07 2.36686e+07 2.40445e+07 2.34047e+07 2.31948e+07
          2.29235e+07 2.32771e+07 2.29525e+07 2.25946e+07 2.26023e+07 2.22721e+07 2.19492e+07 2.22486e+07 2.19264e+07 2.16533e+07 2.29782e+07 2.34148e+07
          2.25839e+07 2.1626e+07 2.22137e+07 2.18794e+07 2.16653e+07 2.14076e+07 2.11465e+07 2.08725e+07 2.13959e+07 2.11318e+07 2.0813e+07 2.0578e+07
          2.02832e+07 2.04727e+07 1.99873e+07 2.13993e+07 2.11372e+07 2.15025e+07 2.07855e+07 2.02433e+07 2.04239e+07 1.99799e+07 2.33427e+07 2.29357e+07
          2.25345e+07 2.21422e+07 2.17705e+07 2.20442e+07 2.16372e+07 2.32807e+07 2.28853e+07 2.2842e+07 2.24667e+07 2.23922e+07 2.19007e+07 2.1195e+07
          2.08223e+07 2.12476e+07 2.09153e+07 2.04415e+07 2.01742e+07 1.9989e+07 2.11547e+07 2.06057e+07 2.14889e+07 2.02824e+07 2.00047e+07 2.66661e+07
          2.63626e+07 2.69881e+07 2.60728e+07 2.57926e+07 2.54875e+07 2.57378e+07 2.59533e+07 2.55094e+07 2.52543e+07 2.68441e+07 2.65297e+07 2.62209e+07
          2.60419e+07 2.63911e+07 2.57864e+07 2.56036e+07 2.53889e+07 2.55666e+07 2.51698e+07 2.48126e+07 2.44075e+07 2.40151e+07 2.36336e+07 2.49422e+07
          2.51126e+07 2.43327e+07 2.46666e+07 2.39619e+07 2.35908e+07 2.35608e+07 2.67422e+07 2.66855e+07 2.62949e+07 2.59231e+07 2.57781e+07 2.5322e+07
          2.55289e+07 2.51539e+07 2.58694e+07 2.66185e+07 2.62139e+07 2.5669e+07 2.54674e+07 2.53493e+07 2.51279e+07 2.56296e+07 2.51977e+07 2.48227e+07
          2.45429e+07 2.42509e+07 2.48408e+07 2.39149e+07 2.38682e+07 2.31743e+07 2.35297e+07 2.45169e+07 2.4196e+07 2.48437e+07 2.45056e+07 2.41388e+07
          2.35097e+07 2.31729e+07 2.38214e+07 2.32411e+07 2.32073e+07 2.2826e+07 2.24058e+07 2.16894e+07 2.31889e+07 2.28218e+07 2.24424e+07 2.20001e+07
          2.21157e+07 2.18192e+07 2.12918e+07 2.09253e+07 2.06434e+07 2.03106e+07 1.97293e+07 2.00077e+07 2.10786e+07 2.14924e+07 2.02679e+07 1.97244e+07
          1.99173e+07 2.28184e+07 2.24524e+07 2.21116e+07 2.1759e+07 2.28206e+07 2.24542e+07 2.20849e+07 2.20966e+07 2.1724e+07 2.13421e+07 2.17089e+07
          2.13317e+07 2.13868e+07 2.09468e+07 2.04397e+07 1.96466e+07 2.00282e+07 1.96815e+07 2.09274e+07 2.05002e+07 2.09379e+07 2.00834e+07 1.96707e+07
          1.97106e+07 1.94143e+07 1.94851e+07 1.90883e+07 1.87348e+07 1.84006e+07 1.83838e+07 1.97156e+07 1.91167e+07 1.95253e+07 1.91146e+07 1.87282e+07
          1.87e+07 1.83465e+07 1.80342e+07 1.81151e+07 1.78273e+07 1.75562e+07 1.72691e+07 1.80787e+07 1.77874e+07 1.75159e+07 1.72357e+07 1.69541e+07
          1.66299e+07 1.63128e+07 1.69333e+07 1.66122e+07 1.63023e+07 1.77524e+07 1.74806e+07 1.71979e+07 1.62786e+07 1.69013e+07 1.65891e+07 1.97906e+07
          1.9511e+07 1.9068e+07 1.79863e+07 1.82955e+07 1.86468e+07 1.79283e+07 1.96978e+07 1.9395e+07 1.89718e+07 1.85601e+07 1.82159e+07 1.7855e+07
          1.80966e+07 1.771e+07 1.7444e+07 1.71714e+07 1.76802e+07 1.74283e+07 1.71526e+07 1.68757e+07 1.65535e+07 1.62116e+07 1.68498e+07 1.65191e+07
          1.61477e+07 1.76546e+07 1.74325e+07 1.771e+07 1.71632e+07 1.68522e+07 1.65057e+07 1.61161e+07 1.60154e+07 1.57364e+07 1.54376e+07 1.60206e+07
          1.5748e+07 1.51055e+07 1.47252e+07 1.60154e+07 1.5459e+07 1.5779e+07 1.59166e+07 1.55219e+07 1.50887e+07 1.46358e+07 1.43313e+07 1.39894e+07
          1.38588e+07 1.36901e+07 1.34415e+07 1.32261e+07 1.4216e+07 1.40893e+07 1.37048e+07 1.36064e+07 1.33378e+07 1.28237e+07 1.30667e+07 1.56519e+07
          1.57687e+07 1.53216e+07 1.51669e+07 1.44807e+07 1.48024e+07 1.54761e+07 1.57234e+07 1.52266e+07 1.50179e+07 1.45302e+07 1.46905e+07 1.43042e+07
          1.39726e+07 1.36295e+07 1.344e+07 1.27324e+07 1.3205e+07 1.29117e+07 1.42421e+07 1.3906e+07 1.35369e+07 1.33781e+07 1.26709e+07 1.30865e+07
          1.28387e+07 1.88193e+07 1.94753e+07 1.91668e+07 1.84458e+07 1.78716e+07 1.83516e+07 1.86804e+07 1.80222e+07 1.92699e+07 1.89871e+07 1.95106e+07
          1.88203e+07 1.90869e+07 1.82891e+07 1.85577e+07 1.80387e+07 1.78076e+07 1.82309e+07 1.84428e+07 1.79851e+07 1.76823e+07 1.74896e+07 1.72008e+07
          1.76099e+07 1.7274e+07 1.6873e+07 1.65241e+07 1.61399e+07 1.69199e+07 1.73132e+07 1.69617e+07 1.65778e+07 1.62283e+07 1.93817e+07 1.8645e+07
          1.93628e+07 1.88656e+07 1.86219e+07 1.82628e+07 1.79637e+07 1.76381e+07 1.84301e+07 1.79341e+07 1.90406e+07 1.9374e+07 1.87701e+07 1.91373e+07
          1.92732e+07 1.89032e+07 1.82276e+07 1.83961e+07 1.81623e+07 1.85004e+07 1.78959e+07 1.73096e+07 1.69851e+07 1.66411e+07 1.6322e+07 1.67005e+07
          1.60055e+07 1.76103e+07 1.7296e+07 1.69835e+07 1.75798e+07 1.6735e+07 1.64191e+07 1.61382e+07 1.65093e+07 1.54778e+07 1.57256e+07 1.5167e+07