<?xml version="1.0"?>
<VTKFile type="UnstructuredGrid" version="0.1" byte_order="LittleEndian">
  <UnstructuredGrid>
    <Piece NumberOfCells="64" NumberOfPoints="81">
      <CellData Scalars="S_liq">
        <DataArray type="Float32" Name="S_liq" NumberOfComponents="1" format="ascii">
          0.614566 0.614566 0.614567 0.614567 0.614567 0.614567 0.614567 0.614567 0.125429 0.125429 0.125429 0.125429
          0.125429 0.125429 0.125429 0.125429 0.0457046 0.0457052 0.0457058 0.0457064 0.0457068 0.0457072 0.0457075 0.0457077
          0.0257658 0.0257707 0.0257751 0.0257787 0.0257817 0.0257843 0.0257865 0.0257882 0.0172625 0.0172792 0.0172929 0.0173037
          0.0173127 0.0173203 0.0173271 0.0173326 0.0108364 0.0108971 0.0109431 0.0109789 0.0110085 0.0110339 0.0110563 0.0110754
          0 0 0 0 0 0 0 0 0 0 0 0
          0 0 0 0
        </DataArray>
        <DataArray type="Float32" Name="p_liq" NumberOfComponents="1" format="ascii">
          98496 98496 98496 98496 98496 98496 98496 98496 97789.1 97789.1 97789.1 97789.1
          97789.1 97789.1 97789.1 97789.1 97316.9 97316.9 97316.9 97316.9 97316.9 97316.9 97316.9 97316.9
          96986.3 96986.5 96986.6 96986.6 96986.7 96986.8 96986.8 96986.9 96702.2 96702.9 96703.6 96704
          96704.5 96704.8 96705.1 96705.4 96339 96342.6 96345.3 96347.5 96349.2 96350.7 96352 96353.2
          95697.6 95697.6 95697.6 95697.6 95697.6 95697.6 95697.6 95697.6 95697.5 95697.5 95697.5 95697.5
          95697.5 95697.5 95697.5 95697.5
        </DataArray>
        <DataArray type="Float32" Name="rho_liq" NumberOfComponents="1" format="ascii">
          997.051 997.051 997.051 997.051 997.051 997.051 997.051 997.051 997.051 997.051 997.051 997.051
          997.051 997.051 997.051 997.051 997.051 997.051 997.051 997.051 997.051 997.051 997.051 997.051
          997.051 997.051 997.051 997.051 997.051 997.051 997.051 997.051 997.05 997.05 997.05 997.05
          997.05 997.05 997.05 997.05 997.05 997.05 997.05 997.05 997.05 997.05 997.05 997.05
          610.348 628.485 641.867 652.369 661.139 668.743 675.511 681.482 136.098 160.002 176.441 189.33
          200.105 209.446 217.772 225.429
        </DataArray>
        <DataArray type="Float32" Name="mob_liq" NumberOfComponents="1" format="ascii">
          233.932 233.932 233.932 233.932 233.932 233.933 233.933 233.933 2.13236 2.13236 2.13236 2.13237
          2.13237 2.13238 2.13238 2.13238 0.0971458 0.0971502 0.0971545 0.097158 0.097161 0.0971636 0.0971658 0.0971674
          0.0143472 0.0143568 0.0143656 0.0143727 0.0143785 0.0143835 0.0143879 0.0143912 0.00321351 0.00322591 0.00323616 0.00324425
          0.00325096 0.00325673 0.0032618 0.00326593 0.000390271 0.000401922 0.000410887 0.000417949 0.000423843 0.00042895 0.000433485 0.000437385
          0 0 0 0 0 0 0 0 0 0 0 0
          0 0 0 0
        </DataArray>
        <DataArray type="Float32" Name="S_gas" NumberOfComponents="1" format="ascii">
          0.385434 0.385434 0.385433 0.385433 0.385433 0.385433 0.385433 0.385433 0.874571 0.874571 0.874571 0.874571
          0.874571 0.874571 0.874571 0.874571 0.954295 0.954295 0.954294 0.954294 0.954293 0.954293 0.954292 0.954292
          0.974234 0.974229 0.974225 0.974221 0.974218 0.974216 0.974214 0.974212 0.982737 0.982721 0.982707 0.982696
          0.982687 0.98268 0.982673 0.982667 0.989164 0.989103 0.989057 0.989021 0.988992 0.988966 0.988944 0.988925
          1 1 1 1 1 1 1 1 1 1 1 1
          1 1 1 1
        </DataArray>
        <DataArray type="Float32" Name="p_gas" NumberOfComponents="1" format="ascii">
          100002 100002 100002 100002 100002 100002 100002 100002 100002 100002 100002 100002
          100002 100002 100002 100002 100001 100001 100001 100001 100001 100001 100001 100001
          100001 100001 100001 100001 100001 100001 100001 100001 100000 100000 100000 100000
          100000 100000 100000 100000 100000 100000 100000 100000 100000 100000 100000 100000
          100000 100000 100000 100000 100000 100000 100000 100000 100000 100000 100000 100000
          100000 100000 100000 100000
        </DataArray>
        <DataArray type="Float32" Name="rho_gas" NumberOfComponents="1" format="ascii">
          1.15428 1.15428 1.15428 1.15428 1.15428 1.15428 1.15428 1.15428 1.15427 1.15427 1.15427 1.15427
          1.15427 1.15427 1.15427 1.15427 1.15427 1.15427 1.15427 1.15427 1.15427 1.15427 1.15427 1.15427
          1.15426 1.15426 1.15426 1.15426 1.15426 1.15426 1.15426 1.15426 1.15426 1.15426 1.15426 1.15426
          1.15426 1.15426 1.15426 1.15426 1.15426 1.15426 1.15426 1.15426 1.15426 1.15426 1.15426 1.15426
          1.15967 1.15941 1.15923 1.15908 1.15896 1.15885 1.15876 1.15867 1.16632 1.16598 1.16575 1.16557
          1.16542 1.16529 1.16517 1.16507
        </DataArray>
        <DataArray type="Float32" Name="mob_gas" NumberOfComponents="1" format="ascii">
          8018.61 8018.61 8018.6 8018.59 8018.59 8018.58 8018.57 8018.57 44304.4 44304.4 44304.4 44304.4
          44304.4 44304.4 44304.4 44304.4 52803.3 52803.2 52803.2 52803.1 52803.1 52803.1 52803 52803
          54437.9 54437.6 54437.3 54437.1 54436.9 54436.7 54436.6 54436.5 54866.1 54865.4 54864.9 54864.5
          54864.1 54863.8 54863.6 54863.4 55054.5 55053.4 55052.4 55051.7 55051.1 55050.6 55050.2 55049.8
          54792 54806.9 54818 54826.6 54833.8 54840.1 54845.7 54850.6 54404 54423.4 54436.8 54447.3
          54456 54463.7 54470.4 54476.7
        </DataArray>
        <DataArray type="Float32" Name="pc" NumberOfComponents="1" format="ascii">
          1506.34 1506.34 1506.34 1506.34 1506.34 1506.34 1506.34 1506.34 2212.35 2212.35 2212.35 2212.35
          2212.35 2212.35 2212.35 2212.35 2684.1 2684.1 2684.09 2684.08 2684.08 2684.07 2684.07 2684.07
          3014.27 3014.14 3014.03 3013.94 3013.87 3013.81 3013.75 3013.71 3298.19 3297.43 3296.8 3296.31
          3295.9 3295.55 3295.24 3294.99 3661.16 3657.57 3654.84 3652.73 3650.98 3649.47 3648.15 3647.02
          4302.49 4302.49 4302.49 4302.49 4302.49 4302.49 4302.49 4302.49 4302.49 4302.49 4302.49 4302.49
          4302.49 4302.49 4302.49 4302.49
        </DataArray>
        <DataArray type="Float32" Name="porosity" NumberOfComponents="1" format="ascii">
          0.41 0.41 0.41 0.41 0.41 0.41 0.41 0.41 0.41 0.41 0.41 0.41
          0.41 0.41 0.41 0.41 0.41 0.41 0.41 0.41 0.41 0.41 0.41 0.41
          0.41 0.41 0.41 0.41 0.41 0.41 0.41 0.41 0.41 0.41 0.41 0.41
          0.41 0.41 0.41 0.41 0.41 0.41 0.41 0.41 0.41 0.41 0.41 0.41
          0.41 0.41 0.41 0.41 0.41 0.41 0.41 0.41 0.41 0.41 0.41 0.41
          0.41 0.41 0.41 0.41
        </DataArray>
        <DataArray type="Float32" Name="x^H2O_liq" NumberOfComponents="1" format="ascii">
          0.999987 0.999987 0.999987 0.999987 0.999987 0.999987 0.999987 0.999987 0.999987 0.999987 0.999987 0.999987
          0.999987 0.999987 0.999987 0.999987 0.999987 0.999987 0.999987 0.999987 0.999987 0.999987 0.999987 0.999987
          0.999987 0.999987 0.999987 0.999987 0.999987 0.999987 0.999987 0.999987 0.999987 0.999987 0.999987 0.999987
          0.999987 0.999987 0.999987 0.999987 0.999987 0.999987 0.999987 0.999987 0.999987 0.999987 0.999987 0.999987
          0.612137 0.630328 0.64375 0.654283 0.663079 0.670705 0.677494 0.683482 0.136479 0.160454 0.176943 0.189869
          0.200676 0.210045 0.218396 0.226076
        </DataArray>
        <DataArray type="Float32" Name="X^H2O_liq" NumberOfComponents="1" format="ascii">
          0.999978 0.999978 0.999978 0.999978 0.999978 0.999978 0.999978 0.999978 0.999978 0.999978 0.999978 0.999978
          0.999978 0.999978 0.999978 0.999978 0.999978 0.999978 0.999978 0.999978 0.999978 0.999978 0.999978 0.999978
          0.999978 0.999978 0.999978 0.999978 0.999978 0.999978 0.999978 0.999978 0.999978 0.999978 0.999978 0.999978
          0.999978 0.999978 0.999978 0.999978 0.999978 0.999978 0.999978 0.999978 0.999978 0.999978 0.999978 0.999978
          0.612128 0.63032 0.643741 0.654275 0.663071 0.670697 0.677486 0.683474 0.136471 0.160446 0.176934 0.189861
          0.200668 0.210037 0.218388 0.226067
        </DataArray>
        <DataArray type="Float32" Name="x^Air_liq" NumberOfComponents="1" format="ascii">
          1.34035e-05 1.34035e-05 1.34035e-05 1.34035e-05 1.34035e-05 1.34035e-05 1.34035e-05 1.34035e-05 1.34034e-05 1.34034e-05 1.34034e-05 1.34034e-05
          1.34034e-05 1.34034e-05 1.34034e-05 1.34034e-05 1.34033e-05 1.34033e-05 1.34033e-05 1.34033e-05 1.34033e-05 1.34033e-05 1.34033e-05 1.34033e-05
          1.34033e-05 1.34033e-05 1.34033e-05 1.34033e-05 1.34033e-05 1.34033e-05 1.34033e-05 1.34033e-05 1.34032e-05 1.34032e-05 1.34032e-05 1.34032e-05
          1.34032e-05 1.34032e-05 1.34032e-05 1.34032e-05 1.34032e-05 1.34032e-05 1.34032e-05 1.34032e-05 1.34032e-05 1.34032e-05 1.34032e-05 1.34032e-05
          1.35736e-05 1.35656e-05 1.35597e-05 1.35551e-05 1.35512e-05 1.35479e-05 1.35449e-05 1.35423e-05 1.37826e-05 1.37721e-05 1.37648e-05 1.37591e-05
          1.37544e-05 1.37503e-05 1.37466e-05 1.37432e-05
        </DataArray>
        <DataArray type="Float32" Name="X^Air_liq" NumberOfComponents="1" format="ascii">
          2.15464e-05 2.15464e-05 2.15464e-05 2.15464e-05 2.15464e-05 2.15464e-05 2.15464e-05 2.15464e-05 2.15462e-05 2.15462e-05 2.15462e-05 2.15462e-05
          2.15462e-05 2.15462e-05 2.15462e-05 2.15462e-05 2.15461e-05 2.15461e-05 2.15461e-05 2.15461e-05 2.15461e-05 2.15461e-05 2.15461e-05 2.15461e-05
          2.1546e-05 2.1546e-05 2.1546e-05 2.1546e-05 2.1546e-05 2.1546e-05 2.1546e-05 2.1546e-05 2.1546e-05 2.1546e-05 2.1546e-05 2.1546e-05
          2.1546e-05 2.1546e-05 2.1546e-05 2.1546e-05 2.15459e-05 2.15459e-05 2.15459e-05 2.15459e-05 2.15459e-05 2.15459e-05 2.15459e-05 2.15459e-05
          2.18197e-05 2.18069e-05 2.17974e-05 2.179e-05 2.17838e-05 2.17784e-05 2.17736e-05 2.17694e-05 2.21546e-05 2.21379e-05 2.21263e-05 2.21173e-05
          2.21097e-05 2.21031e-05 2.20973e-05 2.20919e-05
        </DataArray>
        <DataArray type="Float32" Name="rhoMolar_liq" NumberOfComponents="1" format="ascii">
          55344.6 55344.6 55344.6 55344.6 55344.6 55344.6 55344.6 55344.6 55344.6 55344.6 55344.6 55344.6
          55344.6 55344.6 55344.6 55344.6 55344.6 55344.6 55344.6 55344.6 55344.6 55344.6 55344.6 55344.6
          55344.6 55344.6 55344.6 55344.6 55344.6 55344.6 55344.6 55344.6 55344.6 55344.6 55344.6 55344.6
          55344.6 55344.6 55344.6 55344.6 55344.6 55344.6 55344.6 55344.6 55344.6 55344.6 55344.6 55344.6
          55344.5 55344.5 55344.5 55344.5 55344.5 55344.5 55344.5 55344.5 55344.5 55344.5 55344.5 55344.5
          55344.5 55344.5 55344.5 55344.5
        </DataArray>
        <DataArray type="Float32" Name="x^H2O_gas" NumberOfComponents="1" format="ascii">
          0.0317389 0.0317389 0.0317389 0.0317389 0.0317389 0.0317389 0.0317389 0.0317389 0.0317391 0.0317391 0.0317391 0.0317391
          0.0317391 0.0317391 0.0317391 0.0317391 0.0317393 0.0317393 0.0317393 0.0317393 0.0317393 0.0317393 0.0317393 0.0317393
          0.0317394 0.0317394 0.0317394 0.0317394 0.0317394 0.0317394 0.0317394 0.0317394 0.0317395 0.0317395 0.0317395 0.0317395
          0.0317395 0.0317395 0.0317395 0.0317395 0.0317396 0.0317396 0.0317396 0.0317396 0.0317396 0.0317396 0.0317396 0.0317396
          0.0194292 0.0200066 0.0204326 0.020767 0.0210461 0.0212882 0.0215037 0.0216937 0.00433186 0.00509282 0.00561617 0.00602646
          0.00636947 0.00666685 0.0069319 0.00717566
        </DataArray>
        <DataArray type="Float32" Name="X^H2O_gas" NumberOfComponents="1" format="ascii">
          0.0199835 0.0199835 0.0199835 0.0199835 0.0199835 0.0199835 0.0199835 0.0199835 0.0199837 0.0199837 0.0199837 0.0199837
          0.0199837 0.0199837 0.0199837 0.0199837 0.0199838 0.0199838 0.0199838 0.0199838 0.0199838 0.0199838 0.0199838 0.0199838
          0.0199839 0.0199839 0.0199839 0.0199839 0.0199839 0.0199839 0.0199839 0.0199839 0.0199839 0.0199839 0.0199839 0.0199839
          0.0199839 0.0199839 0.0199839 0.0199839 0.019984 0.019984 0.019984 0.019984 0.019984 0.019984 0.019984 0.019984
          0.0121758 0.0125404 0.0128095 0.0130207 0.0131972 0.0133502 0.0134864 0.0136066 0.00269914 0.00317421 0.00350109 0.00375745
          0.00397183 0.00415773 0.00432346 0.00447591
        </DataArray>
        <DataArray type="Float32" Name="x^Air_gas" NumberOfComponents="1" format="ascii">
          0.968261 0.968261 0.968261 0.968261 0.968261 0.968261 0.968261 0.968261 0.968261 0.968261 0.968261 0.968261
          0.968261 0.968261 0.968261 0.968261 0.968261 0.968261 0.968261 0.968261 0.968261 0.968261 0.968261 0.968261
          0.968261 0.968261 0.968261 0.968261 0.968261 0.968261 0.968261 0.968261 0.96826 0.96826 0.96826 0.96826
          0.96826 0.96826 0.96826 0.96826 0.96826 0.96826 0.96826 0.96826 0.96826 0.96826 0.96826 0.96826
          0.980571 0.979993 0.979567 0.979233 0.978954 0.978712 0.978496 0.978306 0.995668 0.994907 0.994384 0.993974
          0.993631 0.993333 0.993068 0.992824
        </DataArray>
        <DataArray type="Float32" Name="X^Air_gas" NumberOfComponents="1" format="ascii">
          0.980016 0.980016 0.980016 0.980016 0.980016 0.980016 0.980016 0.980016 0.980016 0.980016 0.980016 0.980016
          0.980016 0.980016 0.980016 0.980016 0.980016 0.980016 0.980016 0.980016 0.980016 0.980016 0.980016 0.980016
          0.980016 0.980016 0.980016 0.980016 0.980016 0.980016 0.980016 0.980016 0.980016 0.980016 0.980016 0.980016
          0.980016 0.980016 0.980016 0.980016 0.980016 0.980016 0.980016 0.980016 0.980016 0.980016 0.980016 0.980016
          0.987824 0.98746 0.987191 0.986979 0.986803 0.98665 0.986514 0.986393 0.997301 0.996826 0.996499 0.996243
          0.996028 0.995842 0.995677 0.995524
        </DataArray>
        <DataArray type="Float32" Name="rhoMolar_gas" NumberOfComponents="1" format="ascii">
          40.3425 40.3425 40.3425 40.3425 40.3425 40.3425 40.3425 40.3425 40.3422 40.3422 40.3422 40.3422
          40.3422 40.3422 40.3422 40.3422 40.342 40.342 40.342 40.342 40.342 40.342 40.342 40.342
          40.3418 40.3418 40.3418 40.3418 40.3418 40.3418 40.3418 40.3418 40.3417 40.3417 40.3417 40.3417
          40.3417 40.3417 40.3417 40.3417 40.3417 40.3417 40.3417 40.3417 40.3417 40.3417 40.3417 40.3417
          40.3403 40.3403 40.3404 40.3404 40.3404 40.3405 40.3405 40.3405 40.3395 40.3396 40.3396 40.3396
          40.3396 40.3396 40.3396 40.3396
        </DataArray>
        <DataArray type="Float32" Name="phase presence" NumberOfComponents="1" format="ascii">
          3 3 3 3 3 3 3 3 3 3 3 3
          3 3 3 3 3 3 3 3 3 3 3 3
          3 3 3 3 3 3 3 3 3 3 3 3
          3 3 3 3 3 3 3 3 3 3 3 3
          2 2 2 2 2 2 2 2 2 2 2 2
          2 2 2 2
        </DataArray>
        <DataArray type="Float32" Name="process rank" NumberOfComponents="1" format="ascii">
          0 0 0 0 0 0 0 0 0 0 0 0
          0 0 0 0 0 0 0 0 0 0 0 0
          0 0 0 0 0 0 0 0 0 0 0 0
          0 0 0 0 0 0 0 0 0 0 0 0
          0 0 0 0 0 0 0 0 0 0 0 0
          0 0 0 0
        </DataArray>
      </CellData>
      <Points>
        <DataArray type="Float32" Name="Coordinates" NumberOfComponents="3" format="ascii">
          0 0 0 0.03125 0 0 0 0.0867169 0 0.03125 0.0867169 0
          0.0625 0 0 0.0625 0.0867169 0 0.09375 0 0 0.09375 0.0867169 0
          0.125 0 0 0.125 0.0867169 0 0.15625 0 0 0.15625 0.0867169 0
          0.1875 0 0 0.1875 0.0867169 0 0.21875 0 0 0.21875 0.0867169 0
          0.25 0 0 0.25 0.0867169 0 0 0.144528 0 0.03125 0.144528 0
          0.0625 0.144528 0 0.09375 0.144528 0 0.125 0.144528 0 0.15625 0.144528 0
          0.1875 0.144528 0 0.21875 0.144528 0 0.25 0.144528 0 0 0.183069 0
          0.03125 0.183069 0 0.0625 0.183069 0 0.09375 0.183069 0 0.125 0.183069 0
          0.15625 0.183069 0 0.1875 0.183069 0 0.21875 0.183069 0 0.25 0.183069 0
          0 0.208763 0 0.03125 0.208763 0 0.0625 0.208763 0 0.09375 0.208763 0
          0.125 0.208763 0 0.15625 0.208763 0 0.1875 0.208763 0 0.21875 0.208763 0
          0.25 0.208763 0 0 0.225892 0 0.03125 0.225892 0 0.0625 0.225892 0
          0.09375 0.225892 0 0.125 0.225892 0 0.15625 0.225892 0 0.1875 0.225892 0
          0.21875 0.225892 0 0.25 0.225892 0 0 0.237312 0 0.03125 0.237312 0
          0.0625 0.237312 0 0.09375 0.237312 0 0.125 0.237312 0 0.15625 0.237312 0
          0.1875 0.237312 0 0.21875 0.237312 0 0.25 0.237312 0 0 0.244925 0
          0.03125 0.244925 0 0.0625 0.244925 0 0.09375 0.244925 0 0.125 0.244925 0
          0.15625 0.244925 0 0.1875 0.244925 0 0.21875 0.244925 0 0.25 0.244925 0
          0 0.25 0 0.03125 0.25 0 0.0625 0.25 0 0.09375 0.25 0
          0.125 0.25 0 0.15625 0.25 0 0.1875 0.25 0 0.21875 0.25 0
          0.25 0.25 0
        </DataArray>
      </Points>
      <Cells>
        <DataArray type="Int32" Name="connectivity" NumberOfComponents="1" format="ascii">
          0 1 3 2 1 4 5 3 4 6 7 5
          6 8 9 7 8 10 11 9 10 12 13 11
          12 14 15 13 14 16 17 15 2 3 19 18
          3 5 20 19 5 7 21 20 7 9 22 21
          9 11 23 22 11 13 24 23 13 15 25 24
          15 17 26 25 18 19 28 27 19 20 29 28
          20 21 30 29 21 22 31 30 22 23 32 31
          23 24 33 32 24 25 34 33 25 26 35 34
          27 28 37 36 28 29 38 37 29 30 39 38
          30 31 40 39 31 32 41 40 32 33 42 41
          33 34 43 42 34 35 44 43 36 37 46 45
          37 38 47 46 38 39 48 47 39 40 49 48
          40 41 50 49 41 42 51 50 42 43 52 51
          43 44 53 52 45 46 55 54 46 47 56 55
          47 48 57 56 48 49 58 57 49 50 59 58
          50 51 60 59 51 52 61 60 52 53 62 61
          54 55 64 63 55 56 65 64 56 57 66 65
          57 58 67 66 58 59 68 67 59 60 69 68
          60 61 70 69 61 62 71 70 63 64 73 72
          64 65 74 73 65 66 75 74 66 67 76 75
          67 68 77 76 68 69 78 77 69 70 79 78
          70 71 80 79
        </DataArray>
        <DataArray type="Int32" Name="offsets" NumberOfComponents="1" format="ascii">
          4 8 12 16 20 24 28 32 36 40 44 48
          52 56 60 64 68 72 76 80 84 88 92 96
          100 104 108 112 116 120 124 128 132 136 140 144
          148 152 156 160 164 168 172 176 180 184 188 192
          196 200 204 208 212 216 220 224 228 232 236 240
          244 248 252 256
        </DataArray>
        <DataArray type="UInt8" Name="types" NumberOfComponents="1" format="ascii">
          9 9 9 9 9 9 9 9 9 9 9 9
          9 9 9 9 9 9 9 9 9 9 9 9
          9 9 9 9 9 9 9 9 9 9 9 9
          9 9 9 9 9 9 9 9 9 9 9 9
          9 9 9 9 9 9 9 9 9 9 9 9
          9 9 9 9
        </DataArray>
      </Cells>
    </Piece>
  </UnstructuredGrid>
</VTKFile>
