<?xml version="1.0"?>
<VTKFile type="UnstructuredGrid" version="0.1" byte_order="LittleEndian">
  <UnstructuredGrid>
    <Piece NumberOfCells="163" NumberOfPoints="194">
      <CellData Scalars="wetting pressure">
        <DataArray type="Float32" Name="wetting pressure" NumberOfComponents="1" format="ascii">
          265459 270494 271906 270818 267733 262836 256086 247236 235756 220558 261911 264310
          264599 263007 259738 254882 248380 240058 229668 217044 260165 260236 259173 256873
          253332 248574 242493 234950 225815 215374 259056 257296 254983 251983 231437 223267
          214388 258198 254910 251480 221430 213678 257402 252666 248141 219429 212949 256524
          250213 244496 216748 212017 255382 247164 240096 234325 216944 213307 210766 253600
          242966 234400 227622 222309 217824 213787 210569 208773 208884 250029 236701 226916
          219456 213640 208964 205239 202777 202333 205258 250399 248326 245960 248016 249762
          247899 245933 247825 245905 243919 242217 244030 241783 239479 238001 240200 242074
          240354 238300 239996 238500 236442 234635 236554 246025 243483 241322 243746 245946
          243971 241920 243970 236975 234309 233073 235616 237769 236057 233620 235401 234197
          231792 230325 232544 234368 232563 230248 231946 240640 237526 235714 238650 241897
          239732 237332 239562 231590 227851 226866 230384 230604 228515 225643 228366 232658
          230903 227289 229198 229206 225646 223872 227475 229227 227143 223017 225312 225262
          221977 219665 222571 224773 222176 218494 220778
        </DataArray>
        <DataArray type="Float32" Name="nonwetting pressure" NumberOfComponents="1" format="ascii">
          265459 270494 271906 270818 267733 262836 256086 247236 235756 220558 261911 264310
          264599 263007 259738 254882 248380 240058 229668 217044 260165 260236 259173 256873
          253332 248574 242493 234950 225815 215374 259056 257296 254983 251983 231437 223267
          214388 258198 254910 251480 221430 213678 257402 252666 248141 219429 212949 256524
          250213 244496 216748 212017 255382 247164 240096 234325 216944 213307 210766 253600
          242966 234400 227622 222309 217824 213787 210569 208773 208884 250029 236701 226916
          219456 213640 208964 205239 202777 202333 205258 250399 248326 245960 248016 249762
          247899 245933 247825 246327 244504 242975 244610 242147 239709 238374 240729 242415
          240863 238645 240195 238945 236797 234932 236899 246025 243483 241322 243746 245946
          243971 241920 243970 237126 234411 233264 235884 237886 236290 233770 235463 234471
          231994 230490 232784 234626 232799 230410 232130 240640 237526 235714 238650 241897
          239732 237332 239562 231611 227851 226866 230490 230795 228604 225643 228459 232658
          230971 227289 229198 229311 225646 223872 227475 229313 227143 223017 225312 225262
          221977 219665 222571 224773 222176 218494 220778
        </DataArray>
        <DataArray type="Float32" Name="wetting saturation" NumberOfComponents="1" format="ascii">
          1 1 1 1 1 1 1 1 1 1 1 1
          1 1 1 1 1 1 1 1 1 1 1 1
          1 1 1 1 1 1 1 1 1 1 1 1
          1 1 1 1 1 1 1 1 1 1 1 1
          1 1 1 1 1 1 1 1 1 1 1 1
          1 1 1 1 1 1 1 1 1 1 1 1
          1 1 1 1 1 1 1 1 1 1 1 1
          1 1 1 0.957795 0.941518 0.924193 0.942028 0.963644 0.977039 0.962686 0.947108 0.965854
          0.949084 0.965533 0.980095 0.955494 0.964558 0.970308 0.965583 1 1 1 1 1
          1 1 1 0.984845 0.989792 0.980889 0.973222 0.98837 0.976681 0.985015 0.993798 0.972634
          0.979735 0.98349 0.976058 0.974161 0.976419 0.983834 0.981628 1 1 1 1 1
          1 1 1 0.997875 1 1 0.989431 0.980819 0.991125 1 0.990669 1
          0.993212 1 1 0.989448 1 1 1 0.991351 1 1 1 1
          1 1 1 1 1 1 1
        </DataArray>
        <DataArray type="Float32" Name="C^w from cellData" NumberOfComponents="1" format="ascii">
          199.956 199.956 199.957 199.956 199.956 199.956 199.955 199.954 199.953 199.952 199.956 199.956
          199.956 199.956 199.955 199.955 199.954 199.954 199.953 199.951 199.955 199.955 199.955 199.955
          199.955 199.954 199.954 199.953 199.952 199.951 199.955 199.955 199.955 199.954 199.952 199.952
          199.951 199.955 199.955 199.955 199.952 199.951 199.955 199.955 199.954 199.952 199.951 199.955
          199.954 199.954 199.951 199.951 199.955 199.954 199.953 199.953 199.951 199.951 199.951 199.955
          199.954 199.953 199.952 199.952 199.951 199.951 199.951 199.951 199.951 199.955 199.953 199.952
          199.952 199.951 199.951 199.95 199.95 199.95 199.95 199.954 199.954 199.784 199.836 199.954
          199.765 199.766 199.954 191.69 188.484 185.051 188.572 192.706 195.269 192.48 189.507 193.077
          189.884 193.031 195.824 191.096 192.806 193.895 193.007 199.952 199.952 199.944 199.965 199.954
          199.901 199.897 199.954 196.749 197.412 195.905 194.477 197.405 195.151 196.671 198.23 194.334
          195.621 195.95 194.967 194.636 195.04 195.998 195.969 199.952 199.952 199.947 199.972 199.953
          199.909 199.933 199.954 199.053 199.925 199.399 197.214 195.749 197.739 199.881 197.625 199.528
          198.117 199.768 199.953 197.132 199.647 199.951 199.071 197.611 199.081 199.944 199.773 199.933
          199.948 199.948 199.948 199.927 199.944 199.944 199.945
        </DataArray>
        <DataArray type="Float32" Name="C^n from cellData" NumberOfComponents="1" format="ascii">
          0 0 0 8.18254e-11 3.30893e-10 2.10378e-10 7.27444e-11 4.97665e-12 1.60837e-13 4.57163e-15 0 0
          0 1.94914e-08 8.41297e-08 4.28493e-08 1.87405e-08 1.94547e-09 4.48626e-11 7.97443e-13 0 0 0 1.79706e-06
          8.13512e-06 3.36957e-06 1.737e-06 4.66768e-07 7.01291e-09 8.20001e-11 0 0 0 7.89604e-05 8.05597e-05 7.13872e-07
          5.70951e-09 0 0 0 2.12712e-05 1.4247e-07 0 0 0 3.47461e-06 1.10011e-08 0
          0 0 8.3113e-08 7.97205e-11 0 0 0 0 3.74098e-08 1.98166e-11 1.14352e-14 0
          0 0 0 0 0 0 0 0 0 0 0 0
          0 0 0 0 0 0 0 0.000293029 0.000452465 0.00499128 0.00350945 4.10457e-08
          0.00296558 0.00417056 4.39212e-07 0.0393585 0.0485871 0.0583523 0.0483067 0.0352758 0.0272383 0.0352616 0.0445947 0.0340236
          0.0434788 0.0336773 0.0255357 0.0394584 0.0339604 0.0304596 0.0333951 0.0001557 0.000117923 0.00161894 0.00199975 3.94075e-06
          4.20451e-06 3.8743e-06 3.59523e-06 0.0225195 0.0194632 0.0243434 0.0289445 0.0205875 0.0270431 0.0220914 0.0173078 0.0290951
          0.0248418 0.0225693 0.0269771 0.0282599 0.0267784 0.0223705 0.0238058 8.11351e-05 6.41607e-05 0.000869307 0.00114399 0
          0 0 0 0.0147765 0.000684611 0.00702157 0.0193217 0.0241055 0.0182589 0.000938066 0.0184931 0.00502938
          0.0172983 0.00201756 0 0.0192045 0.00371603 0.000131443 0.0128862 0.0181766 0.0126545 0.000103939 0.00198327 0.000257195
          8.56129e-05 8.55859e-05 8.58237e-05 0.000295577 9.98391e-05 9.98238e-05 9.98272e-05
        </DataArray>
        <DataArray type="Float32" Name="capillary pressure" NumberOfComponents="1" format="ascii">
          0 0 0 0 0 0 0 0 0 0 0 0
          0 0 0 0 0 0 0 0 0 0 0 0
          0 0 0 0 0 0 0 0 0 0 0 0
          0 0 0 0 0 0 0 0 0 0 0 0
          0 0 0 0 0 0 0 0 0 0 0 0
          0 0 0 0 0 0 0 0 0 0 0 0
          0 0 0 0 0 0 0 0 0 0 0 0
          0 0 0 422.046 584.822 758.071 579.722 363.564 229.607 373.14 528.921 341.462
          509.164 344.67 199.046 445.057 354.418 296.92 344.166 0 0 0 0 0
          0 0 0 151.554 102.079 191.106 267.778 116.302 233.189 149.849 62.0227 273.661
          202.652 165.103 239.42 258.391 235.805 161.661 183.723 0 0 0 0 0
          0 0 0 21.2508 0 0 105.693 191.809 88.7474 0 93.3085 0
          67.8801 0 0 105.516 0 0 0 86.489 0 0 0 0
          0 0 0 0 0 0 0
        </DataArray>
        <DataArray type="Float32" Name="wetting density" NumberOfComponents="1" format="ascii">
          999.78 999.783 999.783 999.783 999.781 999.779 999.776 999.771 999.766 999.759 999.779 999.78
          999.78 999.779 999.777 999.775 999.772 999.768 999.763 999.757 999.778 999.778 999.777 999.776
          999.774 999.772 999.769 999.766 999.761 999.756 999.777 999.776 999.775 999.774 999.764 999.76
          999.756 999.777 999.775 999.773 999.759 999.755 999.776 999.774 999.772 999.758 999.755 999.776
          999.773 999.77 999.757 999.755 999.775 999.771 999.768 999.765 999.757 999.755 999.754 999.775
          999.769 999.765 999.762 999.76 999.757 999.755 999.754 999.753 999.753 999.773 999.766 999.762
          999.758 999.755 999.753 999.751 999.75 999.75 999.751 999.774 999.773 999.78 999.779 999.773
          999.777 999.779 999.772 999.798 999.797 999.796 999.797 999.796 999.794 999.794 999.795 999.796
          999.795 999.794 999.795 999.794 999.793 999.792 999.793 999.771 999.77 999.772 999.774 999.771
          999.77 999.769 999.77 999.793 999.791 999.791 999.792 999.793 999.792 999.791 999.792 999.791
          999.79 999.789 999.79 999.791 999.79 999.789 999.79 999.768 999.767 999.768 999.77 999.769
          999.768 999.767 999.768 999.79 999.763 999.775 999.789 999.789 999.788 999.763 999.788 999.774
          999.789 999.766 999.763 999.788 999.768 999.761 999.786 999.788 999.786 999.76 999.765 999.761
          999.76 999.758 999.76 999.761 999.76 999.758 999.759
        </DataArray>
        <DataArray type="Float32" Name="nonwetting density" NumberOfComponents="1" format="ascii">
          3.25976 3.3217 3.33907 3.32568 3.28774 3.2275 3.14447 3.0356 2.89438 2.70742 3.21612 3.24563
          3.24918 3.2296 3.18939 3.12965 3.04966 2.9473 2.81949 2.66421 3.19464 3.19551 3.18243 3.15415
          3.11058 3.05206 2.97725 2.88447 2.77209 2.64366 3.181 3.15935 3.13089 3.09399 2.84125 2.74075
          2.63153 3.17045 3.13 3.0878 2.71815 2.62279 3.16065 3.1024 3.04673 2.69354 2.61383 3.14985
          3.07221 3.0019 2.66056 2.60236 3.1358 3.03471 2.94777 2.87677 2.66297 2.61823 2.58697 3.11388
          2.98307 2.8777 2.79432 2.72897 2.6738 2.62413 2.58455 2.56245 2.56382 3.06995 2.906 2.78564
          2.69387 2.62232 2.56481 2.51898 2.4887 2.48323 2.51921 3.07451 3.04901 3.0199 3.04519 3.06667
          3.04375 3.01957 3.04285 3.0244 3.00197 2.98317 3.00328 2.97299 2.943 2.92658 2.95554 2.97629
          2.95719 2.92991 2.94898 2.9336 2.90717 2.88424 2.90843 3.0207 2.98944 2.96285 2.99266 3.01973
          2.99543 2.97021 2.99542 2.91123 2.87783 2.86372 2.89595 2.92057 2.90094 2.86995 2.89077 2.87856
          2.8481 2.8296 2.85781 2.88047 2.85799 2.82861 2.84977 2.95446 2.91615 2.89386 2.92998 2.96992
          2.94329 2.91377 2.94119 2.84339 2.79714 2.78503 2.82959 2.83335 2.8064 2.76998 2.80461 2.85627
          2.83552 2.79023 2.81371 2.8151 2.77002 2.74819 2.79251 2.81512 2.78842 2.73767 2.76591 2.76529
          2.72488 2.69644 2.73218 2.75928 2.72732 2.68204 2.71013
        </DataArray>
        <DataArray type="Float32" Name="mobility w_phase" NumberOfComponents="1" format="ascii">
          765.842 765.844 765.845 765.845 765.843 765.84 765.837 765.832 765.826 765.818 765.84 765.841
          765.841 765.841 765.839 765.836 765.833 765.828 765.823 765.816 765.839 765.839 765.839 765.837
          765.835 765.833 765.83 765.826 765.821 765.815 765.838 765.837 765.836 765.835 765.824 765.819
          765.815 765.838 765.836 765.834 765.818 765.814 765.838 765.835 765.833 765.817 765.814 765.837
          765.834 765.831 765.816 765.814 765.836 765.832 765.828 765.825 765.816 765.814 765.813 765.836
          765.83 765.825 765.822 765.819 765.817 765.814 765.813 765.812 765.812 765.834 765.827 765.821
          765.817 765.814 765.812 765.81 765.809 765.808 765.81 765.834 765.833 765.831 765.833 765.833
          765.833 765.831 765.832 733.51 721.043 707.774 721.434 737.986 748.244 737.251 725.322 739.679
          726.835 739.432 750.585 731.744 738.684 743.087 739.469 765.832 765.83 765.829 765.83 765.831
          765.83 765.829 765.83 754.22 758.008 751.189 745.319 756.92 747.968 754.349 761.076 744.868
          750.304 753.179 747.489 746.037 747.766 753.443 751.754 765.829 765.827 765.826 765.828 765.829
          765.828 765.827 765.828 764.196 765.822 765.821 757.729 751.134 759.026 765.821 758.676 765.824
          760.625 765.822 765.823 757.742 765.821 765.82 765.822 759.199 765.822 765.819 765.821 765.821
          765.819 765.818 765.819 765.82 765.819 765.817 765.818
        </DataArray>
        <DataArray type="Float32" Name="mobility nw_phase" NumberOfComponents="1" format="ascii">
          0 0 0 0 0 0 0 0 0 0 0 0
          0 0 0 0 0 0 0 0 0 0 0 0
          0 0 0 0 0 0 0 0 0 0 0 0
          0 0 0 0 0 0 0 0 0 0 0 0
          0 0 0 0 0 0 0 0 0 0 0 0
          0 0 0 0 0 0 0 0 0 0 0 0
          0 0 0 0 0 0 0 0 0 0 0 0
          0 0 0 2389.68 3311.47 4292.62 3282.58 2058.73 1300.24 2113.13 2995.18 1933.56
          2883.29 1951.88 1127.17 2520.37 2007.17 1681.61 1949.1 0 0 0 0 0
          0 0 0 858.283 578.126 1082.37 1516.53 658.631 1320.63 848.692 351.259 1549.89
          1147.79 935.152 1356.02 1463.41 1335.55 915.656 1040.58 0 0 0 0 0
          0 0 0 120.371 0 0 598.648 1086.41 502.699 0 528.535 0
          384.474 0 0 597.668 0 0 0 489.894 0 0 0 0
          0 0 0 0 0 0 0
        </DataArray>
        <DataArray type="Float32" Name="mass fraction H2O in liquid-phase" NumberOfComponents="1" format="ascii">
          1 1 1 1 1 1 1 1 1 1 1 1
          1 1 1 1 1 1 1 1 1 1 1 1
          1 1 1 1 1 1 1 1 1 1 1 1
          1 1 1 1 1 1 1 1 1 1 1 1
          1 1 1 1 1 1 1 1 1 1 1 1
          1 1 1 1 1 1 1 1 1 1 1 1
          1 1 1 1 1 1 1 0.999999 0.999998 0.999975 0.999982 1
          0.999985 0.999979 1 0.999928 0.999928 0.999929 0.999928 0.999929 0.999929 0.99993 0.999929 0.999929
          0.999929 0.99993 0.999929 0.99993 0.99993 0.999931 0.99993 0.999999 0.999999 0.999992 0.99999 1
          1 1 1 0.99993 0.999931 0.999931 0.999931 0.99993 0.999931 0.999931 0.999931 0.999931
          0.999932 0.999932 0.999932 0.999931 0.999932 0.999932 0.999932 1 1 0.999996 0.999994 1
          1 1 1 0.999932 0.999997 0.999965 0.999932 0.999932 0.999933 0.999995 0.999933 0.999975
          0.999932 0.99999 1 0.999933 0.999981 0.999999 0.999935 0.999933 0.999936 0.999999 0.99999 0.999999
          1 1 1 0.999999 1 1 1
        </DataArray>
        <DataArray type="Float32" Name="mass fraction H2O in gas-phase" NumberOfComponents="1" format="ascii">
          0.002883 0.00282924 0.00281452 0.00282585 0.00285847 0.00291182 0.00298872 0.00309591 0.00324696 0.00347119 0.00292212 0.00289556
          0.00289239 0.00290993 0.00294662 0.00300287 0.00308163 0.00318866 0.00333321 0.0035275 0.00294177 0.00294097 0.00295306 0.00297954
          0.00302128 0.00307921 0.00315658 0.00325812 0.00339021 0.00355492 0.00295439 0.00297463 0.00300167 0.00303748 0.00330769 0.00342898
          0.0035713 0.00296422 0.00300253 0.00304357 0.00345749 0.0035832 0.00297341 0.00302924 0.00308459 0.00348908 0.00359549 0.00298361
          0.00305901 0.00313067 0.00353234 0.00361134 0.00299697 0.00309681 0.00318816 0.00326684 0.00352914 0.00358944 0.00363282 0.00301807
          0.00315042 0.00326579 0.00336324 0.00344379 0.00351485 0.00358138 0.00363622 0.00366758 0.00366563 0.00306126 0.00323398 0.00337372
          0.00348865 0.00358384 0.00366421 0.00373087 0.00377628 0.00378459 0.00373053 0.00305673 0.00308229 0.00311201 0.00308616 0.00306453
          0.00308762 0.00311234 0.00308853 0.0031127 0.00313809 0.00316018 0.00313666 0.00316587 0.00319638 0.00321628 0.00318677 0.00316206
          0.00318473 0.00321223 0.00318949 0.00320953 0.00323752 0.00326251 0.00323598 0.00311118 0.00314372 0.00317193 0.00314033 0.00311218
          0.00313742 0.00316407 0.00313743 0.00323023 0.00326706 0.00328442 0.00324889 0.00321942 0.00324282 0.00327671 0.00325188 0.00326862
          0.00330262 0.00332369 0.0032919 0.00326624 0.00329164 0.0033248 0.00330041 0.00318093 0.00322272 0.00324755 0.00320751 0.00316438
          0.003193 0.00322536 0.00319528 0.0033055 0.00335984 0.00337446 0.00332283 0.00331966 0.00335007 0.0033928 0.00335226 0.00329029
          0.00331535 0.00336817 0.00334006 0.00333995 0.00339275 0.0034197 0.00336542 0.00333964 0.00337035 0.00343283 0.00339779 0.00339855
          0.00344896 0.00348534 0.00343973 0.00340595 0.00344586 0.00350404 0.00346772
        </DataArray>
        <DataArray type="Float32" Name="volume Error" NumberOfComponents="1" format="ascii">
          -2.27666e-08 -6.93489e-08 -1.1786e-07 -1.47818e-07 -1.58515e-07 -1.46901e-07 -1.12145e-07 -5.56156e-08 2.68352e-08 3.51778e-08 -3.39514e-08 -8.73364e-08
          -1.34507e-07 -1.6846e-07 -1.82965e-07 -1.72161e-07 -1.352e-07 -7.94472e-08 -1.04213e-08 1.00544e-08 -3.52906e-08 -9.80797e-08 -1.53922e-07 -2.00956e-07
          -2.23189e-07 -2.14252e-07 -1.67759e-07 -1.0577e-07 -3.82495e-08 -2.95555e-09 -3.62889e-08 -1.06336e-07 -1.76683e-07 -2.5011e-07 -8.62999e-07 -5.8675e-08
          -1.24984e-08 -3.58768e-08 -1.09716e-07 -1.93129e-07 -7.40573e-08 -1.92334e-08 -3.22971e-08 -1.02592e-07 -1.86869e-07 -7.85445e-08 -2.34773e-08 -2.48764e-08
          -8.33642e-08 -1.5335e-07 -7.67736e-08 -2.60796e-08 -1.45925e-08 -5.79191e-08 -1.15807e-07 -1.61498e-07 -1.13893e-07 -7.54694e-08 -2.83128e-08 -1.68851e-09
          -2.79241e-08 -8.39511e-08 -1.23805e-07 -1.42963e-07 -1.4277e-07 -1.27527e-07 -1.03589e-07 -7.15136e-08 -3.02651e-08 2.21573e-08 8.49684e-09 -5.89806e-08
          -1.00832e-07 -1.22257e-07 -1.25534e-07 -1.143e-07 -9.23845e-08 -5.8863e-08 -2.20422e-08 -5.11314e-07 -5.07254e-07 -0.000167281 -0.000116457 -4.97836e-07
          -0.000187204 -0.000185156 -5.18372e-08 0.000191506 0.00024619 0.000284816 0.000231551 3.18608e-05 -8.72558e-05 -4.08542e-06 0.000145214 -4.23612e-05
          0.000125597 -2.32423e-05 -0.000143729 5.19669e-05 -5.45915e-05 -0.000116773 -5.82679e-05 -2.34346e-06 -2.29195e-06 -8.95365e-06 1.22225e-05 -6.61963e-07
          -5.32826e-05 -5.65251e-05 -2.1411e-07 -0.000167773 -0.000496848 -0.00022265 -0.000116678 -0.000217202 -0.000134599 -0.000281512 -0.000478027 -0.000143216
          -0.00027674 -0.000705064 -0.00019543 -0.0001457 -0.000194613 -0.000726303 -0.000307364 -1.12305e-06 -1.1702e-06 -5.19273e-06 1.91184e-05 -4.54072e-07
          -4.46368e-05 -2.07465e-05 5.71617e-09 -0.000467275 -2.71451e-05 -0.000548943 -0.000624027 -0.000367134 -0.000434435 -7.04896e-05 -0.000458118 -0.000421438
          -0.000473183 -0.000183531 5.51048e-08 -0.000710041 -0.000302796 -6.58023e-07 -0.000873777 -0.000609668 -0.000863878 -8.21264e-06 -0.000178063 -1.891e-05
          -4.12148e-06 -3.65255e-06 -3.65259e-06 -2.50241e-05 -7.67741e-06 -7.2087e-06 -7.20873e-06
        </DataArray>
        <DataArray type="Float32" Name="Error Correction" NumberOfComponents="1" format="ascii">
          0 0 0 0 0 0 0 0 0 0 0 0
          0 0 0 0 0 0 0 0 0 0 0 0
          0 0 0 0 0 0 0 0 0 0 0 0
          0 0 0 0 0 0 0 0 0 0 0 0
          0 0 0 0 0 0 0 0 0 0 0 0
          0 0 0 0 0 0 0 0 0 0 0 0
          0 0 0 0 0 0 0 0 0 0 0 0
          0 0 0 0 0 0 0 0 0 0 0 0
          0 0 0 0 0 0 0 0 0 0 0 0
          0 0 0 0 0 0 0 0 0 0 0 0
          0 0 0 0 0 0 0 0 0 0 0 0
          0 0 0 0 0 0 0 0 0 0 0 0
          0 0 0 0 0 0 0 0 0 0 0 0
          0 0 0 0 0 0 0
        </DataArray>
        <DataArray type="Float32" Name="dv_dp" NumberOfComponents="1" format="ascii">
          -9.55392e-11 -9.5538e-11 -9.55376e-11 -9.55378e-11 -9.55386e-11 -9.55399e-11 -9.55415e-11 -9.55438e-11 -9.55466e-11 -9.55504e-11 -9.55401e-11 -9.55395e-11
          -9.55394e-11 -9.55398e-11 -9.55406e-11 -9.55418e-11 -9.55434e-11 -9.55455e-11 -9.55481e-11 -9.55513e-11 -9.55405e-11 -9.55405e-11 -9.55407e-11 -9.55413e-11
          -9.55422e-11 -9.55433e-11 -9.55449e-11 -9.55468e-11 -9.55491e-11 -9.55517e-11 -9.55408e-11 -9.55412e-11 -9.55418e-11 -9.55425e-11 -9.55474e-11 -9.55497e-11
          -9.55519e-11 -9.5541e-11 -9.55418e-11 -9.55426e-11 -9.55502e-11 -9.55521e-11 -9.55412e-11 -9.55424e-11 -9.55435e-11 -9.55507e-11 -9.55523e-11 -9.55414e-11
          -9.5543e-11 -9.55444e-11 -9.55513e-11 -9.55525e-11 -9.55417e-11 -9.55438e-11 -9.55455e-11 -9.55469e-11 -9.55513e-11 -9.55522e-11 -9.55528e-11 -9.55422e-11
          -9.55448e-11 -9.55469e-11 -9.55486e-11 -9.55499e-11 -9.5551e-11 -9.5552e-11 -9.55529e-11 -9.55533e-11 -9.55533e-11 -9.55431e-11 -9.55464e-11 -9.55488e-11
          -9.55506e-11 -9.55521e-11 -9.55532e-11 -9.55542e-11 -9.55548e-11 -9.55549e-11 -9.55542e-11 -9.55427e-11 -9.55432e-11 -9.54642e-11 -9.54879e-11 -9.55429e-11
          -9.54543e-11 -9.54558e-11 -9.55436e-11 -5.33822e-08 -6.68516e-08 -8.12436e-08 -6.64137e-08 -4.94999e-08 -3.90195e-08 -5.10238e-08 -6.32556e-08 -4.76473e-08
          -6.16127e-08 -4.86321e-08 -3.6443e-08 -5.68043e-08 -4.97887e-08 -4.53774e-08 -4.8922e-08 -9.55429e-11 -9.55436e-11 -9.5541e-11 -9.55505e-11 -9.55438e-11
          -9.55193e-11 -9.55182e-11 -9.55445e-11 -3.2985e-08 -2.91904e-08 -3.68208e-08 -4.27896e-08 -2.99725e-08 -3.9852e-08 -3.32717e-08 -2.57351e-08 -4.3521e-08
          -3.79749e-08 -3.50135e-08 -4.09484e-08 -4.22216e-08 -4.06447e-08 -3.47381e-08 -3.63526e-08 -9.55449e-11 -9.55456e-11 -9.55442e-11 -9.5555e-11 -9.55449e-11
          -9.55244e-11 -9.55365e-11 -9.55457e-11 -2.2598e-08 -9.55374e-11 -9.52959e-11 -2.99706e-08 -3.72331e-08 -2.86519e-08 -9.55282e-11 -2.9074e-08 -9.53505e-11
          -2.66774e-08 -9.54672e-11 -9.55483e-11 -3.00572e-08 -9.54139e-11 -9.55493e-11 -9.51481e-11 -2.84163e-08 -9.51534e-11 -9.55459e-11 -9.54726e-11 -9.55501e-11
          -9.55501e-11 -9.55501e-11 -9.55501e-11 -9.55504e-11 -9.55504e-11 -9.55504e-11 -9.55504e-11
        </DataArray>
        <DataArray type="Float32" Name="dV_dC1" NumberOfComponents="1" format="ascii">
          0.00100022 0.00100022 0.00100022 0.00100022 0.00100022 0.00100022 0.00100022 0.00100023 0.00100023 0.00100024 0.00100022 0.00100022
          0.00100022 0.00100022 0.00100022 0.00100022 0.00100023 0.00100023 0.00100024 0.00100024 0.00100022 0.00100022 0.00100022 0.00100022
          0.00100023 0.00100023 0.00100023 0.00100023 0.00100024 0.00100024 0.00100022 0.00100022 0.00100022 0.00100023 0.00100024 0.00100024
          0.00100024 0.00100022 0.00100022 0.00100023 0.00100024 0.00100024 0.00100022 0.00100023 0.00100023 0.00100024 0.00100024 0.00100022
          0.00100023 0.00100023 0.00100024 0.00100025 0.00100022 0.00100023 0.00100023 0.00100023 0.00100024 0.00100024 0.00100025 0.00100023
          0.00100023 0.00100023 0.00100024 0.00100024 0.00100024 0.00100024 0.00100025 0.00100025 0.00100025 0.00100023 0.00100023 0.00100024
          0.00100024 0.00100024 0.00100025 0.00100025 0.00100025 0.00100025 0.00100025 0.00100023 0.00100023 0.00100023 0.00100023 0.00100023
          0.00100023 0.00100023 0.00100023 0.00097625 0.000976267 0.000976285 0.000976266 0.000976246 0.000976234 0.000976249 0.000976263 0.000976244
          0.000976261 0.000976246 0.00097623 0.000976256 0.000976247 0.000976242 0.000976246 0.00100023 0.00100023 0.00100023 0.00100023 0.00100023
          0.00100023 0.00100023 0.00100023 0.000976227 0.000976223 0.000976232 0.000976239 0.000976223 0.000976235 0.000976228 0.000976218 0.00097624
          0.000976234 0.000976231 0.000976237 0.000976238 0.000976237 0.00097623 0.000976232 0.00100023 0.00100023 0.00100023 0.00100023 0.00100023
          0.00100023 0.00100023 0.00100023 0.000976215 0.00100024 0.00100024 0.000976224 0.000976233 0.000976223 0.00100024 0.000976223 0.00100024
          0.00097622 0.00100024 0.00100024 0.000976225 0.00100024 0.00100024 0.00100024 0.000976223 0.00100024 0.00100024 0.00100024 0.00100024
          0.00100024 0.00100024 0.00100024 0.00100024 0.00100024 0.00100024 0.00100024
        </DataArray>
        <DataArray type="Float32" Name="dV_dC2" NumberOfComponents="1" format="ascii">
          0.000622207 0.000622205 0.000622206 0.000622205 0.000622206 0.000622209 0.000622211 0.000622214 0.000622216 0.000622222 0.00062221 0.000622209
          0.000622209 0.000622209 0.00062221 0.000622212 0.000622212 0.000622215 0.000622218 0.000622222 0.00062221 0.000622211 0.000622212 0.00062221
          0.000622211 0.000622213 0.000622216 0.000622218 0.000622221 0.000622223 0.000622211 0.00062221 0.000622211 0.000622212 0.000622218 0.00062222
          0.000622224 0.000622211 0.000622212 0.000622211 0.000622221 0.000622223 0.000622211 0.000622212 0.000622211 0.000622222 0.000622223 0.000622211
          0.000622213 0.000622214 0.000622222 0.000622227 0.000622213 0.000622214 0.000622216 0.000622218 0.000622223 0.000622222 0.000622225 0.000622211
          0.000622215 0.000622218 0.000622219 0.00062222 0.000622222 0.000622223 0.000622223 0.000622226 0.000622224 0.000622213 0.000622216 0.000622221
          0.000622221 0.000622222 0.000622225 0.000622227 0.000622227 0.000622226 0.000622226 0.000622212 0.000622213 0.000622214 0.000622213 0.000622213
          0.000622213 0.000622214 0.000622213 0.331703 0.334168 0.336264 0.334026 0.337443 0.340919 0.342829 0.339429 0.337071
          0.33924 0.342431 0.340222 0.341989 0.345144 0.347942 0.34499 0.000622214 0.000622215 0.000622215 0.000622214 0.000622214
          0.000622213 0.000622215 0.000622215 0.344709 0.348851 0.350536 0.34652 0.34358 0.345894 0.34969 0.3472 0.348647
          0.3525 0.354974 0.351252 0.3484 0.351228 0.355102 0.352252 0.000622215 0.000622216 0.000622217 0.000622216 0.000622215
          0.000622216 0.000622216 0.000622215 0.353434 0.000622219 0.000622219 0.354966 0.354362 0.357719 0.00062222 0.35797 0.000622218
          0.353961 0.000622219 0.000622219 0.35678 0.00062222 0.00062222 0.000622219 0.356628 0.000622219 0.000622221 0.00062222 0.000622221
          0.000622221 0.000622221 0.000622221 0.000622221 0.000622221 0.000622221 0.000622221
        </DataArray>
        <DataArray type="Float32" Name="updEstimate comp 1" NumberOfComponents="1" format="ascii">
          9.79338e-08 2.82237e-07 4.33116e-07 5.82637e-07 7.0762e-07 7.96484e-07 8.35733e-07 8.09106e-07 7.26755e-07 3.33931e-07 7.51792e-08 2.60972e-07
          4.38675e-07 6.00744e-07 7.34617e-07 8.37582e-07 8.9661e-07 8.71189e-07 7.11299e-07 2.93449e-07 9.19123e-08 2.932e-07 4.92643e-07 6.63396e-07
          7.90225e-07 9.41193e-07 1.07114e-06 1.09818e-06 8.44802e-07 3.30977e-07 1.17522e-07 3.56755e-07 5.86386e-07 6.26752e-07 -0.000168017 1.14369e-06
          4.28395e-07 1.50733e-07 4.45296e-07 7.13112e-07 1.01131e-06 5.76978e-07 1.92159e-07 5.59813e-07 8.89296e-07 2.01383e-06 7.67147e-07 2.41692e-07
          7.0001e-07 1.12111e-06 0.0128547 9.05504e-07 2.96279e-07 8.52585e-07 1.38382e-06 1.97996e-06 2.87665e-05 2.64879e-06 8.54578e-07 3.51591e-07
          9.99985e-07 1.59677e-06 2.3239e-06 3.29012e-06 4.27164e-06 -0.00549108 3.6603e-06 2.26315e-06 7.4231e-07 4.27628e-07 1.12947e-06 1.70383e-06
          2.3965e-06 3.16623e-06 3.77361e-06 3.84317e-06 3.17972e-06 2.04626e-06 6.90316e-07 2.02789e-07 -6.64651e-08 7.89931e-05 0.00020284 8.49664e-07
          -9.58172e-05 -0.000125154 9.5335e-07 0.00793867 0.00349938 -0.00754317 0.00473352 0.00203416 0.0012564 -0.00878315 -0.00918585 0.00407135
          -0.00712322 -0.00571786 0.00343479 -0.0120712 -0.0124806 -0.0126309 -0.0111965 5.21077e-07 7.04178e-07 1.31651e-05 2.25008e-05 1.04897e-06
          -0.000238879 -0.000248969 1.21424e-06 0.00109772 -0.000606346 -0.00858706 -0.00822679 0.00372917 -0.00473632 -0.00521305 -0.00377254 -0.0122451
          -0.0125287 -0.0220083 -0.0133293 -0.0100607 -0.012379 -0.0208578 -0.00907219 9.42701e-07 1.15786e-06 -0.000180982 1.80351e-05 1.36533e-06
          -0.00025671 -0.000346164 1.53975e-06 -0.0186704 -0.000863476 -0.015527 -0.0241443 -0.00691253 -0.0958407 -0.0207449 -0.102783 -0.0073639
          -0.0282094 -0.0102084 2.70875e-06 -0.0486319 -0.0160297 0.0825181 -0.0312026 -0.0546647 -0.0393443 -0.0450846 -0.0114589 0.043921
          -0.277251 -0.0103502 0.25677 0.0771797 -0.196269 -0.0417563 0.157688
        </DataArray>
        <DataArray type="Float32" Name="updEstimate comp 2" NumberOfComponents="1" format="ascii">
          0 0 0 1.31586e-12 5.14317e-12 2.7095e-12 1.3592e-12 1.88124e-13 7.28075e-15 2.37786e-16 0 0
          0 2.22182e-10 9.28878e-10 4.04414e-10 2.34393e-10 7.66516e-11 2.01108e-12 3.98239e-14 0 0 0 1.28815e-08
          5.70674e-08 2.28144e-08 1.33171e-08 1.70486e-08 3.07639e-10 4.00178e-12 0 0 0 2.64479e-07 1.89087e-06 2.70756e-08
          2.47455e-10 0 0 0 9.83313e-07 5.24338e-09 0 0 0 4.45074e-07 6.52441e-10 0
          0 0 2.14035e-08 1.06069e-11 0 0 0 0 2.21489e-08 2.61986e-12 1.43275e-15 0
          0 0 0 0 0 0 0 0 0 0 0 0
          0 0 0 0 0 0 0 1.06307e-06 1.54667e-06 3.08688e-06 3.15571e-06 1.52213e-10
          -2.73753e-07 -2.77632e-06 1.3461e-09 -1.00842e-05 -9.07589e-06 4.87452e-06 -1.03531e-05 -3.0435e-06 -4.76546e-07 2.45277e-05 2.23066e-05 -7.24387e-06
          1.77399e-05 1.65093e-05 -5.92475e-06 3.31154e-05 3.66409e-05 3.84711e-05 3.29941e-05 7.61342e-07 5.79926e-07 5.3089e-06 5.73417e-06 -1.26295e-09
          -2.05275e-10 -1.52318e-09 -2.46016e-09 -3.12794e-07 4.74042e-06 2.52363e-05 2.2778e-05 -5.43982e-06 1.31323e-05 1.78183e-05 -8.78664e-07 3.5768e-05
          3.81243e-05 4.97714e-05 3.90896e-05 3.00994e-05 3.70717e-05 4.64475e-05 3.43775e-05 4.38507e-07 3.45317e-07 6.2458e-06 5.81577e-06 0
          0 0 0 0.000126046 5.16937e-05 0.00022451 3.71819e-05 6.89457e-05 2.58468e-05 0.00033819 2.38404e-06 0.000100233
          2.34466e-05 0.000146509 0 4.07355e-05 0.000228507 6.0772e-06 0.000423455 3.5509e-05 0.000439003 5.16467e-07 0.000202654 0.000207857
          -1.18712e-07 -3.62032e-08 4.92965e-07 0.000250919 -9.8004e-08 -3.71715e-08 5.60958e-08
        </DataArray>
      </CellData>
      <Points>
        <DataArray type="Float32" Name="Coordinates" NumberOfComponents="3" format="ascii">
          0 0 0 1 0 0 0 1 0 1 1 0
          2 0 0 2 1 0 3 0 0 3 1 0
          4 0 0 4 1 0 5 0 0 5 1 0
          6 0 0 6 1 0 7 0 0 7 1 0
          8 0 0 8 1 0 9 0 0 9 1 0