<?xml version="1.0"?>
<VTKFile type="UnstructuredGrid" version="0.1" byte_order="LittleEndian">
  <UnstructuredGrid>
    <Piece NumberOfCells="30" NumberOfPoints="62">
      <PointData Scalars="p" Vectors="velocity_Gas (m/s)">
        <DataArray type="Float32" Name="p" NumberOfComponents="1" format="ascii">
          100000 100000 100000 100000 100000 100000 100000 100000 100000 100000 100000 100000
          100000 100000 100000 100000 100000 100000 100000 100000 100000 100000 100000 100000
          100000 100000 100000 100000 100000 100000 100000 100000 100000 100000 100000 100000
          100000 100000 100000 100000 100000 100000 100000 100000 100000 100000 100000 100000
          100000 100000 100000 100000 100000 100000 100000 100000 100000 100000 100000 100000
          100000 100000
        </DataArray>
        <DataArray type="Float32" Name="rho" NumberOfComponents="1" format="ascii">
          1.16166 1.16103 1.16166 1.16103 1.15912 1.15912 1.15596 1.15596 1.15156 1.15156 1.14595 1.14595
          1.13916 1.13916 1.13123 1.13123 1.12222 1.12222 1.11219 1.11219 1.10121 1.10121 1.08939 1.08939
          1.07681 1.07681 1.0636 1.0636 1.04988 1.04988 1.0358 1.0358 1.02151 1.02151 1.00717 1.00717
          0.99294 0.99294 0.979001 0.979001 0.965524 0.965524 0.952683 0.952683 0.940648 0.940648 0.929583 0.929583
          0.91964 0.91964 0.910961 0.910961 0.903672 0.903672 0.897881 0.897881 0.893678 0.893678 0.891127 0.891127
          0.890271 0.890271
        </DataArray>
        <DataArray type="Float32" Name="mu" NumberOfComponents="1" format="ascii">
          1e-06 1e-06 1e-06 1e-06 1e-06 1e-06 1e-06 1e-06 1e-06 1e-06 1e-06 1e-06
          1e-06 1e-06 1e-06 1e-06 1e-06 1e-06 1e-06 1e-06 1e-06 1e-06 1e-06 1e-06
          1e-06 1e-06 1e-06 1e-06 1e-06 1e-06 1e-06 1e-06 1e-06 1e-06 1e-06 1e-06
          1e-06 1e-06 1e-06 1e-06 1e-06 1e-06 1e-06 1e-06 1e-06 1e-06 1e-06 1e-06
          1e-06 1e-06 1e-06 1e-06 1e-06 1e-06 1e-06 1e-06 1e-06 1e-06 1e-06 1e-06
          1e-06 1e-06
        </DataArray>
        <DataArray type="Float32" Name="x^MaxwellStefan_0_Gas" NumberOfComponents="1" format="ascii">
          0.215669 0.21591 0.215669 0.21591 0.216631 0.216631 0.217822 0.217822 0.219469 0.219469 0.221555 0.221555
          0.224053 0.224053 0.226937 0.226937 0.230172 0.230172 0.233721 0.233721 0.237546 0.237546 0.241601 0.241601
          0.245841 0.245841 0.250219 0.250219 0.254687 0.254687 0.259193 0.259193 0.263689 0.263689 0.268126 0.268126
          0.272454 0.272454 0.276629 0.276629 0.280604 0.280604 0.284339 0.284339 0.287793 0.287793 0.29093 0.29093
          0.293718 0.293718 0.296128 0.296128 0.298135 0.298135 0.299718 0.299718 0.300861 0.300861 0.301551 0.301551
          0.301783 0.301783
        </DataArray>
        <DataArray type="Float32" Name="x^MaxwellStefan_1_Gas" NumberOfComponents="1" format="ascii">
          0.414231 0.414568 0.414231 0.414568 0.415577 0.415577 0.417265 0.417265 0.419641 0.419641 0.422717 0.422717
          0.426504 0.426504 0.431013 0.431013 0.43625 0.43625 0.442214 0.442214 0.448893 0.448893 0.456265 0.456265
          0.464293 0.464293 0.472925 0.472925 0.482092 0.482092 0.491711 0.491711 0.50168 0.50168 0.511884 0.511884
          0.522195 0.522195 0.532471 0.532471 0.542565 0.542565 0.552324 0.552324 0.561591 0.561591 0.570213 0.570213
          0.578041 0.578041 0.584937 0.584937 0.590772 0.590772 0.595438 0.595438 0.598841 0.598841 0.600914 0.600914
          0.601611 0.601611
        </DataArray>
        <DataArray type="Float32" Name="x^MaxwellStefan_2_Gas" NumberOfComponents="1" format="ascii">
          0.3701 0.369522 0.3701 0.369522 0.367792 0.367792 0.364913 0.364913 0.360889 0.360889 0.355729 0.355729
          0.349443 0.349443 0.34205 0.34205 0.333578 0.333578 0.324065 0.324065 0.313561 0.313561 0.302134 0.302134
          0.289866 0.289866 0.276856 0.276856 0.263221 0.263221 0.249096 0.249096 0.234631 0.234631 0.21999 0.21999
          0.205351 0.205351 0.1909 0.1909 0.17683 0.17683 0.163337 0.163337 0.150616 0.150616 0.138857 0.138857
          0.128241 0.128241 0.118936 0.118936 0.111093 0.111093 0.104845 0.104845 0.100298 0.100298 0.0975345 0.0975345
          0.0966065 0.0966065
        </DataArray>
        <DataArray type="Float32" Name="X^MaxwellStefan_0_Gas" NumberOfComponents="1" format="ascii">
          0.015234 0.0152594 0.015234 0.0152594 0.0153354 0.0153354 0.0154619 0.0154619 0.0156384 0.0156384 0.0158643 0.0158643
          0.0161388 0.0161388 0.0164611 0.0164611 0.0168299 0.0168299 0.0172435 0.0172435 0.0177003 0.0177003 0.0181979 0.0181979
          0.0187336 0.0187336 0.0193041 0.0193041 0.0199054 0.0199054 0.020533 0.020533 0.0211814 0.0211814 0.0218445 0.0218445
          0.0225152 0.0225152 0.0231857 0.0231857 0.0238472 0.0238472 0.0244902 0.0244902 0.0251049 0.0251049 0.0256806 0.0256806
          0.026207 0.026207 0.0266738 0.0266738 0.0270712 0.0270712 0.0273904 0.0273904 0.0276242 0.0276242 0.0277669 0.0277669
          0.0278149 0.0278149
        </DataArray>
        <DataArray type="Float32" Name="X^MaxwellStefan_1_Gas" NumberOfComponents="1" format="ascii">
          0.409635 0.410192 0.409635 0.410192 0.411866 0.411866 0.41467 0.41467 0.418624 0.418624 0.423757 0.423757
          0.430103 0.430103 0.437697 0.437697 0.446573 0.446573 0.45676 0.45676 0.46828 0.46828 0.481137 0.481137
          0.495321 0.495321 0.510797 0.510797 0.527501 0.527501 0.545339 0.545339 0.564179 0.564179 0.583853 0.583853
          0.604147 0.604147 0.624808 0.624808 0.645539 0.645539 0.666007 0.666007 0.685845 0.685845 0.704665 0.704665
          0.722062 0.722062 0.737637 0.737637 0.751005 0.751005 0.761817 0.761817 0.769776 0.769776 0.774651 0.774651
          0.776295 0.776295
        </DataArray>
        <DataArray type="Float32" Name="X^MaxwellStefan_2_Gas" NumberOfComponents="1" format="ascii">
          0.575131 0.574549 0.575131 0.574549 0.572798 0.572798 0.569868 0.569868 0.565737 0.565737 0.560378 0.560378
          0.553758 0.553758 0.545842 0.545842 0.536597 0.536597 0.525996 0.525996 0.51402 0.51402 0.500665 0.500665
          0.485945 0.485945 0.469899 0.469899 0.452594 0.452594 0.434128 0.434128 0.414639 0.414639 0.394302 0.394302
          0.373338 0.373338 0.352007 0.352007 0.330614 0.330614 0.309503 0.309503 0.28905 0.28905 0.269655 0.269655
          0.251731 0.251731 0.23569 0.23569 0.221924 0.221924 0.210793 0.210793 0.2026 0.2026 0.197582 0.197582
          0.19589 0.19589
        </DataArray>
        <DataArray type="Float32" Name="velocity_Gas (m/s)" NumberOfComponents="3" format="ascii">
          2.31625e-07 1.16415e-14 0 4.62369e-07 5.82077e-15 0 2.31625e-07 1.16415e-14 0 4.62369e-07 5.82077e-15 0
          9.21529e-07 -1.16415e-14 0 9.21529e-07 -1.16415e-14 0 1.37462e-06 5.82077e-15 0 1.37462e-06 5.82077e-15 0
          1.81878e-06 3.49246e-14 0 1.81878e-06 3.49246e-14 0 2.25104e-06 -1.16415e-14 0 2.25104e-06 -1.16415e-14 0
          2.66827e-06 1.84638e-21 0 2.66827e-06 -1.84638e-21 0 3.06721e-06 2.32831e-14 0 3.06721e-06 2.32831e-14 0
          3.44439e-06 5.23869e-14 0 3.44439e-06 5.23869e-14 0 3.7962e-06 0 0 3.7962e-06 0 0
          4.11881e-06 -5.82077e-15 0 4.11881e-06 -5.82077e-15 0 4.40827e-06 5.82077e-15 0 4.40827e-06 5.82077e-15 0
          4.66053e-06 -1.16415e-14 0 4.66053e-06 -1.16415e-14 0 4.87143e-06 -6.40284e-14 0 4.87143e-06 -6.40284e-14 0
          5.03687e-06 5.82076e-15 0 5.03687e-06 5.82077e-15 0 5.1528e-06 5.82076e-15 0 5.1528e-06 5.82077e-15 0
          5.21538e-06 -5.82077e-15 0 5.21538e-06 -5.82077e-15 0 5.22108e-06 5.82077e-15 0 5.22108e-06 5.82077e-15 0
          5.16683e-06 -1.74623e-14 0 5.16683e-06 -1.74623e-14 0 5.05015e-06 5.82077e-15 0 5.05015e-06 5.82077e-15 0
          4.86934e-06 5.23869e-14 0 4.86934e-06 5.23869e-14 0 4.62364e-06 4.65661e-14 0 4.62364e-06 4.65661e-14 0
          4.31339e-06 4.65661e-14 0 4.31339e-06 4.65661e-14 0 3.9402e-06 4.65661e-14 0 3.9402e-06 4.65661e-14 0
          3.50706e-06 -5.82077e-15 0 3.50706e-06 -5.82077e-15 0 3.01841e-06 0 0 3.01841e-06 0 0
          2.48024e-06 5.23869e-14 0 2.48024e-06 5.23869e-14 0 1.89997e-06 -5.82076e-15 0 1.89997e-06 -5.82077e-15 0
          1.28638e-06 -1.16415e-14 0 1.28638e-06 -1.16415e-14 0 6.49401e-07 -1.16415e-14 0 6.49401e-07 -1.16415e-14 0
          3.2637e-07 0 0 3.2637e-07 0 0
        </DataArray>
      </PointData>
      <CellData Scalars="process rank">
        <DataArray type="Float32" Name="process rank" NumberOfComponents="1" format="ascii">
          0 0 0 0 0 0 0 0 0 0 0 0
          0 0 0 0 0 0 0 0 0 0 0 0
          0 0 0 0 0 0
        </DataArray>
      </CellData>
      <Points>
        <DataArray type="Float32" Name="Coordinates" NumberOfComponents="3" format="ascii">
          0 0 0 0.0333333 0 0 0 0.03 0 0.0333333 0.03 0
          0.0666667 0 0 0.0666667 0.03 0 0.1 0 0 0.1 0.03 0
          0.133333 0 0 0.133333 0.03 0 0.166667 0 0 0.166667 0.03 0
          0.2 0 0 0.2 0.03 0 0.233333 0 0 0.233333 0.03 0
          0.266667 0 0 0.266667 0.03 0 0.3 0 0 0.3 0.03 0
          0.333333 0 0 0.333333 0.03 0 0.366667 0 0 0.366667 0.03 0
          0.4 0 0 0.4 0.03 0 0.433333 0 0 0.433333 0.03 0
          0.466667 0 0 0.466667 0.03 0 0.5 0 0 0.5 0.03 0
          0.533333 0 0 0.533333 0.03 0 0.566667 0 0 0.566667 0.03 0
          0.6 0 0 0.6 0.03 0 0.633333 0 0 0.633333 0.03 0
          0.666667 0 0 0.666667 0.03 0 0.7 0 0 0.7 0.03 0
          0.733333 0 0 0.733333 0.03 0 0.766667 0 0 0.766667 0.03 0
          0.8 0 0 0.8 0.03 0 0.833333 0 0 0.833333 0.03 0
          0.866667 0 0 0.866667 0.03 0 0.9 0 0 0.9 0.03 0
          0.933333 0 0 0.933333 0.03 0 0.966667 0 0 0.966667 0.03 0
          1 0 0 1 0.03 0
        </DataArray>
      </Points>
      <Cells>
        <DataArray type="Int32" Name="connectivity" NumberOfComponents="1" format="ascii">
          0 1 3 2 1 4 5 3 4 6 7 5
          6 8 9 7 8 10 11 9 10 12 13 11
          12 14 15 13 14 16 17 15 16 18 19 17
          18 20 21 19 20 22 23 21 22 24 25 23
          24 26 27 25 26 28 29 27 28 30 31 29
          30 32 33 31 32 34 35 33 34 36 37 35
          36 38 39 37 38 40 41 39 40 42 43 41
          42 44 45 43 44 46 47 45 46 48 49 47
          48 50 51 49 50 52 53 51 52 54 55 53
          54 56 57 55 56 58 59 57 58 60 61 59
        </DataArray>
        <DataArray type="Int32" Name="offsets" NumberOfComponents="1" format="ascii">
          4 8 12 16 20 24 28 32 36 40 44 48
          52 56 60 64 68 72 76 80 84 88 92 96
          100 104 108 112 116 120
        </DataArray>
        <DataArray type="UInt8" Name="types" NumberOfComponents="1" format="ascii">
          9 9 9 9 9 9 9 9 9 9 9 9
          9 9 9 9 9 9 9 9 9 9 9 9
          9 9 9 9 9 9
        </DataArray>
      </Cells>
    </Piece>
  </UnstructuredGrid>
</VTKFile>
