<?xml version="1.0"?>
<VTKFile type="UnstructuredGrid" version="0.1" byte_order="LittleEndian">
  <UnstructuredGrid>
    <Piece NumberOfCells="64" NumberOfPoints="81">
      <CellData Scalars="S_liq">
        <DataArray type="Float32" Name="S_liq" NumberOfComponents="1" format="ascii">
          0.755201 0.755201 0.755201 0.755201 0.755201 0.755201 0.755201 0.755201 0.176348 0.176347 0.176346 0.176345
          0.176344 0.176344 0.176343 0.176343 0.0606481 0.060649 0.0606496 0.0606498 0.0606499 0.0606499 0.0606499 0.0606499
          0.0329178 0.0329273 0.0329358 0.0329424 0.0329475 0.0329515 0.0329542 0.0329551 0.0220751 0.0221078 0.0221344 0.0221548
          0.0221708 0.0221834 0.0221925 0.0221951 0.01579 0.0158647 0.0159188 0.0159598 0.0159922 0.0160184 0.0160376 0.0160422
          0.00943635 0.00969814 0.00986465 0.00998885 0.0100867 0.0101656 0.0102248 0.0102371 0 0 0 0
          0 0 0 0
        </DataArray>
        <DataArray type="Float32" Name="p_liq" NumberOfComponents="1" format="ascii">
          98640.8 98640.8 98640.8 98640.8 98640.8 98640.8 98640.8 98640.8 97932.3 97932.3 97932.3 97932.3
          97932.3 97932.3 97932.3 97932.3 97459.5 97459.5 97459.5 97459.5 97459.5 97459.5 97459.5 97459.5
          97135.7 97135.9 97136 97136.2 97136.3 97136.3 97136.4 97136.4 96883.4 96884.4 96885.3 96885.9
          96886.4 96886.8 96887.1 96887.2 96629.3 96633.3 96636.1 96638.3 96640 96641.3 96642.3 96642.5
          96256.1 96271.6 96281.4 96288.8 96294.6 96299.2 96302.7 96303.5 95697.5 95697.5 95697.5 95697.5
          95697.5 95697.5 95697.5 95697.5
        </DataArray>
        <DataArray type="Float32" Name="rho_liq" NumberOfComponents="1" format="ascii">
          999.409 999.41 999.412 999.414 999.416 999.418 999.42 999.421 999.382 999.384 999.388 999.393
          999.398 999.402 999.405 999.406 999.341 999.347 999.355 999.365 999.374 999.382 999.387 999.39
          999.298 999.309 999.324 999.34 999.354 999.366 999.374 999.377 999.259 999.277 999.3 999.321
          999.34 999.354 999.364 999.369 999.224 999.253 999.282 999.308 999.33 999.347 999.358 999.363
          999.188 999.235 999.269 999.299 999.323 999.341 999.354 999.359 258.321 309.085 344.699 372.85
          396.586 417.002 433.458 436.554
        </DataArray>
        <DataArray type="Float32" Name="mob_liq" NumberOfComponents="1" format="ascii">
          323.58 323.511 323.387 323.228 323.062 322.913 322.801 322.741 4.31424 4.31193 4.30793 4.30307
          4.2982 4.29399 4.29092 4.28931 0.176236 0.17602 0.175665 0.175264 0.174883 0.174567 0.174345 0.174232
          0.0250528 0.0250129 0.0249432 0.024866 0.0247951 0.024738 0.024699 0.0246791 0.0062567 0.00626351 0.00625723 0.00624613
          0.00623508 0.0062265 0.00622121 0.00621732 0.00171212 0.00173522 0.00174757 0.00175527 0.00176088 0.00176559 0.00176952 0.00176968
          0.000138007 0.000161201 0.000176484 0.000188249 0.000197779 0.000205685 0.000211797 0.000212998 0 0 0 0
          0 0 0 0
        </DataArray>
        <DataArray type="Float32" Name="S_gas" NumberOfComponents="1" format="ascii">
          0.244799 0.244799 0.244799 0.244799 0.244799 0.244799 0.244799 0.244799 0.823652 0.823653 0.823654 0.823655
          0.823655 0.823656 0.823657 0.823657 0.939352 0.939351 0.93935 0.93935 0.93935 0.93935 0.93935 0.93935
          0.967082 0.967073 0.967064 0.967058 0.967052 0.967049 0.967046 0.967045 0.977925 0.977892 0.977866 0.977845
          0.977829 0.977817 0.977808 0.977805 0.98421 0.984135 0.984081 0.98404 0.984008 0.983982 0.983962 0.983958
          0.990564 0.990302 0.990135 0.990011 0.989913 0.989834 0.989775 0.989763 1 1 1 1
          1 1 1 1
        </DataArray>
        <DataArray type="Float32" Name="p_gas" NumberOfComponents="1" format="ascii">
          100002 100002 100002 100002 100002 100002 100002 100002 100002 100002 100002 100002
          100002 100002 100002 100002 100001 100001 100001 100001 100001 100001 100001 100001
          100001 100001 100001 100001 100001 100001 100001 100001 100000 100000 100000 100000
          100000 100000 100000 100000 100000 100000 100000 100000 100000 100000 100000 100000
          100000 100000 100000 100000 100000 100000 100000 100000 100000 100000 100000 100000
          100000 100000 100000 100000
        </DataArray>
        <DataArray type="Float32" Name="rho_gas" NumberOfComponents="1" format="ascii">
          1.21185 1.21189 1.21195 1.21204 1.21212 1.2122 1.21226 1.21229 1.21078 1.21087 1.21102 1.2112
          1.21139 1.21155 1.21167 1.21173 1.20919 1.2094 1.20974 1.21012 1.21048 1.21078 1.21099 1.2111
          1.20751 1.20792 1.20852 1.20914 1.20969 1.21014 1.21045 1.2106 1.20598 1.20668 1.20756 1.2084
          1.20912 1.20969 1.21008 1.21026 1.2047 1.20573 1.20686 1.20788 1.20873 1.2094 1.20985 1.21003
          1.20365 1.20505 1.20638 1.20752 1.20846 1.2092 1.2097 1.20988 1.20844 1.20966 1.2108 1.21176
          1.21255 1.21316 1.21356 1.21369
        </DataArray>
        <DataArray type="Float32" Name="mob_gas" NumberOfComponents="1" format="ascii">
          2991.94 2992 2992.09 2992.22 2992.34 2992.46 2992.55 2992.59 40524.7 40526.5 40529.7 40533.5
          40537.4 40540.8 40543.2 40544.5 52443.1 52448.5 52457.3 52467.3 52476.8 52484.7 52490.2 52493.1
          55212.9 55223.7 55239.5 55256.1 55271.1 55283.2 55291.5 55295.6 55892.9 55910.8 55934 55956.4
          55975.9 55991.3 56001.7 56006.4 56136.7 56162.8 56192.7 56219.7 56242.6 56260.5 56272.5 56277.4
          56271 56304 56338.9 56369 56393.9 56413.4 56426.5 56431.3 55951.9 56027.9 56090.4 56141.3
          56183 56216.3 56240 56246.4
        </DataArray>
        <DataArray type="Float32" Name="pc" NumberOfComponents="1" format="ascii">
          1361.63 1361.63 1361.63 1361.63 1361.63 1361.63 1361.63 1361.63 2069.26 2069.26 2069.26 2069.26
          2069.26 2069.26 2069.27 2069.27 2541.51 2541.5 2541.5 2541.5 2541.49 2541.49 2541.49 2541.5
          2864.88 2864.72 2864.57 2864.45 2864.36 2864.29 2864.24 2864.23 3116.94 3115.92 3115.09 3114.46
          3113.96 3113.57 3113.29 3113.21 3370.89 3366.93 3364.08 3361.94 3360.24 3358.88 3357.88 3357.65
          3744.02 3728.53 3718.67 3711.32 3705.53 3700.86 3697.36 3696.63 4302.49 4302.49 4302.49 4302.49
          4302.49 4302.49 4302.49 4302.49
        </DataArray>
        <DataArray type="Float32" Name="porosity" NumberOfComponents="1" format="ascii">
          0.41 0.41 0.41 0.41 0.41 0.41 0.41 0.41 0.41 0.41 0.41 0.41
          0.41 0.41 0.41 0.41 0.41 0.41 0.41 0.41 0.41 0.41 0.41 0.41
          0.41 0.41 0.41 0.41 0.41 0.41 0.41 0.41 0.41 0.41 0.41 0.41
          0.41 0.41 0.41 0.41 0.41 0.41 0.41 0.41 0.41 0.41 0.41 0.41
          0.41 0.41 0.41 0.41 0.41 0.41 0.41 0.41 0.41 0.41 0.41 0.41
          0.41 0.41 0.41 0.41
        </DataArray>
        <DataArray type="Float32" Name="x^H2O_liq" NumberOfComponents="1" format="ascii">
          0.999983 0.999983 0.999983 0.999983 0.999983 0.999983 0.999983 0.999983 0.999983 0.999983 0.999983 0.999983
          0.999983 0.999983 0.999983 0.999983 0.999983 0.999983 0.999983 0.999983 0.999983 0.999983 0.999983 0.999983
          0.999983 0.999983 0.999983 0.999983 0.999983 0.999983 0.999983 0.999983 0.999983 0.999983 0.999983 0.999983
          0.999983 0.999983 0.999983 0.999983 0.999983 0.999983 0.999983 0.999983 0.999983 0.999983 0.999983 0.999983
          0.999984 0.999983 0.999983 0.999983 0.999983 0.999983 0.999983 0.999983 0.258515 0.309303 0.344931 0.373091
          0.396834 0.417255 0.433716 0.436812
        </DataArray>
        <DataArray type="Float32" Name="X^H2O_liq" NumberOfComponents="1" format="ascii">
          0.999973 0.999973 0.999972 0.999972 0.999972 0.999972 0.999972 0.999972 0.999973 0.999973 0.999973 0.999973
          0.999973 0.999973 0.999973 0.999973 0.999973 0.999973 0.999973 0.999973 0.999973 0.999973 0.999973 0.999973
          0.999973 0.999973 0.999973 0.999973 0.999973 0.999973 0.999973 0.999973 0.999973 0.999973 0.999973 0.999973
          0.999973 0.999973 0.999973 0.999973 0.999973 0.999973 0.999973 0.999973 0.999973 0.999973 0.999973 0.999973
          0.999974 0.999973 0.999973 0.999973 0.999973 0.999973 0.999973 0.999973 0.258505 0.309293 0.344921 0.373081
          0.396824 0.417244 0.433706 0.436802
        </DataArray>
        <DataArray type="Float32" Name="x^Air_liq" NumberOfComponents="1" format="ascii">
          1.71087e-05 1.71116e-05 1.71169e-05 1.71236e-05 1.71306e-05 1.7137e-05 1.71418e-05 1.71443e-05 1.7022e-05 1.70291e-05 1.70415e-05 1.70565e-05
          1.70716e-05 1.70848e-05 1.70944e-05 1.70994e-05 1.68949e-05 1.69117e-05 1.69387e-05 1.69693e-05 1.69984e-05 1.70227e-05 1.70399e-05 1.70486e-05
          1.67617e-05 1.67945e-05 1.68418e-05 1.68911e-05 1.69355e-05 1.69715e-05 1.69963e-05 1.70083e-05 1.66425e-05 1.6697e-05 1.6766e-05 1.68323e-05
          1.68899e-05 1.69357e-05 1.69669e-05 1.69808e-05 1.65435e-05 1.66234e-05 1.67116e-05 1.67913e-05 1.68588e-05 1.69121e-05 1.69483e-05 1.69627e-05
          1.64642e-05 1.65704e-05 1.66738e-05 1.67632e-05 1.68376e-05 1.68965e-05 1.69367e-05 1.69507e-05 1.66056e-05 1.67192e-05 1.68228e-05 1.69101e-05
          1.69821e-05 1.70389e-05 1.70774e-05 1.70894e-05
        </DataArray>
        <DataArray type="Float32" Name="X^Air_liq" NumberOfComponents="1" format="ascii">
          2.75025e-05 2.75071e-05 2.75156e-05 2.75264e-05 2.75378e-05 2.7548e-05 2.75557e-05 2.75598e-05 2.73631e-05 2.73745e-05 2.73944e-05 2.74186e-05
          2.74429e-05 2.74641e-05 2.74795e-05 2.74876e-05 2.71589e-05 2.71858e-05 2.72293e-05 2.72784e-05 2.73252e-05 2.73643e-05 2.73919e-05 2.74059e-05
          2.69448e-05 2.69974e-05 2.70735e-05 2.71526e-05 2.72242e-05 2.7282e-05 2.73218e-05 2.73412e-05 2.67531e-05 2.68408e-05 2.69516e-05 2.70582e-05
          2.71509e-05 2.72245e-05 2.72745e-05 2.7297e-05 2.65939e-05 2.67225e-05 2.68641e-05 2.69923e-05 2.71007e-05 2.71865e-05 2.72446e-05 2.72679e-05
          2.64665e-05 2.66372e-05 2.68033e-05 2.69471e-05 2.70668e-05 2.71614e-05 2.7226e-05 2.72485e-05 2.6693e-05 2.68759e-05 2.70424e-05 2.71828e-05
          2.72986e-05 2.73899e-05 2.74518e-05 2.7471e-05
        </DataArray>
        <DataArray type="Float32" Name="rhoMolar_liq" NumberOfComponents="1" format="ascii">
          55475.4 55475.4 55475.5 55475.6 55475.8 55475.9 55476 55476 55473.9 55474 55474.2 55474.5
          55474.7 55475 55475.1 55475.2 55471.6 55471.9 55472.4 55472.9 55473.4 55473.9 55474.2 55474.3
          55469.2 55469.8 55470.7 55471.5 55472.3 55473 55473.4 55473.6 55467.1 55468.1 55469.3 55470.5
          55471.5 55472.3 55472.9 55473.1 55465.1 55466.7 55468.3 55469.8 55471 55471.9 55472.5 55472.8
          55463.1 55465.7 55467.6 55469.2 55470.6 55471.6 55472.3 55472.6 55461.4 55464.7 55467.1 55468.9
          55470.3 55471.4 55472.2 55472.4
        </DataArray>
        <DataArray type="Float32" Name="x^H2O_gas" NumberOfComponents="1" format="ascii">
          0.0147483 0.014741 0.0147279 0.0147113 0.0146938 0.014678 0.0146662 0.0146599 0.0149645 0.0149466 0.0149156 0.014878
          0.0148402 0.0148074 0.0147836 0.014771 0.0152855 0.0152429 0.0151743 0.0150969 0.0150235 0.0149625 0.0149195 0.0148976
          0.0156274 0.0155427 0.0154211 0.0152953 0.0151822 0.0150912 0.0150287 0.0149985 0.0159381 0.0157953 0.0156163 0.0154454
          0.0152981 0.0151816 0.0151029 0.0150676 0.0162128 0.0159881 0.0157574 0.0155509 0.0153776 0.0152416 0.0151499 0.0151132
          0.0164691 0.016128 0.0158561 0.0156235 0.0154317 0.0152812 0.0151792 0.0151437 0.0043123 0.00502758 0.00549416 0.00584861
          0.00613912 0.00638756 0.00659154 0.00662419
        </DataArray>
        <DataArray type="Float32" Name="X^H2O_gas" NumberOfComponents="1" format="ascii">
          0.00922589 0.00922134 0.0092131 0.00920263 0.00919161 0.0091817 0.00917427 0.0091703 0.00936191 0.00935068 0.00933118 0.00930753
          0.00928374 0.00926312 0.00924809 0.00924023 0.00956394 0.0095371 0.00949391 0.00944525 0.00939906 0.00936067 0.00933361 0.00931985
          0.00977909 0.00972581 0.00964928 0.00957008 0.00949891 0.00944166 0.00940235 0.0093833 0.00997471 0.00988484 0.00977214 0.00966455
          0.00957182 0.00949856 0.00944898 0.00942679 0.0101477 0.0100062 0.00986096 0.00973093 0.00962188 0.0095363 0.00947857 0.00945551
          0.0103091 0.0100943 0.00992307 0.00977667 0.00965593 0.00956124 0.00949704 0.00947469 0.00268694 0.00313347 0.00342487 0.00364631
          0.00382785 0.00398313 0.00411064 0.00413106
        </DataArray>
        <DataArray type="Float32" Name="x^Air_gas" NumberOfComponents="1" format="ascii">
          0.985252 0.985259 0.985272 0.985289 0.985306 0.985322 0.985334 0.98534 0.985036 0.985053 0.985084 0.985122
          0.98516 0.985193 0.985216 0.985229 0.984714 0.984757 0.984826 0.984903 0.984976 0.985038 0.985081 0.985102
          0.984373 0.984457 0.984579 0.984705 0.984818 0.984909 0.984971 0.985002 0.984062 0.984205 0.984384 0.984555
          0.984702 0.984818 0.984897 0.984932 0.983787 0.984012 0.984243 0.984449 0.984622 0.984758 0.98485 0.984887
          0.983531 0.983872 0.984144 0.984376 0.984568 0.984719 0.984821 0.984856 0.995688 0.994972 0.994506 0.994151
          0.993861 0.993612 0.993408 0.993376
        </DataArray>
        <DataArray type="Float32" Name="X^Air_gas" NumberOfComponents="1" format="ascii">
          0.990774 0.990779 0.990787 0.990797 0.990808 0.990818 0.990826 0.99083 0.990638 0.990649 0.990669 0.990692
          0.990716 0.990737 0.990752 0.99076 0.990436 0.990463 0.990506 0.990555 0.990601 0.990639 0.990666 0.99068
          0.990221 0.990274 0.990351 0.99043 0.990501 0.990558 0.990598 0.990617 0.990025 0.990115 0.990228 0.990335
          0.990428 0.990501 0.990551 0.990573 0.989852 0.989994 0.990139 0.990269 0.990378 0.990464 0.990521 0.990544
          0.989691 0.989906 0.990077 0.990223 0.990344 0.990439 0.990503 0.990525 0.997313 0.996867 0.996575 0.996354
          0.996172 0.996017 0.995889 0.995869
        </DataArray>
        <DataArray type="Float32" Name="rhoMolar_gas" NumberOfComponents="1" format="ascii">
          42.0806 42.0817 42.0837 42.0863 42.089 42.0915 42.0933 42.0943 42.0466 42.0494 42.0542 42.0601
          42.0659 42.071 42.0747 42.0767 41.9966 42.0032 42.0139 42.0259 42.0372 42.0467 42.0534 42.0568
          41.9436 41.9567 41.9755 41.995 42.0125 42.0266 42.0363 42.041 41.8956 41.9176 41.9452 41.9717
          41.9944 42.0125 42.0247 42.0302 41.8554 41.8878 41.9234 41.9553 41.9821 42.0031 42.0173 42.023
          41.8232 41.8662 41.9081 41.944 41.9737 41.9969 42.0127 42.0182 41.7959 41.8494 41.8964 41.9353
          41.9671 41.9922 42.0093 42.0145
        </DataArray>
        <DataArray type="Float32" Name="phase presence" NumberOfComponents="1" format="ascii">
          3 3 3 3 3 3 3 3 3 3 3 3
          3 3 3 3 3 3 3 3 3 3 3 3
          3 3 3 3 3 3 3 3 3 3 3 3
          3 3 3 3 3 3 3 3 3 3 3 3
          3 3 3 3 3 3 3 3 2 2 2 2
          2 2 2 2
        </DataArray>
        <DataArray type="Float32" Name="T" NumberOfComponents="1" format="ascii">
          285.825 285.818 285.804 285.786 285.768 285.751 285.739 285.732 286.054 286.035 286.002 285.962
          285.922 285.888 285.863 285.849 286.393 286.348 286.275 286.194 286.116 286.052 286.006 285.983
          286.754 286.664 286.536 286.403 286.284 286.187 286.121 286.089 287.082 286.931 286.742 286.561
          286.406 286.283 286.2 286.162 287.357 287.135 286.891 286.673 286.49 286.346 286.249 286.211
          287.579 287.282 286.995 286.75 286.547 286.388 286.28 286.243 287.761 287.393 287.071 286.805
          286.587 286.417 286.3 286.265
        </DataArray>
        <DataArray type="Float32" Name="process rank" NumberOfComponents="1" format="ascii">
          0 0 0 0 0 0 0 0 0 0 0 0
          0 0 0 0 0 0 0 0 0 0 0 0
          0 0 0 0 0 0 0 0 0 0 0 0
          0 0 0 0 0 0 0 0 0 0 0 0
          0 0 0 0 0 0 0 0 0 0 0 0
          0 0 0 0
        </DataArray>
      </CellData>
      <Points>
        <DataArray type="Float32" Name="Coordinates" NumberOfComponents="3" format="ascii">
          0 0 0 0.03125 0 0 0 0.0867169 0 0.03125 0.0867169 0
          0.0625 0 0 0.0625 0.0867169 0 0.09375 0 0 0.09375 0.0867169 0
          0.125 0 0 0.125 0.0867169 0 0.15625 0 0 0.15625 0.0867169 0
          0.1875 0 0 0.1875 0.0867169 0 0.21875 0 0 0.21875 0.0867169 0
          0.25 0 0 0.25 0.0867169 0 0 0.144528 0 0.03125 0.144528 0
          0.0625 0.144528 0 0.09375 0.144528 0 0.125 0.144528 0 0.15625 0.144528 0
          0.1875 0.144528 0 0.21875 0.144528 0 0.25 0.144528 0 0 0.183069 0
          0.03125 0.183069 0 0.0625 0.183069 0 0.09375 0.183069 0 0.125 0.183069 0
          0.15625 0.183069 0 0.1875 0.183069 0 0.21875 0.183069 0 0.25 0.183069 0
          0 0.208763 0 0.03125 0.208763 0 0.0625 0.208763 0 0.09375 0.208763 0
          0.125 0.208763 0 0.15625 0.208763 0 0.1875 0.208763 0 0.21875 0.208763 0
          0.25 0.208763 0 0 0.225892 0 0.03125 0.225892 0 0.0625 0.225892 0
          0.09375 0.225892 0 0.125 0.225892 0 0.15625 0.225892 0 0.1875 0.225892 0
          0.21875 0.225892 0 0.25 0.225892 0 0 0.237312 0 0.03125 0.237312 0
          0.0625 0.237312 0 0.09375 0.237312 0 0.125 0.237312 0 0.15625 0.237312 0
          0.1875 0.237312 0 0.21875 0.237312 0 0.25 0.237312 0 0 0.244925 0
          0.03125 0.244925 0 0.0625 0.244925 0 0.09375 0.244925 0 0.125 0.244925 0
          0.15625 0.244925 0 0.1875 0.244925 0 0.21875 0.244925 0 0.25 0.244925 0
          0 0.25 0 0.03125 0.25 0 0.0625 0.25 0 0.09375 0.25 0
          0.125 0.25 0 0.15625 0.25 0 0.1875 0.25 0 0.21875 0.25 0
          0.25 0.25 0
        </DataArray>
      </Points>
      <Cells>
        <DataArray type="Int32" Name="connectivity" NumberOfComponents="1" format="ascii">
          0 1 3 2 1 4 5 3 4 6 7 5
          6 8 9 7 8 10 11 9 10 12 13 11
          12 14 15 13 14 16 17 15 2 3 19 18
          3 5 20 19 5 7 21 20 7 9 22 21
          9 11 23 22 11 13 24 23 13 15 25 24
          15 17 26 25 18 19 28 27 19 20 29 28
          20 21 30 29 21 22 31 30 22 23 32 31
          23 24 33 32 24 25 34 33 25 26 35 34
          27 28 37 36 28 29 38 37 29 30 39 38
          30 31 40 39 31 32 41 40 32 33 42 41
          33 34 43 42 34 35 44 43 36 37 46 45
          37 38 47 46 38 39 48 47 39 40 49 48
          40 41 50 49 41 42 51 50 42 43 52 51
          43 44 53 52 45 46 55 54 46 47 56 55
          47 48 57 56 48 49 58 57 49 50 59 58
          50 51 60 59 51 52 61 60 52 53 62 61
          54 55 64 63 55 56 65 64 56 57 66 65
          57 58 67 66 58 59 68 67 59 60 69 68
          60 61 70 69 61 62 71 70 63 64 73 72
          64 65 74 73 65 66 75 74 66 67 76 75
          67 68 77 76 68 69 78 77 69 70 79 78
          70 71 80 79
        </DataArray>
        <DataArray type="Int32" Name="offsets" NumberOfComponents="1" format="ascii">
          4 8 12 16 20 24 28 32 36 40 44 48
          52 56 60 64 68 72 76 80 84 88 92 96
          100 104 108 112 116 120 124 128 132 136 140 144
          148 152 156 160 164 168 172 176 180 184 188 192
          196 200 204 208 212 216 220 224 228 232 236 240
          244 248 252 256
        </DataArray>
        <DataArray type="UInt8" Name="types" NumberOfComponents="1" format="ascii">
          9 9 9 9 9 9 9 9 9 9 9 9
          9 9 9 9 9 9 9 9 9 9 9 9
          9 9 9 9 9 9 9 9 9 9 9 9
          9 9 9 9 9 9 9 9 9 9 9 9
          9 9 9 9 9 9 9 9 9 9 9 9
          9 9 9 9
        </DataArray>
      </Cells>
    </Piece>
  </UnstructuredGrid>
</VTKFile>
