<?xml version="1.0"?>
<VTKFile type="UnstructuredGrid" version="0.1" byte_order="LittleEndian">
  <UnstructuredGrid>
    <Piece NumberOfCells="512" NumberOfPoints="1026">
      <CellData Scalars="S_gas">
        <DataArray type="Float32" Name="S_gas" NumberOfComponents="1" format="ascii">
          4.35874e-07 4.35873e-07 4.35872e-07 4.3587e-07 4.35869e-07 4.35867e-07 4.35865e-07 4.35863e-07 4.35861e-07 4.35859e-07 4.35856e-07 4.35853e-07
          4.3585e-07 4.35847e-07 4.35844e-07 4.3584e-07 4.35836e-07 4.35831e-07 4.35826e-07 4.35821e-07 4.35816e-07 4.3581e-07 4.35803e-07 4.35796e-07
          4.35788e-07 4.3578e-07 4.35771e-07 4.35762e-07 4.35751e-07 4.3574e-07 4.35728e-07 4.35715e-07 4.357e-07 4.35685e-07 4.35668e-07 4.3565e-07
          4.35631e-07 4.3561e-07 4.35587e-07 4.35562e-07 4.35536e-07 4.35507e-07 4.35476e-07 4.35442e-07 4.35406e-07 4.35367e-07 4.35324e-07 4.35278e-07
          4.35229e-07 4.35175e-07 4.35117e-07 4.35055e-07 4.34987e-07 4.34914e-07 4.34835e-07 4.34749e-07 4.34657e-07 4.34557e-07 4.34449e-07 4.34333e-07
          4.34207e-07 4.34071e-07 4.33924e-07 4.33765e-07 4.33594e-07 4.33409e-07 4.33209e-07 4.32993e-07 4.3276e-07 4.32508e-07 4.32236e-07 4.31943e-07
          4.31626e-07 4.31284e-07 4.30916e-07 4.30518e-07 4.30089e-07 4.29627e-07 4.29129e-07 4.28591e-07 4.28012e-07 4.27389e-07 4.26717e-07 4.25994e-07
          4.25216e-07 4.24379e-07 4.23478e-07 4.22511e-07 4.21471e-07 4.20354e-07 4.19156e-07 4.1787e-07 4.16492e-07 4.15015e-07 4.13434e-07 4.11743e-07
          4.09935e-07 4.08004e-07 4.05943e-07 4.03746e-07 4.01407e-07 3.98919e-07 3.96275e-07 3.93469e-07 3.90495e-07 3.87349e-07 3.84023e-07 3.80515e-07
          3.7682e-07 3.72935e-07 3.68857e-07 3.64586e-07 3.6012e-07 3.55462e-07 3.50614e-07 3.45579e-07 3.40363e-07 3.34972e-07 3.29415e-07 3.23701e-07
          3.17843e-07 3.11853e-07 3.05745e-07 2.99536e-07 2.93241e-07 2.8688e-07 2.80469e-07 2.7403e-07 2.6758e-07 2.61141e-07 2.5473e-07 2.48369e-07
          2.42074e-07 2.35865e-07 2.29757e-07 2.23767e-07 2.17909e-07 2.12195e-07 2.06638e-07 2.01247e-07 1.96031e-07 1.90996e-07 1.86148e-07 1.8149e-07
          1.77024e-07 1.72753e-07 1.68675e-07 1.6479e-07 1.61095e-07 1.57587e-07 1.54261e-07 1.51115e-07 1.48141e-07 1.45335e-07 1.42691e-07 1.40203e-07
          1.37864e-07 1.35667e-07 1.33606e-07 1.31675e-07 1.29867e-07 1.28176e-07 1.26595e-07 1.25118e-07 1.2374e-07 1.22454e-07 1.21256e-07 1.20139e-07
          1.19099e-07 1.18132e-07 1.17231e-07 1.16394e-07 1.15616e-07 1.14893e-07 1.14221e-07 1.13598e-07 1.13019e-07 1.12481e-07 1.11983e-07 1.11521e-07
          1.11092e-07 1.10694e-07 1.10326e-07 1.09984e-07 1.09667e-07 1.09374e-07 1.09102e-07 1.0885e-07 1.08617e-07 1.08401e-07 1.08201e-07 1.08016e-07
          1.07845e-07 1.07686e-07 1.07539e-07 1.07403e-07 1.07277e-07 1.07161e-07 1.07053e-07 1.06953e-07 1.06861e-07 1.06775e-07 1.06696e-07 1.06623e-07
          1.06555e-07 1.06493e-07 1.06435e-07 1.06381e-07 1.06332e-07 1.06286e-07 1.06243e-07 1.06204e-07 1.06168e-07 1.06134e-07 1.06103e-07 1.06074e-07
          1.06048e-07 1.06023e-07 1.06e-07 1.05979e-07 1.0596e-07 1.05942e-07 1.05925e-07 1.0591e-07 1.05895e-07 1.05882e-07 1.0587e-07 1.05859e-07
          1.05848e-07 1.05839e-07 1.0583e-07 1.05822e-07 1.05814e-07 1.05807e-07 1.058e-07 1.05794e-07 1.05789e-07 1.05784e-07 1.05779e-07 1.05774e-07
          1.0577e-07 1.05767e-07 1.05763e-07 1.0576e-07 1.05757e-07 1.05754e-07 1.05751e-07 1.05749e-07 1.05747e-07 1.05745e-07 1.05743e-07 1.05741e-07
          1.0574e-07 1.05738e-07 1.05737e-07 1.05736e-07 1.05734e-07 1.05733e-07 1.05732e-07 1.05731e-07 1.05731e-07 1.0573e-07 1.05729e-07 1.05728e-07
          1.05728e-07 1.05727e-07 1.05727e-07 1.05726e-07 1.05726e-07 1.05725e-07 1.05725e-07 1.05724e-07 1.05724e-07 1.05724e-07 1.05724e-07 1.05723e-07
          1.05723e-07 1.05723e-07 1.05723e-07 1.05722e-07 1.05722e-07 1.05722e-07 1.05722e-07 1.05722e-07 1.05722e-07 1.05722e-07 1.05721e-07 1.05721e-07
          1.05721e-07 1.05721e-07 1.05721e-07 1.05721e-07 1.05721e-07 1.05721e-07 1.05721e-07 1.05721e-07 1.05721e-07 1.05721e-07 1.05721e-07 1.05721e-07
          1.0572e-07 1.0572e-07 1.0572e-07 1.0572e-07 1.0572e-07 1.0572e-07 1.0572e-07 1.0572e-07 1.0572e-07 1.0572e-07 1.0572e-07 1.0572e-07
          1.0572e-07 1.0572e-07 1.0572e-07 1.0572e-07 1.0572e-07 1.0572e-07 1.0572e-07 1.0572e-07 1.0572e-07 1.0572e-07 1.0572e-07 1.0572e-07
          1.0572e-07 1.0572e-07 1.0572e-07 1.0572e-07 1.0572e-07 1.0572e-07 1.0572e-07 1.0572e-07 1.0572e-07 1.0572e-07 1.0572e-07 1.0572e-07
          1.0572e-07 1.0572e-07 1.0572e-07 1.0572e-07 1.0572e-07 1.0572e-07 1.0572e-07 1.0572e-07 1.0572e-07 1.0572e-07 1.0572e-07 1.0572e-07
          1.0572e-07 1.0572e-07 1.0572e-07 1.0572e-07 1.0572e-07 1.0572e-07 1.0572e-07 1.0572e-07 1.0572e-07 1.0572e-07 1.0572e-07 1.0572e-07
          1.0572e-07 1.0572e-07 1.0572e-07 1.0572e-07 1.0572e-07 1.0572e-07 1.0572e-07 1.0572e-07 1.0572e-07 1.0572e-07 1.0572e-07 1.0572e-07
          1.0572e-07 1.0572e-07 1.0572e-07 1.0572e-07 1.0572e-07 1.0572e-07 1.0572e-07 1.0572e-07 1.0572e-07 1.0572e-07 1.0572e-07 1.0572e-07
          1.0572e-07 1.0572e-07 1.0572e-07 1.0572e-07 1.0572e-07 1.0572e-07 1.0572e-07 1.0572e-07 1.0572e-07 1.0572e-07 1.0572e-07 1.0572e-07
          1.0572e-07 1.0572e-07 1.0572e-07 1.0572e-07 1.0572e-07 1.0572e-07 1.0572e-07 1.0572e-07 1.0572e-07 1.0572e-07 1.0572e-07 1.0572e-07
          1.0572e-07 1.0572e-07 1.0572e-07 1.0572e-07 1.0572e-07 1.0572e-07 1.0572e-07 1.0572e-07 1.0572e-07 1.0572e-07 1.0572e-07 1.0572e-07
          1.0572e-07 1.0572e-07 1.0572e-07 1.0572e-07 1.0572e-07 1.0572e-07 1.0572e-07 1.0572e-07 1.0572e-07 1.0572e-07 1.0572e-07 1.0572e-07
          1.0572e-07 1.0572e-07 1.0572e-07 1.0572e-07 1.0572e-07 1.0572e-07 1.0572e-07 1.0572e-07 1.0572e-07 1.0572e-07 1.0572e-07 1.0572e-07
          1.0572e-07 1.0572e-07 1.0572e-07 1.0572e-07 1.0572e-07 1.0572e-07 1.0572e-07 1.0572e-07 1.0572e-07 1.0572e-07 1.0572e-07 1.0572e-07
          1.0572e-07 1.0572e-07 1.0572e-07 1.0572e-07 1.0572e-07 1.0572e-07 1.0572e-07 1.0572e-07 1.0572e-07 1.0572e-07 1.0572e-07 1.0572e-07
          1.0572e-07 1.0572e-07 1.0572e-07 1.0572e-07 1.0572e-07 1.0572e-07 1.0572e-07 1.0572e-07 1.0572e-07 1.0572e-07 1.0572e-07 1.0572e-07
          1.0572e-07 1.0572e-07 1.0572e-07 1.0572e-07 1.0572e-07 1.0572e-07 1.0572e-07 1.0572e-07 1.0572e-07 1.0572e-07 1.0572e-07 1.0572e-07
          1.0572e-07 1.0572e-07 1.0572e-07 1.0572e-07 1.0572e-07 1.0572e-07 1.0572e-07 1.0572e-07 1.0572e-07 1.0572e-07 1.0572e-07 1.0572e-07
          1.0572e-07 1.0572e-07 1.0572e-07 1.0572e-07 1.0572e-07 1.0572e-07 1.0572e-07 1.0572e-07
        </DataArray>
        <DataArray type="Float32" Name="S_liq" NumberOfComponents="1" format="ascii">
          1 1 1 1 1 1 1 1 1 1 1 1
          1 1 1 1 1 1 1 1 1 1 1 1
          1 1 1 1 1 1 1 1 1 1 1 1
          1 1 1 1 1 1 1 1 1 1 1 1
          1 1 1 1 1 1 1 1 1 1 1 1
          1 1 1 1 1 1 1 1 1 1 1 1
          1 1 1 1 1 1 1 1 1 1 1 1
          1 1 1 1 1 1 1 1 1 1 1 1
          1 1 1 1 1 1 1 1 1 1 1 1
          1 1 1 1 1 1 1 1 1 1 1 1
          1 1 1 1 1 1 1 1 1 1 1 1
          1 1 1 1 1 1 1 1 1 1 1 1
          1 1 1 1 1 1 1 1 1 1 1 1
          1 1 1 1 1 1 1 1 1 1 1 1
          1 1 1 1 1 1 1 1 1 1 1 1
          1 1 1 1 1 1 1 1 1 1 1 1
          1 1 1 1 1 1 1 1 1 1 1 1
          1 1 1 1 1 1 1 1 1 1 1 1
          1 1 1 1 1 1 1 1 1 1 1 1
          1 1 1 1 1 1 1 1 1 1 1 1
          1 1 1 1 1 1 1 1 1 1 1 1
          1 1 1 1 1 1 1 1 1 1 1 1
          1 1 1 1 1 1 1 1 1 1 1 1
          1 1 1 1 1 1 1 1 1 1 1 1
          1 1 1 1 1 1 1 1 1 1 1 1
          1 1 1 1 1 1 1 1 1 1 1 1
          1 1 1 1 1 1 1 1 1 1 1 1
          1 1 1 1 1 1 1 1 1 1 1 1
          1 1 1 1 1 1 1 1 1 1 1 1
          1 1 1 1 1 1 1 1 1 1 1 1
          1 1 1 1 1 1 1 1 1 1 1 1
          1 1 1 1 1 1 1 1 1 1 1 1
          1 1 1 1 1 1 1 1 1 1 1 1
          1 1 1 1 1 1 1 1 1 1 1 1
          1 1 1 1 1 1 1 1 1 1 1 1
          1 1 1 1 1 1 1 1 1 1 1 1
          1 1 1 1 1 1 1 1 1 1 1 1
          1 1 1 1 1 1 1 1 1 1 1 1
          1 1 1 1 1 1 1 1 1 1 1 1
          1 1 1 1 1 1 1 1 1 1 1 1
          1 1 1 1 1 1 1 1 1 1 1 1
          1 1 1 1 1 1 1 1 1 1 1 1
          1 1 1 1 1 1 1 1
        </DataArray>
        <DataArray type="Float32" Name="p_gas" NumberOfComponents="1" format="ascii">
          100000 100000 100000 100000 100000 100000 100000 100000 100000 100000 100000 100000
          100000 100000 100000 100000 100000 100000 100000 100000 100000 100000 100000 100000
          100000 100000 100000 100000 100000 100000 100000 100000 100000 100000 100000 100000
          100000 100000 100000 100000 100000 100000 100000 100000 100000 100000 100000 100000
          100000 100000 100000 100000 100000 100000 100000 100000 100000 100000 100000 100000
          100000 100000 100000 100000 100000 100000 100000 100000 100000 100000 100000 100000
          100000 100000 100000 100000 100000 100000 100000 100000 100000 100000 100000 100000
          100000 100000 100000 100000 100000 100000 100000 100000 100000 100000 100000 100000
          100000 100000 100000 100000 100000 100000 100000 100000 100000 100000 100000 100000
          100000 100000 100000 100000 100000 100000 100000 100000 100000 100000 100000 100000
          100000 100000 100000 100000 100000 100000 100000 100000 100000 100000 100000 100000
          100000 100000 100000 100000 100000 100000 100000 100000 100000 100000 100000 100000
          100000 100000 100000 100000 100000 100000 100000 100000 100000 100000 100000 100000
          100000 100000 100000 100000 100000 100000 100000 100000 100000 100000 100000 100000
          100000 100000 100000 100000 100000 100000 100000 100000 100000 100000 100000 100000
          100000 100000 100000 100000 100000 100000 100000 100000 100000 100000 100000 100000
          100000 100000 100000 100000 100000 100000 100000 100000 100000 100000 100000 100000
          100000 100000 100000 100000 100000 100000 100000 100000 100000 100000 100000 100000
          100000 100000 100000 100000 100000 100000 100000 100000 100000 100000 100000 100000
          100000 100000 100000 100000 100000 100000 100000 100000 100000 100000 100000 100000
          100000 100000 100000 100000 100000 100000 100000 100000 100000 100000 100000 100000
          100000 100000 100000 100000 100000 100000 100000 100000 100000 100000 100000 100000
          100000 100000 100000 100000 100000 100000 100000 100000 100000 100000 100000 100000
          100000 100000 100000 100000 100000 100000 100000 100000 100000 100000 100000 100000
          100000 100000 100000 100000 100000 100000 100000 100000 100000 100000 100000 100000
          100000 100000 100000 100000 100000 100000 100000 100000 100000 100000 100000 100000
          100000 100000 100000 100000 100000 100000 100000 100000 100000 100000 100000 100000
          100000 100000 100000 100000 100000 100000 100000 100000 100000 100000 100000 100000
          100000 100000 100000 100000 100000 100000 100000 100000 100000 100000 100000 100000
          100000 100000 100000 100000 100000 100000 100000 100000 100000 100000 100000 100000
          100000 100000 100000 100000 100000 100000 100000 100000 100000 100000 100000 100000
          100000 100000 100000 100000 100000 100000 100000 100000 100000 100000 100000 100000
          100000 100000 100000 100000 100000 100000 100000 100000 100000 100000 100000 100000
          100000 100000 100000 100000 100000 100000 100000 100000 100000 100000 100000 100000
          100000 100000 100000 100000 100000 100000 100000 100000 100000 100000 100000 100000
          100000 100000 100000 100000 100000 100000 100000 100000 100000 100000 100000 100000
          100000 100000 100000 100000 100000 100000 100000 100000 100000 100000 100000 100000
          100000 100000 100000 100000 100000 100000 100000 100000 100000 100000 100000 100000
          100000 100000 100000 100000 100000 100000 100000 100000 100000 100000 100000 100000
          100000 100000 100000 100000 100000 100000 100000 100000 100000 100000 100000 100000
          100000 100000 100000 100000 100000 100000 100000 100000 100000 100000 100000 100000
          100000 100000 100000 100000 100000 100000 100000 100000 100000 100000 100000 100000
          100000 100000 100000 100000 100000 100000 100000 100000
        </DataArray>
        <DataArray type="Float32" Name="p_liq" NumberOfComponents="1" format="ascii">
          95641.3 95641.3 95641.3 95641.3 95641.3 95641.3 95641.4 95641.4 95641.4 95641.4 95641.4 95641.5
          95641.5 95641.5 95641.6 95641.6 95641.6 95641.7 95641.7 95641.8 95641.8 95641.9 95642 95642
          95642.1 95642.2 95642.3 95642.4 95642.5 95642.6 95642.7 95642.9 95643 95643.1 95643.3 95643.5
          95643.7 95643.9 95644.1 95644.4 95644.6 95644.9 95645.2 95645.6 95645.9 95646.3 95646.8 95647.2
          95647.7 95648.2 95648.8 95649.5 95650.1 95650.9 95651.6 95652.5 95653.4 95654.4 95655.5 95656.7
          95657.9 95659.3 95660.8 95662.3 95664.1 95665.9 95667.9 95670.1 95672.4 95674.9 95677.6 95680.6
          95683.7 95687.2 95690.8 95694.8 95699.1 95703.7 95708.7 95714.1 95719.9 95726.1 95732.8 95740.1
          95747.8 95756.2 95765.2 95774.9 95785.3 95796.5 95808.4 95821.3 95835.1 95849.8 95865.7 95882.6
          95900.6 95920 95940.6 95962.5 95985.9 96010.8 96037.3 96065.3 96095 96126.5 96159.8 96194.9
          96231.8 96270.7 96311.4 96354.1 96398.8 96445.4 96493.9 96544.2 96596.4 96650.3 96705.9 96763
          96821.6 96881.5 96942.5 97004.6 97067.6 97131.2 97195.3 97259.7 97324.2 97388.6 97452.7 97516.3
          97579.3 97641.4 97702.4 97762.3 97820.9 97878 97933.6 97987.5 98039.7 98090 98138.5 98185.1
          98229.8 98272.5 98313.2 98352.1 98389.1 98424.1 98457.4 98488.9 98518.6 98546.6 98573.1 98598
          98621.4 98643.3 98663.9 98683.2 98701.3 98718.2 98734.1 98748.8 98762.6 98775.5 98787.4 98798.6
          98809 98818.7 98827.7 98836.1 98843.8 98851.1 98857.8 98864 98869.8 98875.2 98880.2 98884.8
          98889.1 98893.1 98896.7 98900.2 98903.3 98906.3 98909 98911.5 98913.8 98916 98918 98919.8
          98921.6 98923.1 98924.6 98926 98927.2 98928.4 98929.5 98930.5 98931.4 98932.2 98933 98933.8
          98934.4 98935.1 98935.7 98936.2 98936.7 98937.1 98937.6 98938 98938.3 98938.7 98939 98939.3
          98939.5 98939.8 98940 98940.2 98940.4 98940.6 98940.8 98940.9 98941 98941.2 98941.3 98941.4
          98941.5 98941.6 98941.7 98941.8 98941.9 98941.9 98942 98942.1 98942.1 98942.2 98942.2 98942.3
          98942.3 98942.3 98942.4 98942.4 98942.4 98942.5 98942.5 98942.5 98942.5 98942.6 98942.6 98942.6
          98942.6 98942.6 98942.6 98942.6 98942.7 98942.7 98942.7 98942.7 98942.7 98942.7 98942.7 98942.7
          98942.7 98942.7 98942.7 98942.7 98942.7 98942.8 98942.8 98942.8 98942.8 98942.8 98942.8 98942.8
          98942.8 98942.8 98942.8 98942.8 98942.8 98942.8 98942.8 98942.8 98942.8 98942.8 98942.8 98942.8
          98942.8 98942.8 98942.8 98942.8 98942.8 98942.8 98942.8 98942.8 98942.8 98942.8 98942.8 98942.8
          98942.8 98942.8 98942.8 98942.8 98942.8 98942.8 98942.8 98942.8 98942.8 98942.8 98942.8 98942.8
          98942.8 98942.8 98942.8 98942.8 98942.8 98942.8 98942.8 98942.8 98942.8 98942.8 98942.8 98942.8
          98942.8 98942.8 98942.8 98942.8 98942.8 98942.8 98942.8 98942.8 98942.8 98942.8 98942.8 98942.8
          98942.8 98942.8 98942.8 98942.8 98942.8 98942.8 98942.8 98942.8 98942.8 98942.8 98942.8 98942.8
          98942.8 98942.8 98942.8 98942.8 98942.8 98942.8 98942.8 98942.8 98942.8 98942.8 98942.8 98942.8
          98942.8 98942.8 98942.8 98942.8 98942.8 98942.8 98942.8 98942.8 98942.8 98942.8 98942.8 98942.8
          98942.8 98942.8 98942.8 98942.8 98942.8 98942.8 98942.8 98942.8 98942.8 98942.8 98942.8 98942.8
          98942.8 98942.8 98942.8 98942.8 98942.8 98942.8 98942.8 98942.8 98942.8 98942.8 98942.8 98942.8
          98942.8 98942.8 98942.8 98942.8 98942.8 98942.8 98942.8 98942.8 98942.8 98942.8 98942.8 98942.8
          98942.8 98942.8 98942.8 98942.8 98942.8 98942.8 98942.8 98942.8 98942.8 98942.8 98942.8 98942.8
          98942.8 98942.8 98942.8 98942.8 98942.8 98942.8 98942.8 98942.8 98942.8 98942.8 98942.8 98942.8
          98942.8 98942.8 98942.8 98942.8 98942.8 98942.8 98942.8 98942.8 98942.8 98942.8 98942.8 98942.8
          98942.8 98942.8 98942.8 98942.8 98942.8 98942.8 98942.8 98942.8 98942.8 98942.8 98942.8 98942.8
          98942.8 98942.8 98942.8 98942.8 98942.8 98942.8 98942.8 98942.8 98942.8 98942.8 98942.8 98942.8
          98942.8 98942.8 98942.8 98942.8 98942.8 98942.8 98942.8 98942.8 98942.8 98942.8 98942.8 98942.8
          98942.8 98942.8 98942.8 98942.8 98942.8 98942.8 98942.8 98942.8 98942.8 98942.8 98942.8 98942.8
          98942.8 98942.8 98942.8 98942.8 98942.8 98942.8 98942.8 98942.8 98942.8 98942.8 98942.8 98942.8
          98942.8 98942.8 98942.8 98942.8 98942.8 98942.8 98942.8 98942.8
        </DataArray>
        <DataArray type="Float32" Name="pc" NumberOfComponents="1" format="ascii">
          4358.74 4358.73 4358.72 4358.7 4358.69 4358.67 4358.65 4358.63 4358.61 4358.59 4358.56 4358.53
          4358.5 4358.47 4358.44 4358.4 4358.36 4358.31 4358.26 4358.21 4358.16 4358.1 4358.03 4357.96
          4357.88 4357.8 4357.71 4357.62 4357.51 4357.4 4357.28 4357.15 4357 4356.85 4356.68 4356.5
          4356.31 4356.1 4355.87 4355.62 4355.36 4355.07 4354.76 4354.42 4354.06 4353.67 4353.24 4352.78
          4352.29 4351.75 4351.17 4350.55 4349.87 4349.14 4348.35 4347.49 4346.57 4345.57 4344.49 4343.33
          4342.07 4340.71 4339.24 4337.65 4335.94 4334.09 4332.09 4329.93 4327.6 4325.08 4322.36 4319.43
          4316.26 4312.84 4309.16 4305.18 4300.89 4296.27 4291.29 4285.91 4280.12 4273.89 4267.17 4259.94
          4252.16 4243.79 4234.78 4225.11 4214.71 4203.54 4191.56 4178.7 4164.92 4150.15 4134.34 4117.43
          4099.35 4080.04 4059.43 4037.46 4014.07 3989.19 3962.75 3934.69 3904.95 3873.49 3840.23 3805.15
          3768.2 3729.35 3688.57 3645.86 3601.2 3554.62 3506.14 3455.79 3403.63 3349.72 3294.15 3237.01
          3178.43 3118.53 3057.45 2995.36 2932.41 2868.8 2804.69 2740.3 2675.8 2611.41 2547.3 2483.69
          2420.74 2358.65 2297.57 2237.67 2179.09 2121.95 2066.38 2012.47 1960.31 1909.96 1861.48 1814.9
          1770.24 1727.53 1686.75 1647.9 1610.95 1575.87 1542.61 1511.15 1481.41 1453.35 1426.91 1402.03
          1378.64 1356.67 1336.06 1316.75 1298.67 1281.76 1265.95 1251.18 1237.4 1224.54 1212.56 1201.39
          1190.99 1181.32 1172.31 1163.94 1156.16 1148.93 1142.21 1135.98 1130.19 1124.81 1119.83 1115.21
          1110.92 1106.94 1103.26 1099.84 1096.67 1093.74 1091.02 1088.5 1086.17 1084.01 1082.01 1080.16
          1078.45 1076.86 1075.39 1074.03 1072.77 1071.61 1070.53 1069.53 1068.61 1067.75 1066.96 1066.23
          1065.55 1064.93 1064.35 1063.81 1063.32 1062.86 1062.43 1062.04 1061.68 1061.34 1061.03 1060.74
          1060.48 1060.23 1060 1059.79 1059.6 1059.42 1059.25 1059.1 1058.95 1058.82 1058.7 1058.59
          1058.48 1058.39 1058.3 1058.22 1058.14 1058.07 1058 1057.94 1057.89 1057.84 1057.79 1057.74
          1057.7 1057.67 1057.63 1057.6 1057.57 1057.54 1057.51 1057.49 1057.47 1057.45 1057.43 1057.41
          1057.4 1057.38 1057.37 1057.36 1057.34 1057.33 1057.32 1057.31 1057.31 1057.3 1057.29 1057.28
          1057.28 1057.27 1057.27 1057.26 1057.26 1057.25 1057.25 1057.24 1057.24 1057.24 1057.24 1057.23
          1057.23 1057.23 1057.23 1057.22 1057.22 1057.22 1057.22 1057.22 1057.22 1057.22 1057.21 1057.21
          1057.21 1057.21 1057.21 1057.21 1057.21 1057.21 1057.21 1057.21 1057.21 1057.21 1057.21 1057.21
          1057.2 1057.2 1057.2 1057.2 1057.2 1057.2 1057.2 1057.2 1057.2 1057.2 1057.2 1057.2
          1057.2 1057.2 1057.2 1057.2 1057.2 1057.2 1057.2 1057.2 1057.2 1057.2 1057.2 1057.2
          1057.2 1057.2 1057.2 1057.2 1057.2 1057.2 1057.2 1057.2 1057.2 1057.2 1057.2 1057.2
          1057.2 1057.2 1057.2 1057.2 1057.2 1057.2 1057.2 1057.2 1057.2 1057.2 1057.2 1057.2
          1057.2 1057.2 1057.2 1057.2 1057.2 1057.2 1057.2 1057.2 1057.2 1057.2 1057.2 1057.2
          1057.2 1057.2 1057.2 1057.2 1057.2 1057.2 1057.2 1057.2 1057.2 1057.2 1057.2 1057.2
          1057.2 1057.2 1057.2 1057.2 1057.2 1057.2 1057.2 1057.2 1057.2 1057.2 1057.2 1057.2
          1057.2 1057.2 1057.2 1057.2 1057.2 1057.2 1057.2 1057.2 1057.2 1057.2 1057.2 1057.2
          1057.2 1057.2 1057.2 1057.2 1057.2 1057.2 1057.2 1057.2 1057.2 1057.2 1057.2 1057.2
          1057.2 1057.2 1057.2 1057.2 1057.2 1057.2 1057.2 1057.2 1057.2 1057.2 1057.2 1057.2
          1057.2 1057.2 1057.2 1057.2 1057.2 1057.2 1057.2 1057.2 1057.2 1057.2 1057.2 1057.2
          1057.2 1057.2 1057.2 1057.2 1057.2 1057.2 1057.2 1057.2 1057.2 1057.2 1057.2 1057.2
          1057.2 1057.2 1057.2 1057.2 1057.2 1057.2 1057.2 1057.2 1057.2 1057.2 1057.2 1057.2
          1057.2 1057.2 1057.2 1057.2 1057.2 1057.2 1057.2 1057.2 1057.2 1057.2 1057.2 1057.2
          1057.2 1057.2 1057.2 1057.2 1057.2 1057.2 1057.2 1057.2 1057.2 1057.2 1057.2 1057.2
          1057.2 1057.2 1057.2 1057.2 1057.2 1057.2 1057.2 1057.2 1057.2 1057.2 1057.2 1057.2
          1057.2 1057.2 1057.2 1057.2 1057.2 1057.2 1057.2 1057.2 1057.2 1057.2 1057.2 1057.2
          1057.2 1057.2 1057.2 1057.2 1057.2 1057.2 1057.2 1057.2
        </DataArray>
        <DataArray type="Float32" Name="rho_liq" NumberOfComponents="1" format="ascii">
          1000 1000 1000 1000 1000 1000 1000 1000 1000 1000 1000 1000
          1000 1000 1000 1000 1000 1000 1000 1000 1000 1000 1000 1000
          1000 1000 1000 1000 1000 1000 1000 1000 1000 1000 1000 1000
          1000 1000 1000 1000 1000 1000 1000 1000 1000 1000 1000 1000
          1000 1000 1000 1000 1000 1000 1000 1000 1000 1000 1000 1000
          1000 1000 1000 1000 1000 1000 1000 1000 1000 1000 1000 1000
          1000 1000 1000 1000 1000 1000 1000 1000 1000 1000 1000 1000
          1000 1000 1000 1000 1000 1000 1000 1000 1000 1000 1000 1000
          1000 1000 1000 1000 1000 1000 1000 1000 1000 1000 1000 1000
          1000 1000 1000 1000 1000 1000 1000 1000 1000 1000 1000 1000
          1000 1000 1000 1000 1000 1000 1000 1000 1000 1000 1000 1000
          1000 1000 1000 1000 1000 1000 1000 1000 1000 1000 1000 1000
          1000 1000 1000 1000 1000 1000 1000 1000 1000 1000 1000 1000
          1000 1000 1000 1000 1000 1000 1000 1000 1000 1000 1000 1000
          1000 1000 1000 1000 1000 1000 1000 1000 1000 1000 1000 1000
          1000 1000 1000 1000 1000 1000 1000 1000 1000 1000 1000 1000
          1000 1000 1000 1000 1000 1000 1000 1000 1000 1000 1000 1000
          1000 1000 1000 1000 1000 1000 1000 1000 1000 1000 1000 1000
          1000 1000 1000 1000 1000 1000 1000 1000 1000 1000 1000 1000
          1000 1000 1000 1000 1000 1000 1000 1000 1000 1000 1000 1000
          1000 1000 1000 1000 1000 1000 1000 1000 1000 1000 1000 1000
          1000 1000 1000 1000 1000 1000 1000 1000 1000 1000 1000 1000
          1000 1000 1000 1000 1000 1000 1000 1000 1000 1000 1000 1000
          1000 1000 1000 1000 1000 1000 1000 1000 1000 1000 1000 1000
          1000 1000 1000 1000 1000 1000 1000 1000 1000 1000 1000 1000
          1000 1000 1000 1000 1000 1000 1000 1000 1000 1000 1000 1000
          1000 1000 1000 1000 1000 1000 1000 1000 1000 1000 1000 1000
          1000 1000 1000 1000 1000 1000 1000 1000 1000 1000 1000 1000
          1000 1000 1000 1000 1000 1000 1000 1000 1000 1000 1000 1000
          1000 1000 1000 1000 1000 1000 1000 1000 1000 1000 1000 1000
          1000 1000 1000 1000 1000 1000 1000 1000 1000 1000 1000 1000
          1000 1000 1000 1000 1000 1000 1000 1000 1000 1000 1000 1000
          1000 1000 1000 1000 1000 1000 1000 1000 1000 1000 1000 1000
          1000 1000 1000 1000 1000 1000 1000 1000 1000 1000 1000 1000
          1000 1000 1000 1000 1000 1000 1000 1000 1000 1000 1000 1000
          1000 1000 1000 1000 1000 1000 1000 1000 1000 1000 1000 1000
          1000 1000 1000 1000 1000 1000 1000 1000 1000 1000 1000 1000
          1000 1000 1000 1000 1000 1000 1000 1000 1000 1000 1000 1000
          1000 1000 1000 1000 1000 1000 1000 1000 1000 1000 1000 1000
          1000 1000 1000 1000 1000 1000 1000 1000 1000 1000 1000 1000
          1000 1000 1000 1000 1000 1000 1000 1000 1000 1000 1000 1000
          1000 1000 1000 1000 1000 1000 1000 1000 1000 1000 1000 1000
          1000 1000 1000 1000 1000 1000 1000 1000
        </DataArray>
        <DataArray type="Float32" Name="mob_liq" NumberOfComponents="1" format="ascii">
          1000 1000 1000 1000 1000 1000 1000 1000 1000 1000 1000 1000
          1000 1000 1000 1000 1000 1000 1000 1000 1000 1000 1000 1000
          1000 1000 1000 1000 1000 1000 1000 1000 1000 1000 1000 1000
          1000 1000 1000 1000 1000 1000 1000 1000 1000 1000 1000 1000
          1000 1000 1000 1000 1000 1000 1000 1000 1000 1000 1000 1000
          1000 1000 1000 1000 1000 1000 1000 1000 1000 1000 1000 1000
          1000 1000 1000 1000 1000 1000 1000 1000 1000 1000 1000 1000
          1000 1000 1000 1000 1000 1000 1000 1000 1000 1000 1000 1000
          1000 1000 1000 1000 1000 1000 1000 1000 1000 1000 1000 1000
          1000 1000 1000 1000 1000 1000 1000 1000 1000 1000 1000 1000
          1000 1000 1000 1000 1000 1000 1000 1000 1000 1000 1000 1000
          1000 1000 1000 1000 1000 1000 1000 1000 1000 1000 1000 1000
          1000 1000 1000 1000 1000 1000 1000 1000 1000 1000 1000 1000
          1000 1000 1000 1000 1000 1000 1000 1000 1000 1000 1000 1000
          1000 1000 1000 1000 1000 1000 1000 1000 1000 1000 1000 1000
          1000 1000 1000 1000 1000 1000 1000 1000 1000 1000 1000 1000
          1000 1000 1000 1000 1000 1000 1000 1000 1000 1000 1000 1000
          1000 1000 1000 1000 1000 1000 1000 1000 1000 1000 1000 1000
          1000 1000 1000 1000 1000 1000 1000 1000 1000 1000 1000 1000
          1000 1000 1000 1000 1000 1000 1000 1000 1000 1000 1000 1000
          1000 1000 1000 1000 1000 1000 1000 1000 1000 1000 1000 1000
          1000 1000 1000 1000 1000 1000 1000 1000 1000 1000 1000 1000
          1000 1000 1000 1000 1000 1000 1000 1000 1000 1000 1000 1000
          1000 1000 1000 1000 1000 1000 1000 1000 1000 1000 1000 1000
          1000 1000 1000 1000 1000 1000 1000 1000 1000 1000 1000 1000
          1000 1000 1000 1000 1000 1000 1000 1000 1000 1000 1000 1000
          1000 1000 1000 1000 1000 1000 1000 1000 1000 1000 1000 1000
          1000 1000 1000 1000 1000 1000 1000 1000 1000 1000 1000 1000
          1000 1000 1000 1000 1000 1000 1000 1000 1000 1000 1000 1000
          1000 1000 1000 1000 1000 1000 1000 1000 1000 1000 1000 1000
          1000 1000 1000 1000 1000 1000 1000 1000 1000 1000 1000 1000
          1000 1000 1000 1000 1000 1000 1000 1000 1000 1000 1000 1000
          1000 1000 1000 1000 1000 1000 1000 1000 1000 1000 1000 1000
          1000 1000 1000 1000 1000 1000 1000 1000 1000 1000 1000 1000
          1000 1000 1000 1000 1000 1000 1000 1000 1000 1000 1000 1000
          1000 1000 1000 1000 1000 1000 1000 1000 1000 1000 1000 1000
          1000 1000 1000 1000 1000 1000 1000 1000 1000 1000 1000 1000
          1000 1000 1000 1000 1000 1000 1000 1000 1000 1000 1000 1000
          1000 1000 1000 1000 1000 1000 1000 1000 1000 1000 1000 1000
          1000 1000 1000 1000 1000 1000 1000 1000 1000 1000 1000 1000
          1000 1000 1000 1000 1000 1000 1000 1000 1000 1000 1000 1000
          1000 1000 1000 1000 1000 1000 1000 1000 1000 1000 1000 1000
          1000 1000 1000 1000 1000 1000 1000 1000
        </DataArray>
        <DataArray type="Float32" Name="kr_liq" NumberOfComponents="1" format="ascii">
          1 1 1 1 1 1 1 1 1 1 1 1
          1 1 1 1 1 1 1 1 1 1 1 1
          1 1 1 1 1 1 1 1 1 1 1 1
          1 1 1 1 1 1 1 1 1 1 1 1
          1 1 1 1 1 1 1 1 1 1 1 1
          1 1 1 1 1 1 1 1 1 1 1 1
          1 1 1 1 1 1 1 1 1 1 1 1
          1 1 1 1 1 1 1 1 1 1 1 1
          1 1 1 1 1 1 1 1 1 1 1 1
          1 1 1 1 1 1 1 1 1 1 1 1
          1 1 1 1 1 1 1 1 1 1 1 1
          1 1 1 1 1 1 1 1 1 1 1 1
          1 1 1 1 1 1 1 1 1 1 1 1
          1 1 1 1 1 1 1 1 1 1 1 1
          1 1 1 1 1 1 1 1 1 1 1 1
          1 1 1 1 1 1 1 1 1 1 1 1
          1 1 1 1 1 1 1 1 1 1 1 1
          1 1 1 1 1 1 1 1 1 1 1 1
          1 1 1 1 1 1 1 1 1 1 1 1
          1 1 1 1 1 1 1 1 1 1 1 1
          1 1 1 1 1 1 1 1 1 1 1 1
          1 1 1 1 1 1 1 1 1 1 1 1
          1 1 1 1 1 1 1 1 1 1 1 1
          1 1 1 1 1 1 1 1 1 1 1 1
          1 1 1 1 1 1 1 1 1 1 1 1
          1 1 1 1 1 1 1 1 1 1 1 1
          1 1 1 1 1 1 1 1 1 1 1 1
          1 1 1 1 1 1 1 1 1 1 1 1
          1 1 1 1 1 1 1 1 1 1 1 1
          1 1 1 1 1 1 1 1 1 1 1 1
          1 1 1 1 1 1 1 1 1 1 1 1
          1 1 1 1 1 1 1 1 1 1 1 1
          1 1 1 1 1 1 1 1 1 1 1 1
          1 1 1 1 1 1 1 1 1 1 1 1
          1 1 1 1 1 1 1 1 1 1 1 1
          1 1 1 1 1 1 1 1 1 1 1 1
          1 1 1 1 1 1 1 1 1 1 1 1
          1 1 1 1 1 1 1 1 1 1 1 1
          1 1 1 1 1 1 1 1 1 1 1 1
          1 1 1 1 1 1 1 1 1 1 1 1
          1 1 1 1 1 1 1 1 1 1 1 1
          1 1 1 1 1 1 1 1 1 1 1 1
          1 1 1 1 1 1 1 1
        </DataArray>
        <DataArray type="Float32" Name="porosity" NumberOfComponents="1" format="ascii">
          0.4 0.4 0.4 0.4 0.4 0.4 0.4 0.4 0.4 0.4 0.4 0.4
          0.4 0.4 0.4 0.4 0.4 0.4 0.4 0.4 0.4 0.4 0.4 0.4
          0.4 0.4 0.4 0.4 0.4 0.4 0.4 0.4 0.4 0.4 0.4 0.4
          0.4 0.4 0.4 0.4 0.4 0.4 0.4 0.4 0.4 0.4 0.4 0.4
          0.4 0.4 0.4 0.4 0.4 0.4 0.4 0.4 0.4 0.4 0.4 0.4
          0.4 0.4 0.4 0.4 0.4 0.4 0.4 0.4 0.4 0.4 0.4 0.4
          0.4 0.4 0.4 0.4 0.4 0.4 0.4 0.4 0.4 0.4 0.4 0.4
          0.4 0.4 0.4 0.4 0.4 0.4 0.4 0.4 0.4 0.4 0.4 0.4
          0.4 0.4 0.4 0.4 0.4 0.4 0.4 0.4 0.4 0.4 0.4 0.4
          0.4 0.4 0.4 0.4 0.4 0.4 0.4 0.4 0.4 0.4 0.4 0.4
          0.4 0.4 0.4 0.4 0.4 0.4 0.4 0.4 0.4 0.4 0.4 0.4
          0.4 0.4 0.4 0.4 0.4 0.4 0.4 0.4 0.4 0.4 0.4 0.4
          0.4 0.4 0.4 0.4 0.4 0.4 0.4 0.4 0.4 0.4 0.4 0.4
          0.4 0.4 0.4 0.4 0.4 0.4 0.4 0.4 0.4 0.4 0.4 0.4