<?xml version="1.0"?>
<VTKFile type="PolyData" version="0.1" byte_order="LittleEndian">
  <PolyData>
    <Piece NumberOfLines="1007" NumberOfPoints="556">
      <PointData Scalars="p">
        <DataArray type="Float32" Name="p" NumberOfComponents="1" format="ascii">
          8666.8 8677.64 7463.65 9183.57 8666.8 9796.93 9793.78 9808.36 9860 9971.97 9821.62 7778.65
          9209.16 7783.45 8549.16 6964.96 4171.71 4868.35 4801.56 5519.47 7602 0 0 0
          0 4235.18 4245.67 4097.99 4196.54 6393.71 4226.19 4285.04 4187.03 5661.48 4276.5 28.2238
          2090.24 0 2262.1 206.814 3118.72 195.594 1.31933e-05 5152.22 4246.28 10000 10000 10000
          10000 9999.72 9999.93 10000 9921.37 10000 90.9501 2710.87 0 0 10000 10000
          10000 9755.2 8103.98 8159.02 8354.53 8036.59 7750.37 6317.21 2710.2 4005.28 3192.38 3394.92
          893.817 3496.52 3496.52 5668.41 4061.65 4061.65 0 0 0 7519.8 4535.29 883.361
          1048.77 0 939.048 881.899 0 883.361 130.521 1397.79 0 424.647 357.096 0.0318143
          1671.54 3412.12 0 0 6996.49 6996.49 4319.08 4203.9 4214.2 4780.37 9561.71 9561.71
          145.586 142.484 108.258 0 165.908 133.753 2774.37 4024.05 3953.34 9025.83 5789.04 9025.83
          9025.83 10000 10000 6584.85 10000 6642.81 6345 6426.62 6344.22 6235.06 6451.64 5226.7
          6499.54 4820 3428.04 4228.34 2710.87 14.1409 1470.95 1087.49 613.202 2805.75 4275.25 4233.31
          4076.6 4320.71 2229.89 4020.03 2360.49 4063.52 4067.78 4062.27 6176.09 6219.46 6330.69 6175.7
          4259.94 6427.36 6447.42 5247.02 6374.74 4073.1 4073.1 504.364 1393.1 0 7301.49 7301.49
          4043.89 4043.89 10000 10000 10000 10000 3728.23 3531.21 3817.42 3728.23 3023.23 3782.65
          6223.3 9789.05 4722.08 9792.41 5413.26 8424.86 4378.91 4378.91 4722.08 3554.65 3179.68 2429.69
          3297.25 4069.11 10000 10000 10000 10000 4073.1 4073.1 10000 289.733 83.3231 107.314
          289.733 483.54 217.096 289.733 291.109 42.772 285.572 0 281.772 1446.31 1465.11 55.0416
          6508.56 309.213 0 1465.35 10000 2217.54 3893.23 3.25439 2232.1 2925.85 3575.93 3262.32
          0 2100.21 0 1938.99 2443.22 1808.86 4790.65 4726.55 5363.78 5447.47 4350.76 4746.27
          8338.94 3534.39 4257.92 7050.07 4087.43 4214.97 10000 8107.58 5728.31 9675 2912.26 10000
          2503.41 2214.91 3939.48 4214.2 10000 10000 7492.11 10000 4722.08 4752.94 6175.96 5036.4
          5066.43 6492.28 5668.41 7944.01 7462.84 10000 7436 10000 10000 10000 8433.43 9423.11
          10000 10000 10000 10000 9984.77 9984.77 10000 10000 10000 82.1113 0 6330.69
          3317.86 6330.69 6374.85 6324.48 2262.1 8147.1 8147.1 4074.27 4098.44 4099.88 4074.27 8218.21
          10000 10000 10000 4871.55 4871.55 3124.11 3470.16 42.944 6363.13 9396.94 9626.23 5630.22
          5250 5250 0.0401007 0.0401007 1544.79 0 2416.88 2375.49 9826.25 9954.1 10000 10000
          0 0 9984.77 9984.77 1680.43 946.91 662.46 901.298 3327.42 0 0 9881.48
          10000 613.202 1.31933e-05 8365.56 9997.72 8354.53 8364.36 8364.44 7770.77 6461.24 6403.96 0
          0 0 2849.52 3066.38 9798.01 9879.13 6558.08 6558.08 3396.97 6558.08 2901.18 855.772
          671.036 660.863 2309.83 10000 10000 1397.79 5704.93 7203.87 55.0416 49.5575 0 0
          5507.03 5507.03 2034.62 8332.91 0 1736.16 616.327 0 22.272 0 4.88103 0
          119.961 119.961 0 10000 0.0761022 3542.71 3531.21 7602 7602 9566.96 10000 6661.16
          10000 6762.14 10000 9421.3 9607.37 7144.83 7205.61 573.169 107.314 127.859 107.314 132.603
          273.848 107.314 131.821 3389.62 10000 10000 10000 10000 6.88251 2021.84 1397.79 9969.28
          2592.15 10000 3396.97 0 1303.12 0 22.272 4357.33 3179.68 7519.06 4524.43 3017.29
          2714.4 10000 2542.7 7.98646 0 1.28666e-05 4748.33 4357.33 0 8423.51 10000 5323.8
          6408.7 3624.26 3317.86 6719.91 6711.41 6735.2 10000 10000 10000 10000 2503.41 6645.32
          10000 10000 0 0 407.537 505.883 10000 8269.74 5128.45 6087.72 5128.45 0
          1470.59 1459.34 4087.43 2090.24 536.458 10000 10000 9969.08 7793.82 10000 9923.84 9999.95
          2807.64 3167.87 0 0 0 1810.1 0 281.772 6757.49 0.011063 10000 5749.17
          7257.79 0 9524.09 4657.79 2950.8 9921.37 6642.53 6393.12 10000 4087.43 4365.02 172.371
          4351.32 1.37698 4101.42 18.3497 0 0 0 49.5575 6765.39 8424.86 4107.67 0
          4657.04 7301.49 10000 10000 9090.41 0 4357.33 7944.01 2953.56 2953.56 625.139 6397.23
          0 6521.43 6401.1 0 0 8364.36 7463.65 8218.21 640.867 1962.51 8433.43 4087.43
          2090.24 7.41371 107.314 4445.37 4087.43 285.572 1671.54 1725.22 4357.33 8364.36 42.944 0
          10000 10000 0 7462.84
        </DataArray>
        <DataArray type="Float32" Name="poreInscribedRadius" NumberOfComponents="1" format="ascii">
          1.14061e-05 1.14061e-05 1.9865e-05 2.60758e-05 4.62891e-06 3.04206e-05 2.65375e-05 8.46362e-06 8.46362e-06 2.65375e-05 1.67511e-05 2.41548e-05
          1.0489e-05 1.0489e-05 2.41548e-05 1.0489e-05 1.92747e-05 1.53703e-05 1.8048e-05 1.0489e-05 2.15561e-05 1.46428e-05 1.53703e-05 1.14061e-05
          3.3166e-05 3.3542e-05 1.46428e-05 2.95958e-05 1.14061e-05 2.20961e-05 2.65375e-05 1.38867e-05 3.74577e-05 1.22735e-05 2.20961e-05 2.95958e-05
          2.20961e-05 4.57957e-05 3.71169e-05 1.14061e-05 7.32288e-06 4.62891e-06 3.91218e-05 7.32288e-06 1.46428e-05 1.0489e-05 1.30985e-05 3.53694e-05
          1.0489e-05 1.9865e-05 1.14061e-05 7.32288e-06 2.41548e-05 8.46362e-06 1.30985e-05 2.60758e-05 1.86694e-05 2.20961e-05 1.67511e-05 8.46362e-06
          1.14061e-05 1.8048e-05 3.12264e-05 1.14061e-05 2.91758e-05 1.8048e-05 4.62891e-06 2.20961e-05 1.53703e-05 1.67511e-05 1.14061e-05 2.26254e-05
          3.53694e-05 2.26254e-05 6.06109e-06 3.3166e-05 7.32288e-06 5.90641e-05 4.62891e-06 1.8048e-05 1.22735e-05 7.32288e-06 4.22733e-05 2.26254e-05
          1.30985e-05 2.41548e-05 1.14061e-05 8.46362e-06 1.92747e-05 6.06109e-06 1.92747e-05 3.64268e-05 1.14061e-05 8.46362e-06 7.32288e-06 4.80132e-05
          2.69925e-05 1.0489e-05 1.14061e-05 2.26254e-05 6.06109e-06 3.04206e-05 8.46362e-06 1.86694e-05 3.5725e-05 2.5607e-05 6.06109e-06 1.46428e-05
          2.26254e-05 1.53703e-05 1.22735e-05 2.31445e-05 7.32288e-06 3.04206e-05 2.65375e-05 1.67511e-05 1.30985e-05 2.26254e-05 2.5607e-05 7.32288e-06
          7.32288e-06 6.06109e-06 1.8048e-05 1.38867e-05 1.38867e-05 1.0489e-05 1.8048e-05 1.38867e-05 7.32288e-06 1.8048e-05 2.41548e-05 3.53694e-05
          1.74091e-05 1.53703e-05 1.8048e-05 2.65375e-05 7.32288e-06 1.0489e-05 1.46428e-05 2.46469e-05 1.46428e-05 3.27861e-05 4.46496e-05 1.53703e-05
          1.74091e-05 2.78835e-05 2.91758e-05 6.06109e-06 1.74091e-05 4.62891e-06 1.74091e-05 3.3166e-05 1.53703e-05 1.53703e-05 3.71169e-05 8.46362e-06
          7.32288e-06 1.14061e-05 2.20961e-05 1.46428e-05 1.46428e-05 2.95958e-05 2.91758e-05 1.53703e-05 2.60758e-05 2.74411e-05 7.32288e-06 3.08258e-05
          7.32288e-06 3.00107e-05 1.14061e-05 2.65375e-05 8.46362e-06 2.95958e-05 2.69925e-05 2.60758e-05 2.04414e-05 1.53703e-05 2.74411e-05 1.22735e-05
          7.32288e-06 3.3166e-05 2.95958e-05 1.46428e-05 2.04414e-05 1.53703e-05 7.32288e-06 3.12264e-05 2.93007e-06 1.74091e-05 1.14061e-05 2.31445e-05
          6.06109e-06 1.67511e-05 6.06109e-06 2.65375e-05 1.14061e-05 1.14061e-05 7.32288e-06 7.32288e-06 1.67511e-05 3.27861e-05 1.14061e-05 3.42833e-05
          4.62891e-06 1.74091e-05 1.14061e-05 6.06109e-06 8.46362e-06 2.20961e-05 1.86694e-05 3.46487e-05 1.9865e-05 1.53703e-05 2.83199e-05 2.95958e-05
          2.15561e-05 1.38867e-05 2.46469e-05 1.8048e-05 6.06109e-06 3.3166e-05 2.20961e-05 8.46362e-06 7.32288e-06 1.9865e-05 2.20961e-05 7.32288e-06
          2.78835e-05 1.0489e-05 1.0489e-05 1.46428e-05 1.9865e-05 2.26254e-05 2.65375e-05 1.14061e-05 7.32288e-06 8.46362e-06 2.20961e-05 8.46362e-06
          1.14061e-05 6.06109e-06 1.22735e-05 1.30985e-05 4.22733e-05 7.32288e-06 2.04414e-05 1.0489e-05 3.27861e-05 1.74091e-05 8.46362e-06 1.0489e-05
          2.15561e-05 1.38867e-05 2.31445e-05 4.62891e-06 2.69925e-05 2.60758e-05 1.46428e-05 8.46362e-06 1.22735e-05 1.22735e-05 1.53703e-05 1.53703e-05
          1.14061e-05 7.32288e-06 7.32288e-06 1.74091e-05 2.60758e-05 3.3166e-05 8.46362e-06 6.06109e-06 1.38867e-05 2.91758e-05 2.20961e-05 1.14061e-05
          2.20961e-05 7.32288e-06 6.06109e-06 4.62891e-06 4.62891e-06 4.62891e-06 4.62891e-06 2.20961e-05 2.20961e-05 4.62891e-06 2.41548e-05 1.74091e-05
          3.53694e-05 7.32288e-06 2.60758e-05 3.81311e-05 4.62891e-06 7.32288e-06 1.22735e-05 2.41548e-05 1.14061e-05 2.26254e-05 7.32288e-06 1.67511e-05
          2.74411e-05 1.92747e-05 6.06109e-06 1.67511e-05 7.32288e-06 2.04414e-05 2.93007e-06 2.46469e-05 1.46428e-05 2.41548e-05 1.14061e-05 2.20961e-05
          8.46362e-06 3.84639e-05 4.62891e-06 1.38867e-05 7.32288e-06 4.82839e-05 1.46428e-05 1.53703e-05 1.92747e-05 1.0489e-05 1.86694e-05 1.0489e-05
          4.62891e-06 1.14061e-05 2.95958e-05 7.32288e-06 2.15561e-05 1.67511e-05 1.22735e-05 1.30985e-05 2.26254e-05 7.32288e-06 4.88211e-05 7.32288e-06
          5.14299e-05 7.32288e-06 7.32288e-06 1.74091e-05 2.20961e-05 7.32288e-06 1.8048e-05 1.46428e-05 2.95958e-05 1.74091e-05 1.38867e-05 7.32288e-06
          6.06109e-06 8.46362e-06 2.83199e-05 1.67511e-05 7.32288e-06 1.74091e-05 8.46362e-06 7.32288e-06 3.27861e-05 2.31445e-05 8.46362e-06 2.5607e-05
          1.14061e-05 3.46487e-05 4.62891e-06 1.14061e-05 1.14061e-05 6.06109e-06 1.8048e-05 2.95958e-05 1.0489e-05 1.14061e-05 2.04414e-05 6.06109e-06
          1.67511e-05 2.93007e-06 1.8048e-05 1.0489e-05 7.32288e-06 8.46362e-06 1.22735e-05 2.41548e-05 3.3166e-05 2.20961e-05 7.32288e-06 6.06109e-06
          1.22735e-05 1.67511e-05 6.06109e-06 6.06109e-06 1.14061e-05 2.41548e-05 8.46362e-06 6.06109e-06 1.14061e-05 1.14061e-05 2.20961e-05 1.14061e-05
          1.46428e-05 2.60758e-05 2.20961e-05 1.14061e-05 1.0489e-05 2.5607e-05 1.67511e-05 1.9865e-05 2.93007e-06 1.38867e-05 8.46362e-06 2.95958e-05
          6.06109e-06 1.30985e-05 7.32288e-06 1.53703e-05 1.38867e-05 1.14061e-05 7.32288e-06 1.74091e-05 1.67511e-05 8.46362e-06 6.06109e-06 1.53703e-05
          1.14061e-05 7.32288e-06 1.14061e-05 1.14061e-05 8.46362e-06 1.22735e-05 7.32288e-06 1.30985e-05 2.93007e-06 7.32288e-06 2.60758e-05 7.32288e-06
          1.8048e-05 4.62891e-06 7.32288e-06 1.14061e-05 1.14061e-05 6.06109e-06 1.46428e-05 1.14061e-05 7.32288e-06 1.53703e-05 7.32288e-06 8.46362e-06
          1.53703e-05 1.14061e-05 4.62891e-06 4.62891e-06 1.30985e-05 1.0489e-05 1.30985e-05 1.53703e-05 1.0489e-05 1.0489e-05 4.62891e-06 1.9865e-05
          1.14061e-05 2.93007e-06 1.14061e-05 1.14061e-05 4.62891e-06 1.53703e-05 6.06109e-06 1.46428e-05 1.46428e-05 1.38867e-05 4.62891e-06 1.0489e-05
          1.38867e-05 1.8048e-05 1.0489e-05 1.22735e-05 1.0489e-05 7.32288e-06 6.06109e-06 1.46428e-05 1.46428e-05 7.32288e-06 7.32288e-06 1.38867e-05
          1.74091e-05 2.65375e-05 2.74411e-05 4.00906e-05 6.06109e-06 8.46362e-06 1.0489e-05 2.93007e-06 2.20961e-05 1.30985e-05 8.46362e-06 1.8048e-05
          2.60758e-05 2.15561e-05 1.53703e-05 1.14061e-05 1.67511e-05 7.32288e-06 7.32288e-06 2.26254e-05 1.53703e-05 1.14061e-05 1.0489e-05 1.14061e-05
          1.0489e-05 7.32288e-06 8.46362e-06 1.67511e-05 1.14061e-05 2.04414e-05 8.46362e-06 7.32288e-06 1.9865e-05 1.30985e-05 1.22735e-05 1.0489e-05
          1.14061e-05 1.14061e-05 2.93007e-06 6.06109e-06 7.32288e-06 1.0489e-05 1.14061e-05 7.32288e-06 1.30985e-05 7.32288e-06 1.14061e-05 2.69925e-05
          7.32288e-06 1.92747e-05 1.74091e-05 7.32288e-06 2.93007e-06 1.14061e-05 7.32288e-06 2.93007e-06 7.32288e-06 8.46362e-06 7.32288e-06 7.32288e-06
          7.32288e-06 2.93007e-06 1.0489e-05 7.32288e-06 1.14061e-05 4.62891e-06 7.32288e-06 6.06109e-06 6.06109e-06 1.14061e-05 8.46362e-06 1.0489e-05
          8.46362e-06 2.93007e-06 7.32288e-06 2.93007e-06
        </DataArray>
        <DataArray type="Float32" Name="T" NumberOfComponents="1" format="ascii">
          321.703 345.254 313.786 303.062 327.602 311.503 315.486 327.98 308.934 307.14 307.088 303.092
          304.202 302.715 301.818 302.675 306.477 302.729 302.686 302.268 300.942 318.275 317.038 317.958
          320.893 302.494 302.448 303.473 304.518 301.524 302.769 305.338 304.006 301.945 301.763 326.658
          325.148 343.576 308.533 305.911 304.603 306.349 307.17 301.699 302.056 300.345 300.351 300.236
          300.443 300.858 301.113 300.216 300.747 300.402 329.802 326.215 335.176 323.835 317.318 323.274
          320.303 301.213 306.012 357.921 357.398 308.751 328.279 304.918 400 400 360.649 400
          400 400 400 324.195 304.376 304.397 379.867 375.392 377.48 329.445 317.085 309.755
          305.154 313.187 307.843 311.209 313.733 314.72 309.892 310.343 312.16 308.821 333.368 340.2
          327.674 324.879 312.867 312.179 301.094 300.527 318.114 332.906 329.105 305.942 310.737 302.331
          320.355 315.207 315.127 319.847 315.854 311.412 321.672 400 374.816 301.597 301.261 302.582
          303.057 300.778 300.441 301.678 302.27 301.651 302.105 301.53 304.33 303.481 301.426 300.766
          300.972 329.313 339.212 325.836 329.312 352.209 340.815 329.633 334.871 321.146 308.851 330.383
          311.904 306.67 321.981 310.288 309.288 303.442 301.066 301.279 308.064 309.323 305.006 312.249
          310.349 301.185 300.999 301.474 302.153 310.068 308.842 306.12 305.396 308.246 300.87 300.609
          304.756 302.902 300.499 300.524 300.377 300.585 352.736 400 344.285 400 361.696 348.854
          308.406 318.56 303.812 345.046 316.516 304.037 325.904 305.99 312.876 304.151 304.337 305.921
          303.839 304.208 327.322 303.097 318.266 400 305.387 304.876 300.589 302.473 303.081 307.121
          304.159 301.914 302.705 302.926 303.428 304.731 304.368 303.82 305.431 366.343 358.005 400
          300.832 400 397.132 400 300.514 305.797 304.403 308.906 306.358 306.693 305.14 305.652
          308.939 308.635 351.487 392.058 400 400 301.379 302.451 303.078 302.53 301.805 302.257
          379.066 392.558 315.749 316.555 308.897 318.915 313.669 316.204 310.661 304.765 309.06 301.425
          400 382.674 304.535 382.203 303.545 321.774 314.548 307.116 307.308 302.121 304.602 305.13
          305.917 318.48 353.184 317.138 400 300.251 300.806 301.106 300.452 300.101 300.227 300.333
          300.716 300.395 352.163 301.536 368.079 369.307 300.506 300.076 300.977 312.172 310.01 312.041
          316.295 306.942 302.834 304.181 311.636 379.298 380.405 303.76 305.507 305.076 303.071 367.059
          300.501 300.424 301.122 304.146 304.798 302.408 400 313.582 303.606 300.479 303.627 302.559
          301.953 300.519 356.062 367.052 304.592 305.819 400 400 303.789 302.491 300.152 302.184
          317.677 321.786 349.519 400 324.246 360.96 361.149 366.041 347.66 306.667 307.042 307.405
          302.502 364.301 305.983 330.588 317.666 371.495 400 350.373 300.533 301.092 301.89 370.157
          390.529 317.147 318.307 317.336 303.203 303.914 304.771 304.659 351.132 301.108 356.999 400
          391.692 397.78 341.636 340.614 400 307.599 313.239 313.567 400 400 335.807 364.244
          302.49 302.123 400 325.744 306.498 306.542 306.291 310.708 308.91 308.517 312.677 306.084
          307.527 308.156 306.195 300.278 309.297 338.137 400 306.203 305.669 310.405 300.712 300.135
          300.232 300.469 300.368 300.829 301.992 302.054 301.127 302.183 304.385 309.981 307.046 309.663
          305.467 305.894 307.045 347.038 300.658 301.307 300.565 300.9 317.351 309.205 315.237 311.122
          305.226 345.307 355.549 309.547 354.565 339.429 306.438 302.514 303.529 300.752 328.01 400
          400 301.349 333.298 307.349 306.988 307.443 308.072 301.874 310.238 400 334.152 301.187
          300.367 301.226 319.197 304.535 304.589 303.531 301.835 300.845 301.063 302.378 400 302.301
          301.417 300.985 311.777 313.531 316.893 315.065 301.625 300.29 304.201 304.294 303.562 319.567
          397.526 381.94 316.713 328.558 310.242 301.685 302.898 303.488 300.312 302.904 301.146 301.41
          318.928 316.506 343.727 394.951 361.83 355.924 317.978 305.818 302.033 396.847 305.943 300.989
          300.629 376.93 317.534 312.801 366.367 301.33 302.411 303.999 313.101 305.797 319.586 326.607
          314.898 363.429 306.531 397.4 373.003 311.415 308.817 400 301.062 302.362 302.453 314.596
          305.81 300.815 344.888 342.021 306.75 315.588 301.661 400 370.706 375.533 310.593 303.226
          320.321 301.67 302.139 348.311 333.745 355.902 339.863 355.609 312.634 311.084 300.751 306.054
          333.481 307.461 306.098 307.702 304.568 305.081 352.821 316.049 301.737 349.812 314.699 307.451
          300.863 300.79 308.633 331.967
        </DataArray>
        <DataArray type="Float32" Name="coordinationNumber" NumberOfComponents="1" format="ascii">
          4 3 7 8 1 5 4 2 3 8 6 5
          3 2 10 3 5 3 3 4 7 3 4 2
          12 9 3 5 2 7 5 3 9 6 5 3
          8 18 19 3 2 3 9 2 3 3 2 13
          2 4 2 4 8 2 3 10 5 7 3 2
          2 4 7 2 10 3 2 5 4 3 3 4
          11 3 1 8 1 11 2 7 2 2 12 12
          7 8 2 2 7 1 3 14 2 2 3 5
          6 2 2 3 1 5 3 5 21 9 1 5
          8 3 4 3 3 7 5 3 3 9 7 1
          1 1 4 4 3 3 3 2 2 4 9 5
          4 3 3 5 2 3 2 5 5 10 7 2
          5 7 10 3 4 3 5 4 4 6 11 3
          4 3 3 6 4 4 6 2 3 7 1 9
          1 6 3 6 2 5 7 5 5 1 5 3
          4 4 12 2 5 5 1 10 1 3 3 7
          2 4 3 6 4 2 2 1 2 11 3 14
          1 5 2 1 2 8 5 5 7 2 3 6
          4 3 5 6 1 10 5 3 2 6 5 2
          14 3 3 2 5 6 7 5 3 2 4 2
          2 2 3 2 13 2 3 3 4 4 3 5
          7 4 2 1 6 3 2 2 1 3 5 4
          5 2 1 5 6 7 3 1 2 9 8 3
          3 1 1 1 1 2 2 5 10 2 6 1
          8 1 2 6 1 1 3 6 2 4 1 4
          2 2 1 3 1 5 2 6 3 5 2 4
          1 5 1 4 2 5 2 3 5 4 5 2
          1 2 4 1 7 3 2 4 4 1 6 2
          10 1 1 4 3 1 5 2 6 3 3 1
          1 2 2 4 2 3 1 2 7 8 4 3
          2 11 2 2 2 1 3 6 1 4 5 1
          3 1 3 2 3 2 2 4 7 4 3 1
          1 3 1 2 2 5 1 1 2 2 10 4
          1 9 6 3 2 4 2 3 1 4 1 5
          2 2 2 2 3 6 2 6 3 5 1 3
          2 1 1 1 3 2 1 3 1 2 3 2
          4 1 2 3 1 2 3 2 1 3 2 2
          4 5 1 2 2 6 2 1 2 2 1 4
          2 1 2 2 2 4 2 3 4 3 1 1
          3 4 1 2 4 2 1 2 3 1 3 2
          3 3 3 8 2 2 1 1 5 3 1 3
          6 3 2 3 3 1 3 2 2 1 2 2
          2 2 2 2 2 6 2 1 4 1 2 2
          2 1 1 2 3 1 2 1 3 1 3 6
          1 2 3 1 1 1 1 1 2 5 1 1
          1 2 1 2 1 1 1 2 1 1 1 1
          1 1 1 1
        </DataArray>
        <DataArray type="Float32" Name="poreLabel" NumberOfComponents="1" format="ascii">
          -1 -1 -1 -1 -1 3 3 3 -1 3 3 -1
          -1 -1 -1 -1 -1 -1 -1 3 -1 6 6 -1
          6 -1 -1 2 -1 2 -1 -1 -1 -1 -1 -1
          -1 6 3 2 2 -1 2 2 2 5 5 5
          5 3 3 5 -1 5 -1 -1 6 6 5 5
          5 -1 -1 -1 4 -1 -1 -1 1 1 -1 1
          1 1 1 -1 -1 -1 6 6 6 -1 -1 -1
          -1 6 -1 -1 6 -1 -1 -1 6 -1 -1 3
          3 -1 6 6 -1 2 -1 -1 -1 -1 -1 -1
          -1 -1 -1 6 -1 -1 -1 1 -1 -1 -1 -1
          -1 5 5 -1 5 -1 -1 -1 -1 -1 -1 -1
          -1 -1 -1 -1 -1 -1 -1 -1 -1 -1 -1 -1
          -1 -1 -1 -1 -1 -1 -1 -1 -1 -1 -1 -1
          -1 2 2 -1 -1 -1 -1 -1 -1 6 -1 4
          3 -1 5 5 5 5 -1 1 -1 1 -1 -1
          -1 3 -1 3 -1 -1 3 -1 -1 2 3 3
          2 2 -1 5 5 1 -1 -1 5 4 -1 4
          4 2 4 4 2 4 2 6 2 -1 -1 1
          2 1 6 1 5 3 -1 -1 3 -1 -1 -1
          6 3 6 4 1 1 -1 2 -1 3 3 -1
          4 -1 -1 -1 -1 -1 5 -1 -1 -1 3 5
          1 -1 -1 -1 5 5 -1 -1 3 -1 -1 -1
          -1 -1 -1 -1 1 5 -1 -1 5 5 -1 -1
          5 -1 5 -1 -1 -1 -1 5 5 -1 6 4
          4 -1 4 -1 -1 -1 -1 2 2 2 2 -1
          5 5 5 -1 -1 2 1 -1 -1 3 -1 -1
          2 2 -1 -1 2 6 1 1 3 -1 5 5
          -1 6 3 1 -1 3 -1 -1 -1 2 6 -1
          5 -1 -1 4 4 4 1 4 -1 2 -1 6
          6 6 4 4 -1 -1 -1 -1 3 -1 3 1
          3 3 -1 -1 1 -1 -1 -1 1 1 6 6
          3 3 1 -1 6 2 2 6 -1 6 -1 6
          -1 -1 6 5 3 -1 1 3 3 4 5 2
          2 2 5 -1 4 4 4 2 -1 -1 4 4
          -1 -1 4 3 5 5 5 5 -1 -1 -1 -1
          3 5 3 6 -1 6 -1 -1 2 -1 -1 1
          1 -1 -1 -1 6 -1 -1 2 -1 1 5 -1
          2 4 -1 -1 4 -1 -1 5 5 -1 1 4
          5 5 -1 -1 -1 -1 5 -1 -1 -1 -1 6
          -1 -1 -1 -1 -1 5 5 -1 -1 -1 -1 -1
          4 4 6 6 3 -1 6 2 4 -1 5 4
          -1 6 -1 -1 -1 3 -1 -1 5 -1 -1 4
          -1 -1 -1 3 6 6 6 1 -1 -1 -1 6
          -1 2 5 5 -1 -1 3 1 -1 -1 -1 -1
          4 -1 -1 4 4 4 -1 -1 3 3 -1 -1
          -1 4 -1 -1 -1 2 3 3 3 -1 -1 6
          -1 -1 6 -1
        </DataArray>
        <DataArray type="Float32" Name="dofIdx" NumberOfComponents="1" format="ascii">
          0 324 447 453 551 1 101 211 286 500 502 2
          48 85 196 295 521 3 130 152 162 4 349 375
          535 5 41 52 100 209 222 234 317 358 359 6
          239 350 403 7 175 298 304 8 207 9 189 246
          482 10 55 70 273 339 11 33 62 387 12 184
          381 523 13 93 119 137 263 457 14 28 94 127
          337 15 77 79 16 306 17 140 553 18 532 19
          107 122 150 170 226 342 369 373 507 549 20 285
          436 21 22 159 23 294 24 195 332 538 25 289
          26 27 102 376 397 463 542 205 492 29 31 160
          281 284 361 371 433 454 30 128 235 253 120 181
          368 32 141 297 67 113 215 266 271 292 34 38
          39 203 525 547 548 35 76 291 36 46 89 270
          422 37 58 256 510 251 327 40 227 427 42 341
          43 533 44 386 434 448 45 155 242 364 393 513
          312 47 336 380 527 370 49 474 50 51 193 466
          98 356 53 68 413 459 54 104 250 56 88 169
          182 212 238 287 372 409 425 465 489 57 124 139
          335 59 121 379 60 61 72 153 163 228 279 355
          407 478 328 63 71 255 64 192 325 340 487 488
          65 166 66 322 419 491 136 347 367 528 69 198
          220 442 499 73 74 385 395 485 75 135 78 483
          505 138 171 438 520 80 249 305 320 338 426 435
          473 81 82 83 84 545 86 158 217 87 311 293
          420 428 480 504 90 91 109 92 290 319 537 456
          95 362 96 97 154 252 99 484 103 300 301 450
          105 210 106 429 334 345 108 462 110 161 229 455
          111 441 112 440 114 129 365 390 467 115 445 116
          241 117 118 268 277 326 443 476 230 299 391 344
          346 225 123 555 125 405 126 374 232 275 172 131
          351 398 132 133 243 134 188 382 165 313 331 475
          142 354 143 144 145 191 415 146 190 310 490 147
          148 512 149 151 288 186 458 156 417 157 223 214
          244 437 164 501 167 260 168 496 262 303 353 366
          384 418 550 503 173 506 174 224 176 308 177 178
          179 180 183 185 280 187 245 204 508 194 421 197
          272 202 199 200 219 201 218 357 206 208 423 396
          451 464 213 216 221 416 383 408 486 531 274 296
          536 469 258 314 329 552 309 468 231 276 316 233
          236 541 237 404 240 254 278 461 318 333 412 479
          247 481 248 307 449 446 257 259 348 261 264 265
          315 267 460 269 414 516 430 514 530 282 283 539
          377 302 394 406 511 524 493 424 554 321 323 330
          352 410 343 522 494 399 495 360 363 432 411 526
          544 378 546 517 519 388 389 392 400 540 401 402
          477 472 471 518 543 534 431 470 439 529 444 498
          452 497 509 515
        </DataArray>
        <DataArray type="Float32" Name="hostGridVertexIdx" NumberOfComponents="1" format="ascii">
          0 324 447 453 551 1 101 211 286 500 502 2
          48 85 196 295 521 3 130 152 162 4 349 375
          535 5 41 52 100 209 222 234 317 358 359 6
          239 350 403 7 175 298 304 8 207 9 189 246
          482 10 55 70 273 339 11 33 62 387 12 184
          381 523 13 93 119 137 263 457 14 28 94 127
          337 15 77 79 16 306 17 140 553 18 532 19
          107 122 150 170 226 342 369 373 507 549 20 285
          436 21 22 159 23 294 24 195 332 538 25 289
          26 27 102 376 397 463 542 205 492 29 31 160
          281 284 361 371 433 454 30 128 235 253 120 181
          368 32 141 297 67 113 215 266 271 292 34 38
          39 203 525 547 548 35 76 291 36 46 89 270
          422 37 58 256 510 251 327 40 227 427 42 341
          43 533 44 386 434 448 45 155 242 364 393 513
          312 47 336 380 527 370 49 474 50 51 193 466
          98 356 53 68 413 459 54 104 250 56 88 169
          182 212 238 287 372 409 425 465 489 57 124 139
          335 59 121 379 60 61 72 153 163 228 279 355
          407 478 328 63 71 255 64 192 325 340 487 488
          65 166 66 322 419 491 136 347 367 528 69 198
          220 442 499 73 74 385 395 485 75 135 78 483
          505 138 171 438 520 80 249 305 320 338 426 435
          473 81 82 83 84 545 86 158 217 87 311 293
          420 428 480 504 90 91 109 92 290 319 537 456
          95 362 96 97 154 252 99 484 103 300 301 450
          105 210 106 429 334 345 108 462 110 161 229 455
          111 441 112 440 114 129 365 390 467 115 445 116
          241 117 118 268 277 326 443 476 230 299 391 344
          346 225 123 555 125 405 126 374 232 275 172 131
          351 398 132 133 243 134 188 382 165 313 331 475
          142 354 143 144 145 191 415 146 190 310 490 147
          148 512 149 151 288 186 458 156 417 157 223 214
          244 437 164 501 167 260 168 496 262 303 353 366
          384 418 550 503 173 506 174 224 176 308 177 178
          179 180 183 185 280 187 245 204 508 194 421 197
          272 202 199 200 219 201 218 357 206 208 423 396
          451 464 213 216 221 416 383 408 486 531 274 296
          536 469 258 314 329 552 309 468 231 276 316 233
          236 541 237 404 240 254 278 461 318 333 412 479
          247 481 248 307 449 446 257 259 348 261 264 265
          315 267 460 269 414 516 430 514 530 282 283 539
          377 302 394 406 511 524 493 424 554 321 323 330
          352 410 343 522 494 399 495 360 363 432 411 526
          544 378 546 517 519 388 389 392 400 540 401 402
          477 472 471 518 543 534 431 470 439 529 444 498
          452 497 509 515
        </DataArray>
        <DataArray type="Float32" Name="conductionSource" NumberOfComponents="1" format="ascii">
          0.009977 0.000707978 0.0153001 0.00727063 -7.4537e-05 0.00205373 0.00114179 -6.50215e-05 3.42817e-05 0.00105339 0.000189276 0.0019007
          0.000182247 -1.38596e-05 0.0018592 0.000176173 0.00146739 0.000166259 -4.76099e-05 0.000105432 0.00158419 0.000130865 -0.000178476 1.81494e-05
          0.00426583 0.000436285 5.67895e-06 0.000188211 8.68668e-05 0.000207916 0.000303215 -4.90971e-05 0.000503141 0.0001069 0.000890652 0.00153561
          0.0025615 0.0134342 0.0127993 -4.42026e-07 1.89221e-05 3.15914e-06 -0.000310217 3.04399e-05 9.1731e-05 9.96757e-06 1.10887e-05 0.000987092
          1.08512e-06 3.62557e-05 2.00894e-07 4.57614e-05 0.00033863 7.46958e-06 4.49539e-05 0.00708098 0.00190178 0.00660713 0.00114068 0.000217723
          0.000441596 0.00211975 0.0076949 -0.000560168 0.00151241 0.00420191 0.000593348 0.00190477 -0.000647823 -0.000249082 0.00705553 -0.00347556
          -0.00551362 -0.00111573 -0.000563794 0.0188342 -2.27094e-05 0.00215058 -3.67093e-06 -0.00322296 0.000167524 0.00105475 0.0149826 0.00103904
          0.000334871 0.00144798 0.000346487 -2.65223e-05 0.000137958 6.62531e-05 -1.13067e-06 0.00227035 5.16061e-05 -0.00014513 0.000598437 0.000442871
          0.0036718 0.00102669 -8.02093e-06 4.72356e-05 -7.96384e-06 0.000269281 0.000975558 0.00292672 0.0303847 0.00565409 0.000410943 0.00142375
          -0.000666266 -0.000163265 -1.90196e-05 -0.000140514 2.35397e-05 0.000380286 0.000946605 -0.00198418 0.00951845 0.000495527 0.000525038 -1.00304e-05
          7.035e-06 2.48088e-05 0.000189906 8.50796e-05 0.000657426 5.81761e-06 0.000348659 0.000215176 -3.95861e-06 0.000826914 0.000134812 0.000427684
          7.53641e-06 0.00352867 0.00871266 0.000729378 0.000150728 0.000678685 0.000633467 0.0013229 0.00290159 0.0105406 0.00800744 -0.000329291
          0.000721415 0.00187926 0.00453249 -2.68904e-05 0.000565601 3.4684e-06 0.000490482 0.000398023 0.00154063 0.000584534 0.00363827 0.000250219
          0.00063292 0.000113773 8.69945e-05 0.000154542 1.21505e-05 0.000483894 0.000264777 0.000154663 0.000677115 0.00115734 -1.97322e-06 0.00041724
          -3.92598e-06 0.000555093 7.646e-06 1.49632e-05 1.68338e-06 2.79722e-05 0.0202727 -0.00355586 0.00479706 0 0.00813847 0.00150245
          3.22011e-05 0.00414999 0.00372449 0.000446255 0.000956929 7.74226e-05 -9.25172e-05 0.00679149 3.29027e-05 0.000207072 -3.30742e-05 0.000484968
          2.23638e-05 0.000158827 -6.7934e-05 0.00912824 0.000171817 -0.00929461 1.0344e-05 -3.13944e-05 7.79007e-06 0.00093973 5.51671e-05 -0.00041952
          8.2103e-07 0.000434218 3.13739e-05 -2.14064e-06 5.85577e-05 0.000971501 0.000367168 0.000702815 0.000134762 0.000863458 0.0019445 -0.002359
          0.000108851 -0.000581201 -0.00308721 -0.00258099 4.78998e-06 0.00123597 0.000526417 -2.91617e-05 3.15117e-05 0.00159188 0.0013962 0.000107043
          0.00659918 0.000295429 0.000179622 -0.00246748 -0.00378254 -0.00636877 0.000347994 4.75475e-05 3.53563e-05 8.35488e-06 0.000323678 1.79261e-06
          0.000815039 7.99409e-05 -3.76481e-06 0.00113188 -0.000154493 -1.05477e-05 0.00430499 0.00686157 0.00802099 0.00286937 0.000158199 -2.14861e-05
          -0.00440009 -0.00238463 0.000112333 -0.000638483 0.00744835 0.00132847 0.000339028 -9.04611e-05 9.08357e-05 0.000142854 0.000669447 0.000150665
          0.000145547 0.00117826 -6.02908e-06 0.0123767 -0.0184299 0.000251506 2.71867e-05 3.23326e-06 6.90691e-07 0.00037025 0.000331 3.40461e-05
          3.23084e-05 9.34104e-08 0.00232392 4.83999e-06 0.000100259 0.000375715 -1.17888e-08 0.000101461 -5.11483e-06 8.43722e-06 -0.000177271 0.000269267
          0.0152 -2.22057e-05 0.00110006 0.00116526 -8.714e-06 0.000100876 0.000733219 3.64255e-05 -2.75749e-05 0.000273924 -3.43699e-06 -7.71492e-05
          2.89519e-05 2.0143e-06 1.17492e-05 -7.67966e-06 2.62938e-05 0.000571272 -1.30606e-05 0.000122048 0.000305682 0.000979644 -9.33927e-05 0.00131542
          3.28885e-06 0.000305598 0.000106061 -0.00044791 0.000148796 0.000338528 0 0 0.000340102 0.000141977 0.000741196 8.2787e-05