<?xml version="1.0"?>
<VTKFile type="UnstructuredGrid" version="0.1" byte_order="LittleEndian">
  <UnstructuredGrid>
    <Piece NumberOfCells="28948" NumberOfPoints="14815">
      <PointData Scalars="p">
        <DataArray type="Float32" Name="p" NumberOfComponents="1" format="ascii">
          0.000107379 0.000242023 9.79375e-05 0.0139009 0.0138208 0.0138926 0.021137 0.0199008 0.0211392 0.020056 0.0204876 0.0196142
          0.0154526 0.0153205 0.0155261 0.115143 0.111814 0.115788 0.026546 0.0262127 0.0263861 0.0254862 0.0255822 0.0253372
          0.124396 0.125023 0.123145 0.0146779 0.0150197 0.0147565 0.0813407 0.0838862 0.0873091 0.0138724 0.0135887 0.0138473
          0.0264074 0.0121653 0.0126047 0.0124583 0.0174628 0.0174784 0.0176661 0.0248515 0.0291379 0.028332 0.0162308 0.0161033
          0.0163307 0.0252865 0.0790379 0.0784757 0.0790919 0.0303201 0.0304048 0.0304498 0.0263668 0.0275376 0.0218876 0.0297239
          0.0299562 0.0298818 0.00675974 0.00690423 0.00691468 0.0194939 0.0194092 0.0196183 0.0247481 0.0248536 0.0246357 0.0967241
          0.099246 0.0957682 0.0595455 0.0590481 0.0589726 0.0140985 0.0142062 0.0143288 0.00674531 0.0142387 0.00593886 0.00607074
          0.0060643 0.05888 0.0566745 0.0561453 0.00369552 0.00386285 0.00374124 0.0611307 0.061962 0.0620035 0.00017151 0.000115938
          -1.78838e-05 0.00384099 7.27994e-05 0.0302758 0.0139748 0.0651175 0.0638555 0.0629712 0.0140808 0.0135152 0.0692477 0.0737004
          0.0685123 0.0619538 0.0618885 0.0618352 0.0105683 0.0105465 0.0104261 0.0280463 0.0282453 0.027947 0.0162009 0.00653098
          0.00653184 0.00636493 0.00138431 0.00127718 0.00120439 0.000219504 7.37923e-05 0.000142005 0.0292055 0.029044 0.0289156 0.00639263
          0.00896653 0.00847566 0.00817386 0.0252588 0.0252396 0.0245982 0.0250305 0.0255457 0.0254094 0.0270052 0.0271212 0.0272663
          -0.00362886 -0.00275895 -0.00432575 0.0249011 0.025118 0.0249938 0.0541963 0.00561208 0.00517641 0.00631248 0.0154046 0.0151721
          0.0125378 0.0125438 0.0127115 0.00170533 0.00319803 0.00383808 0.0939923 0.0293768 0.0296511 0.0294603 0.0269375 0.0265508
          0.0270263 0.0118107 0.0117741 0.0116506 0.0491602 0.0473851 0.0516904 0.0656578 0.0650973 0.0646391 0.0260635 0.0247615
          0.0260988 0.00749931 0.0075182 0.00767066 -0.00765896 -0.00839335 -0.00633488 0.0251723 0.0223009 0.0275932 0.0273758 0.0274917
          0.0303488 0.0657348 0.075185 0.0768412 0.0756244 0.0612312 0.0594344 0.0122302 0.116206 0.119249 0.118995 0.00551437
          0.00566774 0.0056509 0.0262383 0.0261037 0.0261783 0.0278466 0.0281125 0.00183608 0.00197219 0.00194148 -0.00936979 -0.00915765
          -0.010546 0.0303377 0.0301923 0.0303575 0.105019 0.101335 0.10265 0.0379842 0.0372357 0.0386709 0.0295154 0.0291802
          0.0293462 0.00390006 0.00402518 0.00388149 0.0265273 0.0264886 0.0265694 0.017769 0.0233471 0.0196788 0.0118302 0.0117943
          0.012695 0.0132079 0.0128361 0.0278565 0.0642506 0.0261695 0.0261154 0.0262173 -0.00746901 -0.00846127 -0.00685019 0.0262606
          0.0260855 0.0636361 0.0617659 0.0609728 0.0152704 0.0138876 0.0138437 0.0119738 0.00284442 0.00300864 0.00299799 0.125912
          0.0281279 0.0286333 0.0282584 0.00469738 0.00451685 0.00460278 0.0299012 0.0296701 0.0297003 0.0151095 0.0095564 0.00941124
          0.0095518 0.021478 0.0215761 0.0216746 0.00102463 0.00088267 0.00102639 0.00400581 0.016291 0.0184467 0.0158555 0.0129995
          0.0129305 0.0128233 0.0128852 -0.0107169 0.00619672 0.00633393 0.00617905 0.0506335 0.0510822 0.0519518 0.000237965 0.00916322
          0.00124759 3.71056e-05 -0.00226509 0.00628677 0.0424095 0.0425398 0.0409801 0.0127204 0.0114469 0.0118231 0.0138733 0.0137581
          0.0139826 0.0150815 0.0148889 0.0149974 -0.0015332 -0.00106853 -0.00252185 0.111469 0.114813 0.1158 0.0795682 0.00571192
          0.0301953 0.0929891 0.0940877 0.0965808 0.049883 0.0138548 0.0128726 0.012991 0.0130473 0.00335135 0.00348365 0.0033378
          0.0256379 0.024339 0.0242386 0.0148953 0.0135303 0.0134242 0.0133046 0.0959908 0.0615493 0.061679 0.0248832 0.0133778
          0.0224224 0.0223265 0.0221775 0.0287564 0.000405142 0.000369742 0.000241664 0.00346102 0.00233327 0.00286295 0.00177014 0.0176954
          0.0175636 0.0177532 0.0368422 0.0416495 0.042118 -0.00210524 0.0224612 0.0226422 0.0226078 0.00511931 0.00526036 0.00524299
          0.0123085 0.0122018 0.01238 0.0771017 0.00963 0.0096269 0.00980092 0.00123042 0.00122562 0.00113092 0.00888693 0.00919792
          0.00777616 0.100945 0.103926 0.104948 0.0130603 0.0182534 0.0182365 0.0180821 0.023964 0.0241578 0.0240001 0.0173231
          0.0402455 0.0388795 0.0426929 0.0154414 0.0152618 0.0154423 0.0113378 0.0113745 0.0112254 0.0114601 0.0297024 0.0295399
          0.0293591 0.010722 0.0106176 0.0113065 0.0168375 0.017055 0.0176752 0.0601109 0.0602643 -0.00496977 -0.00364897 -0.00342486
          0.00551836 0.00538787 0.0053505 0.073601 0.0747351 0.0720276 0.0152952 0.000283264 0.000255784 0.000139072 0.0158734 0.0156533
          0.0154372 0.0217885 0.0222768 0.0214298 0.0294107 0.0252331 0.00554382 0.0254573 0.0258248 0.0252292 0.0200248 0.0200167
          0.0202097 0.0268361 0.0267208 0.0267449 0.00579753 0.00591879 0.0953999 0.10043 0.0961313 0.120086 0.115748 0.117582
          0.0283172 0.00350211 -0.000140407 0.00223627 0.121639 0.00577772 0.0279631 0.027743 0.0280637 0.0116151 0.0974311 0.093643
          0.0964268 0.0732698 0.0749853 0.0737796 -0.00158984 -0.000359629 -0.000572244 0.0947892 0.113372 0.0129722 0.0222641 0.0187558
          0.0188475 0.018648 0.0221572 0.0220319 0.0222203 0.0287218 -0.00447652 -0.00258799 -0.00444435 0.0437074 0.0413632 0.0427759
          0.00738821 0.0270712 0.0284013 0.0311507 0.101311 0.0979193 0.000343801 0.000330486 0.00021417 0.0210062 0.014583 0.0147515
          0.0147444 0.0106944 0.0102176 0.0109179 0.0119622 0.0117776 0.00184182 0.00181279 0.0016994 0.024636 0.0247564 0.0247533
          0.0275032 0.0272633 0.0273118 0.013881 0.0297312 0.0139947 0.0208521 0.109654 0.0303217 0.0331246 0.0306169 0.0990521
          0.019766 0.0202852 0.0194925 0.0406507 0.0145263 0.0144938 0.0143664 0.00308521 0.0722262 0.0708145 0.0719744 0.0160304
          0.0160937 0.0162498 0.0178279 0.0177292 0.0176245 0.0131092 0.0135612 0.0132774 0.076672 0.0170667 0.0171423 0.0169415
          0.013665 0.0136074 0.0134947 0.0154737 0.0158626 0.0159638 0.00901146 0.0089002 0.00889762 0.00875056 0.0234137 0.0239639
          0.0226509 0.0786624 0.0273756 0.0272593 0.0271561 0.0656044 0.0699272 0.0723263 0.0260561 0.0127829 0.0107832 0.0123487
          0.0730346 0.0696749 0.0672452 0.0252762 0.0267246 0.025618 0.00550425 0.00538043 0.0223878 0.00819749 0.00808713 0.00823862
          0.0122661 0.0103482 0.0104686 0.0103494 0.0102053 0.0278017 0.0281295 0.0280028 0.00981485 0.0646412 0.0651265 0.0645307
          0.0184707 0.0179202 0.0121012 0.0119272 0.0119664 0.0239987 0.0244136 0.0246404 0.0645342 0.0634465 0.0666255 0.0655057
          0.121461 0.121287 0.030198 0.018007 0.0213144 0.0168554 0.0237875 0.0235995 0.0236975 0.0108991 0.0109323 0.0107813
          0.070948 0.0707446 0.0727202 0.0282359 0.0284461 0.00880835 0.00797964 0.0173986 0.018374 0.0168523 0.026724 0.0266209
          0.0266804 0.0815139 0.0788892 0.0803542 0.00319539 0.00330312 0.00335017 0.00090367 0.0110029 0.0284369 0.0286005 0.0286913
          0.0947084 0.0953596 0.0972446 0.0163424 0.01625 0.0119483 0.012622 0.01281 0.0274332 0.00536001 0.00945947 0.00682844
          0.0394455 0.0824962 0.0036726 0.00352284 0.00358693 0.0173144 0.01793 0.0173576 0.02334 0.0239466 0.023068 0.00919254
          0.00912424 0.00929242 0.020952 0.0212626 0.0276772 0.00429547 0.00444705 0.00442118 -0.0108329 0.0334896 0.0352876 0.0354863
          0.0160984 0.0129251 0.0130075 0.012824 0.0075296 0.00737456 0.00754403 0.00425566 0.00400662 0.0230145 0.0226282 0.0231472
          0.022781 0.0731424 0.0748619 0.0728454 0.0106492 0.0113208 0.0202355 0.0300731 0.0775775 0.0784773 0.0787146 0.0179659
          0.0159862 0.0165444 0.0160132 -0.00468697 0.0121715 0.0120542 0.0122121 0.0309062 0.0305405 0.0302123 0.00545043 0.00534175
          0.00548524 0.0359755 0.0586766 0.0594359 0.0601207 0.00328574 0.00939858 0.0119947 0.0113825 0.0114652 0.0115511 0.0176625
          0.0520779 0.0503738 0.0514591 0.0204372 0.0241263 0.0217485 0.0139902 0.0144776 0.0141781 -0.0100778 -0.0110574 -0.0114578
          0.0597041 0.0403237 0.041837 0.0433761 0.0207262 0.0204932 0.020684 0.0295517 0.0778082 0.0205581 0.0557964 0.0566308
          0.0569017 0.00523772 0.00503163 0.0274242 0.0276247 0.0277372 0.0278209 0.00182406 0.0186647 0.0187562 0.0185905 0.0292656
          0.0278228 0.00495286 0.00510278 0.0148162 0.0148263 0.0149844 0.027311 0.0270387 0.0271338 0.0233858 0.0235135 0.0724196
          0.0233169 0.0147013 0.0109171 0.00766272 0.0077302 0.00756068 0.0259386 0.0260067 0.0254401 0.0184709 0.00496346 0.116499
          0.0250475 0.0274454 0.0746697 0.0596235 0.00612526 0.00665337 0.00462738 0.0241953 0.0246573 0.017268 0.0142776 0.0144407
          0.0144401 0.0711719 0.0690285 0.070338 -0.00342307 -0.00402945 -0.00218414 0.0635768 0.0636052 0.0629567 0.0637711 0.0636374
          0.0202162 0.0219989 0.0011072 0.000959877 0.000945208 0.00437625 0.0269551 0.0270003 0.0268158 0.0123339 0.00528635 0.0576162
          0.0197177 0.0121386 0.0298598 0.0296652 0.0809504 0.084151 0.0787856 0.0221326 0.0203076 0.0212112 0.0123421 0.0124097
          0.0122271 0.00136426 0.0352697 0.0352882 0.0363952 0.0503327 0.0444863 0.0481835 0.0278596 0.0276687 0.027664 0.0295406
          0.0123446 0.0126806 0.0122362 0.0128226 0.013071 0.0127124 0.0332543 0.0325643 0.031957 0.107242 0.104485 0.106782
          -0.00527691 -0.00592738 7.91704e-05 0.000207528 8.49995e-05 0.0156969 0.0122201 0.0171987 0.0242744 0.0251076 0.0621047 0.0679631
          0.0188629 0.0243358 0.0241326 0.0242158 0.0224392 0.0232185 0.0231686 0.0104874 0.0763475 0.0105267 0.00986392 0.0100766
          0.0313644 0.0995396 0.0976671 0.100598 0.0204269 0.0200049 0.0196884 0.0104667 0.0107757 0.00983299 0.00704821 0.00527865
          0.0189183 0.0217511 0.00635531 0.0233872 0.0334141 0.0234027 0.0289819 0.0272043 0.0361778 0.0348705 0.0364144 0.00332917
          0.0031585 0.0032417 0.0027772 0.00285767 0.00270932 0.0274248 0.00838452 0.0226106 0.0230748 0.022227 0.0442709 0.0750807
          0.0105714 0.0224213 0.083018 0.0881704 0.0828354 0.0268766 0.0267374 0.0268718 0.028563 0.0287299 0.0241521 0.0152942
          0.00574039 0.029362 0.0278212 0.0130322 -0.00562469 -0.00278079 -0.0040608 0.0249101 0.0877549 0.0898673 0.0283431 0.02817
          0.0278631 0.0132903 0.0349167 0.00110781 0.0153953 0.0156583 0.00524782 0.00563967 0.00476758 0.0302651 0.0719 0.0777854
          0.0732782 0.0271183 0.0269406 0.0271133 0.0246729 0.0266293 0.0618767 0.0612158 0.0611552 -0.00106334 0.00536848 0.026185
          0.0262732 0.026172 0.0304437 0.0305242 0.0304238 0.031594 0.03244 0.0325958 0.0675574 0.070155 0.0696512 0.00747829
          0.00733759 0.00736281 0.0276157 0.0282987 0.0243343 0.0296258 0.0295228 0.0121672 0.0138239 0.0138321 0.0137875 0.00697054
          0.00685645 0.00679046 0.100196 0.0270093 0.0368477 0.0137149 0.120583 0.122333 0.120888 0.0167946 -0.00666411 -0.00808033
          -0.00821977 0.0112844 0.0115458 0.0292083 0.0396098 0.0659849 0.0669267 0.0672549 0.0264894 0.0324158 0.00233519 0.0023213
          0.00220029 0.0191113 0.00950793 0.0588292 0.0605613 0.0584849 0.0730076 0.0730742 0.071617 0.0857577 0.0294648 0.02923
          0.0293541 0.0630075 0.0268341 0.0886374 0.086457 0.0872677 0.0263167 0.0264227 0.0263832 0.101542 0.106097 0.107181
          0.0101413 0.0168645 0.0770382 0.0780129 0.0276784 0.0301008 -0.000310483 -0.00262914 -0.00198428 0.00998702 0.0100667 0.00989398
          0.0189018 0.0918936 0.016224 0.0157676 0.0234031 0.0235046 0.0233145 0.0714382 0.0699634 0.0685762 0.0246585 0.0209085
          0.0202438 0.0121356 0.0299142 0.0299523 0.00463743 0.00360782 0.00346886 0.0619046 0.020148 0.0868721 0.118858 0.0207391
          0.063186 0.109083 0.0292664 0.0323763 0.0523288 0.0530133 0.0526267 0.0220705 0.00173917 -0.000760972 0.0120618 0.0119031
          0.0138036 0.00662923 0.0254975 0.025644 0.0255257 0.07011 0.0278601 0.0191637 0.0189196 0.0191071 0.0189939 0.0113969
          0.0112595 0.0114181 0.0231836 0.0122862 0.0105921 0.0113533 0.0967938 0.00601108 0.00606222 0.00477848 0.0158637 0.0146547
          0.0153547 -0.00979283 -0.0101118 -0.00815673 0.0237667 0.0264335 0.0240208 0.064972 0.0649519 0.0644134 0.0269516 0.00455225
          0.0165598 0.0164157 0.0165791 0.0299803 0.0301264 0.0229365 0.0227138 0.0228343 0.00127576 0.0305131 0.0226625 0.024763
          0.0260501 0.0295956 0.0276611 0.0277624 0.0235976 0.0237099 0.0432887 0.0435345 0.0477624 0.0341726 0.034883 0.0363745
          0.0233843 0.0262681 0.0264977 0.0264387 7.89027e-05 0.0149685 0.0167466 0.0155576 0.0274371 0.0243174 0.0244306 0.0528167
          0.00959038 0.00974534 0.00971877 0.0611982 -0.00085324 0.0920679 0.0921361 0.0900254 0.00027014 0.0265741 0.0279795 0.0281223
          0.0282631 0.0315659 0.00693601 0.00613797 0.00706705 0.00616829 0.0265579 0.0266738 0.0506065 0.0128422 0.0130279 0.0233885
          0.0232001 0.0233136 0.0107555 0.0108645 0.0109514 0.0121145 0.0121123 0.0122701 0.0456763 0.00122408 0.00135523 0.00134792
          0.0245005 0.0243714 0.0250339 0.0264046 0.0261974 0.0282854 -0.00189103 0.000181456 -0.000792824 -0.00218246 0.00663757 0.00664542
          0.0730065 0.0754518 0.0734544 0.0138209 0.0141538 0.0141377 0.0139967 0.013963 0.0137177 0.0298859 0.0341378 0.032824
          0.00686283 0.0604253 0.0605429 0.00451308 0.0221559 0.0227419 0.0137628 0.00723761 0.00711103 0.00724592 0.000537764 0.000543082
          0.000425487 0.0123987 0.0120881 0.0127349 0.0145982 0.000426105 0.0713469 0.0101158 0.0123268 0.0267385 0.0266427 0.0265466
          0.0231778 0.0222734 0.00306818 0.00320711 0.00319392 0.000978116 0.00110508 0.00110038 0.027115 0.0813915 0.0796935 0.079495
          0.0923818 0.0292802 7.33863e-06 0.0348274 0.0314178 0.0326198 0.0198693 0.0172038 0.0193617 0.0273792 0.0271107 0.0154898
          0.0136968 0.013757 0.0135706 0.0299181 0.0297917 0.0296805 0.0207328 0.0200623 0.024181 0.0799452 0.0810384 0.0821783
          0.0256849 0.0268662 0.0295311 0.0115517 0.0116814 0.01152 0.0607513 0.0268087 0.0741038 0.0715967 0.00385904 0.0156403
          0.0414949 0.0409213 0.0426742 0.00749302 0.00403346 0.00419376 0.00417153 -0.0089853 -0.0104077 -0.0100737 0.0211526 0.0205662
          0.0212901 0.011487 0.0340133 0.0519274 0.000214406 0.00511167 0.0138076 0.0348941 0.0351416 0.0388764 0.00838367 0.00840654
          0.00853108 0.0133268 0.0149823 0.0150464 0.0145439 0.0143112 0.024047 0.0233822 0.0233363 0.00061754 0.000592123 0.000472587
          0.0085787 0.0347568 0.033108 0.000120201 0.0623378 0.0624141 0.0420198 0.0389427 0.0361895 0.0606285 0.0611628 0.0604772
          0.000119304 0.000270308 0.000112267 0.0876328 0.00954588 0.0505257 0.0460581 0.0439565 -0.0101977 0.0232192 0.0231079 0.0230407
          0.0241449 0.0244913 0.0623995 0.0602566 0.061752 0.0272268 0.0270413 0.0272463 0.0265971 0.00343171 0.00350942 0.00358196
          0.0810405 0.0262873 0.0214669 0.0213104 0.0215296 0.0178146 0.0175775 0.0177465 0.0176529 0.0778645 0.0778205 0.0800176
          0.0693619 0.0126558 0.0151303 0.0145699 0.0088741 0.0090247 0.0116215 0.0042997 0.00734676 0.00389355 0.0211014 0.0265195
          0.0265652 0.0265125 0.0772134 0.0830249 0.0808852 0.0105558 0.00867978 0.00680786 0.0436052 0.0447769 0.0425515 -0.00980716
          0.027691 0.0295489 0.0648843 0.0638657 0.0651805 0.0616261 0.00713795 0.00654572 0.0254735 0.0261453 0.0258428 0.0509178
          0.0231378 0.0285134 0.0284114 0.0223201 0.0221031 0.0222086 0.0112595 0.0305128 0.0748892 0.0759189 0.0769551 0.0637628
          0.0606437 0.00670173 0.00718343 0.00641355 0.00349387 0.0036417 0.00362515 -0.00923973 0.0107624 0.010757 0.0100897 0.079282
          0.0790818 0.0791758 0.0610903 0.0273312 0.0169541 0.0173106 0.0175915 0.0780503 0.00855877 0.0393026 0.0442447 0.0457528
          0.0421146 0.0356813 0.0244614 0.00429406 0.0759377 0.0744263 0.0755222 0.0146552 0.00310054 0.0486313 0.0088332 0.00801447
          0.00821027 0.00340445 0.00988587 0.0282565 0.0282873 0.0117775 0.0110917 0.0110375 0.00905713 0.0033388 0.00943557 0.00946124
          0.00931544 0.0386316 0.0370659 0.0399584 0.0299361 0.0320627 0.0294825 0.0294701 0.0127388 0.00600392 0.00520451 0.00625
          0.0265611 0.0265925 0.0266485 0.00522842 0.00328152 0.00648746 0.0283325 0.0283599 0.0278573 0.00309135 0.0277604 0.00410297
          0.0442662 0.0250395 0.00209843 0.0230534 0.0219043 0.0220501 0.0220297 0.0146073 0.0143384 0.014263 0.0505021 0.0512421
          0.00560842 0.0217605 0.0739936 0.0164353 0.0153488 0.019819 0.00625201 0.0146891 0.0141258 0.0143237 0.014383 0.0245088
          0.0287791 0.0290969 0.0298429 0.029861 0.0289638 0.0267158 0.0450713 0.0047778 0.00470243 0.00483273 0.0297842 0.0278701
          0.00411791 0.00424364 0.00408083 0.00277565 0.00282926 0.00291201 0.00462802 1.62027e-05 0.000177611 7.59563e-05 0.0744055 0.0640235
          0.0640961 0.0761138 0.0256033 0.0238116 0.0291889 0.0160305 0.0160436 0.0158873 0.0353886 0.0371893 0.0833194 0.0843069
          0.0824508 -0.00404647 0.02666 0.0267922 0.0266741 0.0626854 0.012264 0.013497 0.0103881 0.0294488 0.0291725 0.0301183
          0.030106 0.0525811 0.0530809 0.0539496 0.00924173 0.00907907 0.00917264 0.0167981 0.016313 0.0162102 -0.000667339 -0.0015523
          0.0214292 -0.00740226 0.0113645 0.0112014 0.0112338 0.0821852 0.0785378 0.080705 0.019713 0.0198261 0.0199029 0.0517941
          0.0626474 0.00331247 8.00217e-05 0.0108693 0.0987367 0.0981866 0.10088 0.0299186 0.0296377 0.0297356 0.000313474 0.000235221
          0.00895656 0.0212907 0.0210828 0.0212057 0.0732732 0.0758451 0.00748465 0.0111614 0.0112177 0.0105183 0.0210266 0.0706372
          0.0669029 0.0668372 0.00975508 0.0263976 0.0112906 0.0106708 0.0110854 0.00653862 0.0537194 0.127164 0.0267988 0.0269335
          -0.00233949 0.0161671 0.0709792 0.0711138 0.00232866 0.00227298 0.00342916 0.0277033 0.00953686 0.00179743 0.0138082 0.0161422
          0.0185593 0.0127751 0.0129868 0.0266795 0.012658 0.0125619 0.0722542 0.0712831 0.108668 0.107053 -0.00264857 -0.00103139
          -0.00332462 0.0266711 0.00146416 0.00156657 0.00164328 0.00856251 0.0103893 0.0104544 0.0269219 0.0230933 0.00498079 0.0108987
          0.00839314 0.00827688 0.0275578 0.103308 0.101279 0.104951 0.0140207 0.0260354 0.025581 0.0262225 0.102605 0.00740555
          0.0123497 0.0299469 0.0301325 0.0299926 0.0292289 0.00700331 0.12312 0.0171481 0.0173224 0.0172922 0.0101704 0.010615
          0.00996266 0.0255222 0.0253268 0.0255082 0.072196 0.0169238 0.0434156 0.0104133 0.00717476 0.00691815 0.0138962 0.0792286
          0.0159245 0.0137641 0.0257188 0.0256736 0.0258591 0.0146637 0.01452 0.0144997 0.0103799 0.0366267 0.0369005 0.0357297
          0.0216644 -0.0044415 0.0237302 0.00772198 0.00671781 0.00416662 0.0634741 0.0615517 0.0579363 0.0592364 0.0659023 0.0573201
          0.057393 0.0790068 0.0296424 0.0297917 0.0295702 -0.00368423 -0.00180295 -0.00201219 0.0256886 0.089412 0.0901095 0.050923
          0.0469438 0.0449335 0.0298157 0.0157784 0.0159168 0.0157687 0.0183906 0.00712105 0.00801381 0.0273382 0.0835791 0.0810528
          0.0870999 0.0266269 0.0267546 0.0271755 0.00773916 0.00554886 0.102563 0.103243 0.100039 0.0780579 0.0211759 0.0210548
          0.0209755 0.0106839 0.0562998 0.0563064 0.0579816 0.00903295 0.0189979 0.0190031 0.0191756 0.0203598 0.0664643 0.0697025
          0.0688207 0.0243217 0.0243115 0.0114404 0.0127568 0.0125381 0.0203067 0.0740122 0.0744901 0.0728634 0.123747 0.0655406
          0.0193571 0.0188526 0.0267702 0.000236215 0.0231657 0.0236243 0.0241263 0.0172502 0.0183136 0.0263038 0.0261954 0.0261575
          0.00492643 0.00487875 0.0224949 0.0223777 0.0222919 -0.00991066 -0.008485 0.0295131 0.0293617 0.0293142 -0.00375966 0.0740455
          0.0315805 0.00126755 0.00683952 0.00729761 0.00603843 0.024263 0.0235061 0.0239078 0.0522586 0.0521451 0.0489328 0.0122688
          -0.000855511 0.000436779 0.0268756 -0.00176731 -0.000305731 -0.00081563 0.018299 0.0179626 0.0187184 0.0170798 0.0165232 0.0167293
          0.0298617 0.0145775 0.024939 0.0250704 0.0251061 0.0479928 0.00327926 0.0279813 0.026255 0.0222131 0.0108257 0.015667
          0.0158912 0.0237377 -0.0013462 -0.00230211 0.0013071 0.000725386 0.000132407 -0.00847551 0.000122132 -0.00276819 -0.0013898 0.023173
          0.022183 -0.00950296 0.0330538 0.0306 0.029367 0.00586404 -0.00949088 0.0277967 0.0278758 0.0276325 0.0640536 0.0414097
          0.0403471 0.0974702 0.00397518 0.0626804 0.0631298 0.094368 0.0936737 0.098881 0.0173393 0.0180129 0.0178172 0.0156342
          0.015653 0.0551989 0.0546701 0.0536314 0.0406544 0.0269853 0.0547896 0.0544741 0.0566826 0.0120951 0.0118374 0.0537722
          0.00300178 0.0190523 0.0183292 0.0185538 0.00721785 0.0110722 0.0240666 0.00708653 0.0069669 0.0071198 0.0129219 0.0131934
          0.0128187 0.0858377 0.083689 0.0177789 0.00282642 0.0285925 0.0284918 0.0797209 0.0787104 0.0318752 0.070715 0.0266369
          0.026659 0.0265685 0.0558591 0.000143701 0.0157397 0.0640995 0.00936837 0.000204682 0.000310355 0.000311595 0.016645 0.0165506
          0.0167468 0.0257424 0.0258467 0.0258662 0.0785447 0.0228096 0.0280509 0.0142735 0.0151396 0.0126932 0.0268561 0.015495
          0.0139342 0.014084 0.0140932 0.000248609 0.0105009 0.0106059 0.0106888 0.0577484 0.00961121 0.0787732 0.0275915 0.0276325
          0.00444658 0.0195585 0.0712272 0.0154251 0.0186329 0.0167838 0.02235 0.014955 0.0151056 0.0150055 0.0560942 0.0551481
          0.0562552 0.00355813 0.0279636 0.0281511 0.0282345 0.0631424 0.0134992 0.03044 0.0303899 0.0303232 0.0606155 0.0609416
          0.0607982 0.0565236 0.0563475 0.0678509 0.0696685 0.0999882 0.0973497 0.0947907 0.0146158 0.0725351 -0.00615351 -0.00491418
          -0.00617769 0.00765645 0.00216585 0.00556894 0.0220517 0.0139389 0.0177015 0.00910721 0.0350087 0.0324995 0.0368973 0.0301828
          0.0285412 0.0290951 0.0147729 0.0100419 0.0108417 0.00909287 0.00899713 0.00892645 0.0224772 0.0108843 0.0110545 0.0106003
          0.00127734 0.0531208 0.0262945 0.026369 0.0879953 0.0894712 0.0126466 0.0238179 0.0242878 0.0276852 0.0394562 0.0374277
          0.0225532 0.0224423 0.0226489 0.0225525 -0.000103577 0.0209522 0.0208019 0.0210126 0.027512 0.00695589 0.00679898 0.00681313
          0.0106716 0.0106632 0.0105083 -0.00141624 0.0474588 0.0954974 0.096659 0.0222737 0.0725554 0.0727387 0.0668048 0.0598394
          0.0593849 0.0611348 -0.00751887 0.0233272 0.0236199 0.0239218 0.0248715 0.0511826 0.0440444 0.0468418 0.0180594 0.0087871
          0.0087757 0.00865977 0.0106969 0.0108616 0.0139021 0.0239768 0.101165 0.0713751 0.0616999 0.0618878 0.00383676 0.00683053
          0.00547517 0.0719002 0.0711233 0.0665988 0.000103702 0.0001024 0.0322769 0.0148217 0.0146178 0.0147663 0.0219223 0.0218719
          0.0123342 0.0436075 0.0146709 0.0210215 0.0201831 0.0204627 0.11366 0.112526 0.115088 0.0128749 0.0125567 0.0129842
          0.0175174 0.00995565 0.00352954 0.0294393 0.0057772 0.10627 0.0268296 0.00475982 0.0135477 -0.00615193 -0.00617094 -0.00478975
          0.00814489 0.00797135 0.000203692 0.0155235 0.0153921 0.015393 0.0575193 0.0569041 0.0579547 0.118827 0.118807 0.0188187
          0.00122362 -0.000271099 -0.00149275 -0.000182483 0.0209663 0.0209215 0.0207759 0.0139725 0.0133881 0.0134407 0.0345379 0.104653
          0.104354 0.000674948 0.0266116 0.0265444 0.0266712 0.00892665 0.112275 0.110774 0.113248 0.00321043 0.00683898 -0.0032624
          0.0113678 0.0112876 0.0117602 0.00097799 -0.00514037 -0.00671431 -0.0051238 0.0105104 0.010625 0.00257495 0.00264152 0.00248478
          0.0794639 0.0193709 0.0234829 0.0199088 0.0414694 0.0243736 0.0422666 0.0379005 0.0406356 0.026077 0.0188875 0.0181436
          0.0191498 0.0929798 0.0136892 0.0142632 0.00277674 0.00266863 0.0135865 -0.00100145 0.000112145 0.0124145 0.01117 0.0110087
          0.0110384 0.0152551 0.0173843 0.018884 0.0254747 0.0259305 0.0254429 0.0364202 0.0391095 0.0137749 0.0148176 0.0239856
          0.0241658 0.0241286 0.00314347 0.00233879 0.00201394 0.0230811 0.0206103 0.0278005 0.0278918 0.0276018 0.0672342 -0.00546884
          -0.00721991 -0.00656369 0.00196144 0.0290591 0.016373 0.0164498 0.00246159 0.0270829 0.0272837 0.0272948 0.0389929 -0.00116682
          -0.0023503 0.00996305 0.0322629 0.0258352 0.0377299 0.0394666 0.035633 0.00668749 0.0138836 0.0139337 0.0140658 0.000735316
          0.0810412 0.0788593 0.0795551 0.0570791 0.0601222 0.0631521 0.0274224 0.0277032 0.0017175 0.0780254 0.00613771 0.00625779
          0.00631469 0.0126398 0.00708645 0.0314973 0.0295396 0.0317032 0.00255234 0.00259783 0.00271462 0.0170741 0.016476 -0.00381858
          -0.00285149 0.0132749 0.0131171 0.0132113 0.0206922 0.0207986 0.0205594 0.0270918 0.106427 0.0571245 0.0562339 0.0565403
          0.0174557 -0.00573899 0.0576041 -0.006775 0.0130102 0.0230362 0.0184372 0.017987 0.0177645 0.00381813 0.043255 0.048632
          -0.00659618 -0.00503064 -0.00681115 0.0130334 0.00143223 0.0296515 0.0297806 0.00981665 0.0195955 0.0202959 0.00488786 0.00491541
          0.00504074 0.0278651 0.0378523 0.0566882 0.0577145 0.0576654 0.000203625 0.0845013 0.0637952 0.0637894 0.06361 0.0473975
          0.0453997 0.0217489 0.0216187 0.0215763 0.0266059 0.0105123 0.0503395 0.0503118 0.0520707 -0.00839052 -0.00855696 0.0063476
          0.0608015 0.0608796 0.0623553 0.00724322 0.0310556 0.0249372 0.0298677 0.119803 0.0868127 0.0845531 0.0879103 0.0578668
          0.0654218 0.0278288 0.028007 0.0280685 0.0458617 0.0464511 0.0474482 0.0116234 0.023975 0.0213761 0.0279273 0.110837
          0.109302 0.0273955 0.0276643 0.027553 0.0280669 0.0391392 0.0186625 0.0180864 0.0182916 0.003058 0.0263793 0.0262807
          0.0263345 0.0205468 0.0213884 0.0224848 0.0259544 0.0204598 0.012146 0.0122277 0.0120193 0.0607685 0.0357378 0.0365003
          0.0371335 0.015857 0.0541905 0.0555369 0.0267083 -0.00452242 0.0263436 0.0010117 0.00201875 0.000653085 0.00945321 0.00914284
          0.00862392 0.0122844 0.116578 0.116507 0.121673 -0.00478774 0.0118818 0.0152636 0.0131086 0.0987273 0.0148524 0.0132895
          0.0103129 0.0627888 0.0882116 0.0906185 0.0931991 0.00770477 0.0994836 0.0265493 0.0260804 0.0261331 0.0304249 0.0285528
          0.0287028 0.0282163 0.0282654 0.0278674 0.00523743 0.0120719 0.0300039 0.0300235 0.0108086 0.0109003 0.0109779 0.0277474
          0.0274604 0.0279434 0.01169 0.011781 0.0116109 0.0141864 0.028492 0.0199754 0.0197777 0.0198712 0.0713932 0.0211585
          0.0142337 0.0142084 0.0671609 0.0676136 0.0633158 0.0261061 -0.00790905 0.0773531 0.0272987 0.015117 0.0304343 0.0274352
          0.027432 0.00292223 0.0156591 0.0155135 -0.000588064 -0.00687018 -0.00588283 -0.00746847 -0.00849044 0.0685997 0.0347522 0.0627744
          0.0280222 0.0272829 0.0272803 0.0104332 0.0172631 0.0165897 0.0170185 0.0573983 0.0282233 0.0267005 0.0129105 0.050956
          0.0201077 0.0200052 0.000154681 0.000181837 0.00027361 0.126009 0.12648 0.12812 0.0140577 0.00951302 0.00953503 0.00967848
          0.014315 0.0164857 0.0158104 0.0164995 0.030641 0.0553606 0.0175001 0.0267238 0.0266259 0.00140928 0.00022869 -0.00602642
          0.0295981 0.0542511 0.0563289 0.0543639 0.00799983 0.00803005 0.00788073 0.0222159 0.0129596 0.0265849 0.0287331 0.0286264
          0.0289794 0.00084641 0.0635681 0.0634439 0.00129115 0.000178258 -0.000473262 0.0516726 0.0214018 0.0662138 0.0652198 0.0665321
          0.0267504 0.0268827 0.0229959 0.000199476 0.0015022 0.0185815 0.00169701 0.00157076 0.00158477 0.0450945 0.00146599 0.0252231
          0.0252667 0.0259525 0.0212168 0.027238 0.0274707 0.0275018 0.0265417 0.0197861 0.0197641 0.00417866 0.0037367 0.00284727
          0.0703499 0.0699781 0.00259149 0.00245744 0.00247398 0.000220443 0.000117129 0.000251696 0.0426377 0.0439137 0.0267856 0.00721801
          0.00723053 0.00281016 0.00268061 0.00269367 0.0119992 0.0118073 0.0119382 0.0831366 0.082608 0.0118394 0.00235286 0.0143764
          0.014367 0.0142332 0.00471611 0.00474251 0.00485993 0.0234821 0.0226851 0.0232035 0.0230036 -0.0023641 0.0025702 0.0234798
          0.00488401 0.00486472 0.00476001 0.0305176 0.030566 0.0305163 0.0120257 0.0145029 0.00694522 0.00706766 0.00691761 0.0137689
          0.0122844 0.0122587 0.0118003 0.0111493 0.0110317 0.0105451 0.0947863 0.0136871 0.013822 0.0137872 0.0776508 0.0744912
          0.0779184 0.0148141 0.0146771 0.0139792 0.014145 0.0140409 0.0257137 0.0262969 0.0200077 0.0635079 0.0510731 0.0491515
          0.00496336 0.0483699 0.0820195 0.0840832 0.0149449 0.0145157 0.0145523 0.0266012 0.000243122 0.0170523 0.017286 0.0176487
          0.0248842 0.0627182 0.0624189 0.0625912 0.0123053 0.00897649 0.0122297 0.00826695 0.000222871 0.0574698 0.0553828 0.0102177
          0.00942019 0.0226128 0.0139138 0.0148384 0.0217773 0.0278681 0.0915522 0.00529674 0.124633 0.0287765 0.0289319 0.0291185
          0.009855 0.0601539 0.000759263 0.00142326 0.00144436 0.00156215 0.00243767 0.024016 0.0528312 0.0480705 0.0511267 -0.00467168
          0.0103546 0.0583412 0.0223668 0.00611825 0.0129052 0.00850947 0.0719716 0.0271918 0.0274376 0.0628173 0.0632001 0.0171298
          0.0171491 0.0633117 0.0630367 0.0631458 0.0297431 0.0294838 -0.000395594 0.0171706 0.0179236 0.117224 0.0829757 0.0170074
          0.0207825 0.0571639 0.0570135 0.00434976 0.00644145 0.00346079 0.0263673 0.000874131 0.000756764 0.000763785 0.0303395 0.0864218