<?xml version="1.0"?>
<VTKFile type="UnstructuredGrid" version="0.1" byte_order="LittleEndian">
  <UnstructuredGrid>
    <Piece NumberOfCells="163" NumberOfPoints="194">
      <CellData Scalars="wetting pressure">
        <DataArray type="Float32" Name="wetting pressure" NumberOfComponents="1" format="ascii">
          265458 270492 271903 270814 267728 262830 256080 247231 235753 220556 261911 264308
          264596 263003 259733 254875 248373 240052 229664 217043 260165 260234 259169 256869
          253326 248567 242484 234941 225809 215372 259056 257294 254979 251978 231423 223258
          214385 258197 254908 251476 221419 213674 257401 252664 248136 219418 212945 256523
          250209 244491 216738 212014 255381 247160 240090 234315 216931 213299 210763 253599
          242962 234393 227613 222297 217810 213773 210558 208765 208881 250028 236697 226909
          219447 213628 208951 205227 202767 202326 205255 250394 248320 245954 248011 249758
          247894 245928 247821 245900 243914 242212 244025 241777 239470 237992 240194 242068
          240348 238292 239989 238493 236431 234621 236544 246018 243475 241313 243739 245941
          243965 241913 243964 236961 234289 233053 235602 237759 236046 233607 235388 234181
          231771 230302 232526 234354 232545 230226 231929 240630 237514 235699 238638 241890
          239724 237322 239554 231564 227833 226847 230359 230583 228495 225624 228345 232645
          230889 227275 229186 229182 225627 223855 227454 229209 227124 223000 225296 225243
          221962 219651 222553 224755 222159 218479 220761
        </DataArray>
        <DataArray type="Float32" Name="nonwetting pressure" NumberOfComponents="1" format="ascii">
          265458 270492 271903 270814 267728 262830 256080 247231 235753 220556 261911 264308
          264596 263003 259733 254875 248373 240052 229664 217043 260165 260234 259169 256869
          253326 248567 242484 234941 225809 215372 259056 257294 254979 251978 231423 223258
          214385 258197 254908 251476 221419 213674 257401 252664 248136 219418 212945 256523
          250209 244491 216738 212014 255381 247160 240090 234315 216931 213299 210763 253599
          242962 234393 227613 222297 217810 213773 210558 208765 208881 250028 236697 226909
          219447 213628 208951 205227 202767 202326 205255 250394 248320 245954 248011 249758
          247894 245928 247821 246322 244499 242970 244605 242141 239700 238365 240723 242410
          240857 238637 240188 238938 236786 234918 236888 246018 243475 241313 243739 245941
          243965 241913 243964 237113 234391 233244 235870 237876 236279 233756 235450 234455
          231973 230467 232765 234612 232781 230388 232112 240630 237514 235699 238638 241890
          239724 237322 239554 231585 227833 226847 230465 230775 228583 225624 228438 232645
          230956 227275 229186 229288 225627 223855 227454 229295 227124 223000 225296 225243
          221962 219651 222553 224755 222159 218479 220761
        </DataArray>
        <DataArray type="Float32" Name="wetting saturation" NumberOfComponents="1" format="ascii">
          1 1 1 1 1 1 1 1 1 1 1 1
          1 1 1 1 1 1 1 1 1 1 1 1
          1 1 1 1 1 1 1 1 1 1 1 1
          1 1 1 1 1 1 1 1 1 1 1 1
          1 1 1 1 1 1 1 1 1 1 1 1
          1 1 1 1 1 1 1 1 1 1 1 1
          1 1 1 1 1 1 1 1 1 1 1 1
          1 1 1 0.957795 0.941519 0.924199 0.942029 0.963645 0.977041 0.962696 0.947118 0.965855
          0.949093 0.965542 0.980096 0.955508 0.964571 0.97032 0.965596 1 1 1 1 1
          1 1 1 0.984846 0.989793 0.980896 0.97323 0.988369 0.976687 0.985021 0.993797 0.972644
          0.979744 0.983492 0.976066 0.97417 0.976428 0.983835 0.981636 1 1 1 1 1
          1 1 1 0.997901 1 1 0.989436 0.980829 0.991157 1 0.990698 1
          0.993222 1 1 0.989461 1 1 1 0.991368 1 1 1 1
          1 1 1 1 1 1 1
        </DataArray>
        <DataArray type="Float32" Name="C^w from cellData" NumberOfComponents="1" format="ascii">
          199.956 199.956 199.957 199.956 199.956 199.956 199.955 199.954 199.953 199.952 199.956 199.956
          199.956 199.956 199.955 199.955 199.954 199.954 199.953 199.951 199.955 199.955 199.955 199.955
          199.955 199.954 199.954 199.953 199.952 199.951 199.955 199.955 199.955 199.954 199.952 199.952
          199.951 199.955 199.955 199.955 199.952 199.951 199.955 199.955 199.954 199.952 199.951 199.955
          199.954 199.954 199.951 199.951 199.955 199.954 199.953 199.953 199.951 199.951 199.951 199.955
          199.954 199.953 199.952 199.952 199.951 199.951 199.951 199.951 199.951 199.955 199.953 199.952
          199.952 199.951 199.951 199.95 199.95 199.95 199.95 199.954 199.954 199.783 199.836 199.954
          199.765 199.766 199.954 191.691 188.484 185.052 188.572 192.705 195.268 192.479 189.505 193.076
          189.882 193.03 195.824 191.095 192.806 193.895 193.007 199.952 199.952 199.944 199.965 199.954
          199.901 199.897 199.954 196.749 197.412 195.906 194.477 197.404 195.151 196.671 198.23 194.334
          195.622 195.953 194.967 194.637 195.04 196.001 195.97 199.952 199.952 199.947 199.972 199.953
          199.909 199.933 199.954 199.058 199.925 199.402 197.217 195.75 197.748 199.885 197.633 199.53
          198.12 199.77 199.953 197.138 199.65 199.951 199.076 197.617 199.086 199.944 199.776 199.935
          199.948 199.948 199.948 199.93 199.944 199.944 199.944
        </DataArray>
        <DataArray type="Float32" Name="C^n from cellData" NumberOfComponents="1" format="ascii">
          0 0 0 8.1688e-11 3.30532e-10 2.10203e-10 7.25531e-11 4.95282e-12 1.60058e-13 4.53703e-15 0 0
          0 1.94632e-08 8.40609e-08 4.2825e-08 1.86964e-08 1.93495e-09 4.45994e-11 7.93005e-13 0 0 0 1.79476e-06
          8.13052e-06 3.36869e-06 1.73339e-06 4.64387e-07 6.97029e-09 8.14645e-11 0 0 0 7.88682e-05 8.02896e-05 7.09973e-07
          5.67367e-09 0 0 0 2.1113e-05 1.41564e-07 0 0 0 3.40873e-06 1.09024e-08 0
          0 0 8.07309e-08 7.81069e-11 0 0 0 0 3.51654e-08 1.95384e-11 1.13412e-14 0
          0 0 0 0 0 0 0 0 0 0 0 0
          0 0 0 0 0 0 0 0.000292911 0.000452376 0.00499262 0.00350998 4.09699e-08
          0.00296232 0.0041665 4.38344e-07 0.0393822 0.0486184 0.0583898 0.0483377 0.0352946 0.0272495 0.0352752 0.044617 0.0340413
          0.0435005 0.0336906 0.0255461 0.039474 0.0339712 0.0304681 0.0334058 0.00015575 0.000117923 0.00161986 0.00200165 3.93284e-06
          4.19607e-06 3.86656e-06 3.58804e-06 0.0225265 0.0194669 0.0243487 0.0289536 0.0205938 0.0270516 0.0220956 0.017311 0.0291032
          0.0248463 0.0225756 0.026984 0.028268 0.0267852 0.0223774 0.0238102 8.1051e-05 6.40268e-05 0.000868755 0.00114447 0
          0 0 0 0.0147616 0.000676109 0.00698908 0.0193234 0.024109 0.0182455 0.000894339 0.0184816 0.00501333
          0.0172958 0.00199605 0 0.0192022 0.00368255 0.000130524 0.0128284 0.0181713 0.0125968 0.000104723 0.00195439 0.000231624
          8.56714e-05 8.56484e-05 8.5851e-05 0.000266536 0.000100017 0.000100004 0.000100007
        </DataArray>
        <DataArray type="Float32" Name="capillary pressure" NumberOfComponents="1" format="ascii">
          0 0 0 0 0 0 0 0 0 0 0 0
          0 0 0 0 0 0 0 0 0 0 0 0
          0 0 0 0 0 0 0 0 0 0 0 0
          0 0 0 0 0 0 0 0 0 0 0 0
          0 0 0 0 0 0 0 0 0 0 0 0
          0 0 0 0 0 0 0 0 0 0 0 0
          0 0 0 0 0 0 0 0 0 0 0 0
          0 0 0 422.048 584.809 758.014 579.707 363.548 229.591 373.038 528.823 341.446
          509.071 344.583 199.04 444.922 354.286 296.803 344.039 0 0 0 0 0
          0 0 0 151.544 102.068 191.04 267.699 116.307 233.125 149.792 62.0289 273.562
          202.564 165.078 239.336 258.302 235.722 161.648 183.644 0 0 0 0 0
          0 0 0 20.9925 0 0 105.644 191.711 88.4343 0 93.0243 0
          67.7821 0 0 105.392 0 0 0 86.321 0 0 0 0
          0 0 0 0 0 0 0
        </DataArray>
        <DataArray type="Float32" Name="wetting density" NumberOfComponents="1" format="ascii">
          999.78 999.783 999.783 999.783 999.781 999.779 999.776 999.771 999.766 999.759 999.779 999.78
          999.78 999.779 999.777 999.775 999.772 999.768 999.763 999.757 999.778 999.778 999.777 999.776
          999.774 999.772 999.769 999.766 999.761 999.756 999.777 999.776 999.775 999.774 999.764 999.76
          999.756 999.777 999.775 999.773 999.759 999.755 999.776 999.774 999.772 999.758 999.755 999.776
          999.773 999.77 999.757 999.755 999.775 999.771 999.768 999.765 999.757 999.755 999.754 999.775
          999.769 999.765 999.762 999.76 999.757 999.755 999.754 999.753 999.753 999.773 999.766 999.762
          999.758 999.755 999.753 999.751 999.75 999.75 999.751 999.774 999.773 999.78 999.779 999.773
          999.777 999.779 999.772 999.798 999.797 999.796 999.797 999.796 999.794 999.794 999.795 999.796
          999.795 999.794 999.795 999.794 999.793 999.792 999.793 999.771 999.77 999.772 999.774 999.771
          999.77 999.769 999.77 999.793 999.791 999.791 999.792 999.793 999.792 999.791 999.792 999.791
          999.79 999.789 999.79 999.791 999.79 999.789 999.79 999.768 999.767 999.768 999.77 999.769
          999.768 999.767 999.768 999.79 999.763 999.775 999.789 999.789 999.788 999.763 999.788 999.774
          999.789 999.766 999.763 999.788 999.768 999.761 999.786 999.788 999.786 999.76 999.765 999.761
          999.76 999.758 999.76 999.761 999.76 999.758 999.759
        </DataArray>
        <DataArray type="Float32" Name="nonwetting density" NumberOfComponents="1" format="ascii">
          3.25975 3.32168 3.33903 3.32563 3.28767 3.22742 3.14439 3.03553 2.89434 2.70741 3.21611 3.24561
          3.24914 3.22955 3.18932 3.12957 3.04958 2.94722 2.81944 2.66419 3.19463 3.19549 3.18239 3.15409
          3.11051 3.05197 2.97714 2.88436 2.77201 2.64363 3.18099 3.15932 3.13085 3.09393 2.84107 2.74064
          2.63149 3.17044 3.12997 3.08775 2.71801 2.62275 3.16064 3.10236 3.04667 2.6934 2.61378 3.14983
          3.07217 3.00183 2.66044 2.60232 3.13579 3.03467 2.94769 2.87666 2.66281 2.61813 2.58694 3.11386
          2.98302 2.87761 2.79421 2.72882 2.67362 2.62396 2.58441 2.56236 2.56379 3.06994 2.90595 2.78555
          2.69376 2.62218 2.56465 2.51883 2.48857 2.48315 2.51919 3.07444 3.04893 3.01982 3.04513 3.06662
          3.04369 3.01951 3.04279 3.02435 3.00192 2.98312 3.00323 2.97292 2.9429 2.92647 2.95548 2.97623
          2.95712 2.92982 2.9489 2.93352 2.90705 2.88407 2.90831 3.02061 2.98933 2.96274 2.99257 3.01966
          2.99536 2.97012 2.99535 2.91107 2.87759 2.86348 2.89578 2.92045 2.90082 2.86978 2.89062 2.87837
          2.84785 2.82932 2.85759 2.88031 2.85778 2.82834 2.84956 2.95433 2.91601 2.89368 2.92984 2.96983
          2.94319 2.91365 2.9411 2.84307 2.79692 2.78479 2.82929 2.83311 2.80615 2.76974 2.80436 2.85611
          2.83534 2.79005 2.81356 2.81481 2.76978 2.74798 2.79225 2.81491 2.78819 2.73747 2.76571 2.76506
          2.72469 2.69626 2.73197 2.75905 2.72712 2.68185 2.70993
        </DataArray>
        <DataArray type="Float32" Name="mobility w_phase" NumberOfComponents="1" format="ascii">
          765.842 765.844 765.845 765.845 765.843 765.84 765.837 765.832 765.826 765.818 765.84 765.841
          765.841 765.841 765.839 765.836 765.833 765.828 765.823 765.816 765.839 765.839 765.839 765.837
          765.835 765.833 765.83 765.826 765.821 765.815 765.838 765.837 765.836 765.835 765.824 765.819
          765.815 765.838 765.836 765.834 765.818 765.814 765.838 765.835 765.833 765.817 765.814 765.837
          765.834 765.831 765.816 765.814 765.836 765.832 765.828 765.825 765.816 765.814 765.813 765.836
          765.83 765.825 765.822 765.819 765.817 765.814 765.813 765.812 765.812 765.834 765.827 765.821
          765.817 765.814 765.812 765.81 765.809 765.808 765.81 765.834 765.833 765.831 765.833 765.833
          765.833 765.831 765.832 733.51 721.044 707.779 721.435 737.988 748.245 737.259 725.33 739.68
          726.842 739.438 750.585 731.754 738.694 743.096 739.479 765.832 765.83 765.829 765.83 765.831
          765.83 765.829 765.83 754.221 758.009 751.194 745.325 756.92 747.973 754.353 761.076 744.875
          750.311 753.181 747.495 746.044 747.772 753.444 751.76 765.829 765.827 765.826 765.828 765.829
          765.828 765.827 765.828 764.216 765.822 765.821 757.733 751.142 759.05 765.821 758.698 765.824
          760.633 765.822 765.823 757.751 765.821 765.82 765.822 759.212 765.822 765.819 765.821 765.82
          765.819 765.818 765.819 765.82 765.819 765.817 765.818
        </DataArray>
        <DataArray type="Float32" Name="mobility nw_phase" NumberOfComponents="1" format="ascii">
          0 0 0 0 0 0 0 0 0 0 0 0
          0 0 0 0 0 0 0 0 0 0 0 0
          0 0 0 0 0 0 0 0 0 0 0 0
          0 0 0 0 0 0 0 0 0 0 0 0
          0 0 0 0 0 0 0 0 0 0 0 0
          0 0 0 0 0 0 0 0 0 0 0 0
          0 0 0 0 0 0 0 0 0 0 0 0
          0 0 0 2389.68 3311.38 4292.25 3282.48 2058.63 1300.15 2112.53 2994.6 1933.46
          2882.75 1951.38 1127.13 2519.59 2006.41 1680.94 1948.38 0 0 0 0 0
          0 0 0 858.223 578.064 1081.99 1516.08 658.659 1320.26 848.367 351.295 1549.33
          1147.29 935.008 1355.54 1462.9 1335.07 915.58 1040.13 0 0 0 0 0
          0 0 0 118.899 0 0 598.37 1085.85 500.915 0 526.916 0
          383.916 0 0 596.961 0 0 0 488.937 0 0 0 0
          0 0 0 0 0 0 0
        </DataArray>
        <DataArray type="Float32" Name="mass fraction H2O in liq-phase" NumberOfComponents="1" format="ascii">
          1 1 1 1 1 1 1 1 1 1 1 1
          1 1 1 1 1 1 1 1 1 1 1 1
          1 1 1 1 1 1 1 1 1 1 1 1
          1 1 1 1 1 1 1 1 1 1 1 1
          1 1 1 1 1 1 1 1 1 1 1 1
          1 1 1 1 1 1 1 1 1 1 1 1
          1 1 1 1 1 1 1 0.999999 0.999998 0.999975 0.999982 1
          0.999985 0.999979 1 0.999927 0.999928 0.999928 0.999928 0.999929 0.999929 0.99993 0.999929 0.999929
          0.999929 0.99993 0.999929 0.99993 0.99993 0.999931 0.99993 0.999999 0.999999 0.999992 0.99999 1
          1 1 1 0.99993 0.999931 0.999931 0.999931 0.99993 0.99993 0.999931 0.999931 0.999931
          0.999932 0.999932 0.999931 0.999931 0.999931 0.999932 0.999932 1 1 0.999996 0.999994 1
          1 1 1 0.999932 0.999997 0.999965 0.999932 0.999932 0.999933 0.999996 0.999933 0.999975
          0.999932 0.99999 1 0.999932 0.999982 0.999999 0.999936 0.999932 0.999937 0.999999 0.99999 0.999999
          1 1 1 0.999999 1 1 1
        </DataArray>
        <DataArray type="Float32" Name="mass fraction H2O in gas-phase" NumberOfComponents="1" format="ascii">
          0.00288301 0.00282926 0.00281455 0.0028259 0.00285852 0.00291189 0.00298879 0.00309598 0.00324701 0.00347121 0.00292213 0.00289558
          0.00289242 0.00290998 0.00294668 0.00300294 0.00308171 0.00318875 0.00333328 0.00352753 0.00294178 0.00294099 0.0029531 0.00297959
          0.00302135 0.0030793 0.0031567 0.00325825 0.0033903 0.00355496 0.00295439 0.00297466 0.00300172 0.00303753 0.00330789 0.00342911
          0.00357135 0.00296423 0.00300256 0.00304361 0.00345766 0.00358326 0.00297342 0.00302928 0.00308465 0.00348926 0.00359555 0.00298362
          0.00305905 0.00313074 0.0035325 0.00361139 0.00299699 0.00309686 0.00318824 0.00326697 0.00352936 0.00358959 0.00363287 0.00301809
          0.00315048 0.00326588 0.00336338 0.00344398 0.00351507 0.00358161 0.00363641 0.00366771 0.00366567 0.00306128 0.00323403 0.00337382
          0.0034888 0.00358404 0.00366444 0.0037311 0.00377647 0.00378471 0.00373057 0.00305679 0.00308237 0.00311208 0.00308622 0.00306459
          0.00308768 0.0031124 0.00308859 0.00310742 0.00313064 0.00315037 0.00312927 0.00316118 0.00319343 0.00321136 0.00317984 0.00315767
          0.00317807 0.00320769 0.00318693 0.00320365 0.00323282 0.00325857 0.00323142 0.00311127 0.00314383 0.00317205 0.00314042 0.00311225
          0.00313749 0.00316416 0.00313751 0.00322835 0.00326591 0.003282 0.00324539 0.00321797 0.00323976 0.0032748 0.00325119 0.00326502
          0.00330002 0.00332163 0.00328877 0.00326283 0.00328855 0.00332278 0.00329804 0.00318107 0.00322288 0.00324775 0.00320767 0.00316447
          0.00319311 0.0032255 0.00319539 0.00330557 0.00336011 0.00337475 0.00332166 0.00331719 0.00334907 0.00339308 0.00335119 0.00329047
          0.00331458 0.00336838 0.00334023 0.00333875 0.00339303 0.00341996 0.00336573 0.00333864 0.00337063 0.00343309 0.00339803 0.00339883
          0.00344919 0.00348556 0.00344 0.00340623 0.00344612 0.00350429 0.00346798
        </DataArray>
        <DataArray type="Float32" Name="volume Error" NumberOfComponents="1" format="ascii">
          -2.27583e-08 -6.93375e-08 -1.17843e-07 -1.47792e-07 -1.58481e-07 -1.46861e-07 -1.12099e-07 -5.55755e-08 2.68623e-08 3.51876e-08 -3.39456e-08 -8.73268e-08
          -1.34488e-07 -1.68435e-07 -1.82928e-07 -1.72115e-07 -1.35145e-07 -7.93994e-08 -1.03915e-08 1.00627e-08 -3.5287e-08 -9.80698e-08 -1.53904e-07 -2.00932e-07
          -2.23159e-07 -2.14198e-07 -1.67677e-07 -1.05694e-07 -3.82032e-08 -2.93895e-09 -3.62851e-08 -1.06324e-07 -1.76666e-07 -2.50088e-07 -8.40771e-07 -5.86024e-08
          -1.24746e-08 -3.58704e-08 -1.09697e-07 -1.93105e-07 -7.39696e-08 -1.92047e-08 -3.22881e-08 -1.02566e-07 -1.86821e-07 -7.84415e-08 -2.34491e-08 -2.48667e-08
          -8.33301e-08 -1.53301e-07 -7.66852e-08 -2.6051e-08 -1.45788e-08 -5.78754e-08 -1.15727e-07 -1.61362e-07 -1.13778e-07 -7.53975e-08 -2.82847e-08 -1.66816e-09
          -2.7877e-08 -8.3873e-08 -1.23687e-07 -1.42823e-07 -1.42628e-07 -1.27401e-07 -1.03491e-07 -7.14495e-08 -3.02422e-08 2.2176e-08 8.54806e-09 -5.89027e-08
          -1.00728e-07 -1.22134e-07 -1.25406e-07 -1.14184e-07 -9.22939e-08 -5.88042e-08 -2.20235e-08 -5.11333e-07 -5.0741e-07 -0.00016762 -0.000116145 -4.97872e-07
          -0.00018754 -0.000185519 -5.16764e-08 0.00019218 0.000246356 0.000284381 0.000231739 3.04383e-05 -8.83365e-05 -7.19849e-06 0.000141412 -4.37763e-05
          0.000121856 -2.61172e-05 -0.000144326 4.79755e-05 -5.73239e-05 -0.000118392 -6.07498e-05 -2.34171e-06 -2.29019e-06 -8.9288e-06 1.22435e-05 -6.61519e-07
          -5.3324e-05 -5.65636e-05 -2.13652e-07 -0.000168118 -0.000497097 -0.00022347 -0.000118024 -0.000217511 -0.00013559 -0.000282288 -0.000477042 -0.000144577
          -0.000277679 -0.000702148 -0.000196561 -0.000146924 -0.000195727 -0.00072319 -0.000308267 -1.11537e-06 -1.16216e-06 -5.1674e-06 1.89516e-05 -4.54047e-07
          -4.46536e-05 -2.07135e-05 7.16669e-09 -0.00046762 -2.65575e-05 -0.000546114 -0.000621874 -0.000368373 -0.000432356 -6.65945e-05 -0.000455745 -0.000420112
          -0.000472386 -0.000181598 5.572e-08 -0.000706934 -0.000299852 -6.56882e-07 -0.000868784 -0.000607082 -0.000858796 -8.28145e-06 -0.000175463 -1.67064e-05
          -4.12711e-06 -3.65824e-06 -3.65827e-06 -2.24496e-05 -7.69202e-06 -7.22334e-06 -7.22336e-06
        </DataArray>
        <DataArray type="Float32" Name="Error Correction" NumberOfComponents="1" format="ascii">
          0 0 0 0 0 0 0 0 0 0 0 0
          0 0 0 0 0 0 0 0 0 0 0 0
          0 0 0 0 0 0 0 0 0 0 0 0
          0 0 0 0 0 0 0 0 0 0 0 0
          0 0 0 0 0 0 0 0 0 0 0 0
          0 0 0 0 0 0 0 0 0 0 0 0
          0 0 0 0 0 0 0 0 0 0 0 0
          0 0 0 0 0 0 0 0 0 0 0 0
          0 0 0 0 0 0 0 0 0 0 0 0
          0 0 0 0 0 0 0 0 0 0 0 0
          0 0 0 0 0 0 0 0 0 0 0 0
          0 0 0 0 0 0 0 0 0 0 0 0
          0 0 0 0 0 0 0 0 0 0 0 0
          0 0 0 0 0 0 0
        </DataArray>
        <DataArray type="Float32" Name="dv_dp" NumberOfComponents="1" format="ascii">
          -9.55392e-11 -9.5538e-11 -9.55376e-11 -9.55379e-11 -9.55386e-11 -9.55398e-11 -9.55415e-11 -9.55438e-11 -9.55466e-11 -9.55504e-11 -9.55401e-11 -9.55395e-11
          -9.55394e-11 -9.55398e-11 -9.55406e-11 -9.55418e-11 -9.55434e-11 -9.55455e-11 -9.55481e-11 -9.55512e-11 -9.55405e-11 -9.55405e-11 -9.55407e-11 -9.55413e-11
          -9.55422e-11 -9.55433e-11 -9.55449e-11 -9.55468e-11 -9.55491e-11 -9.55516e-11 -9.55408e-11 -9.55412e-11 -9.55418e-11 -9.55425e-11 -9.55474e-11 -9.55497e-11
          -9.55519e-11 -9.5541e-11 -9.55418e-11 -9.55426e-11 -9.55502e-11 -9.55521e-11 -9.55412e-11 -9.55424e-11 -9.55435e-11 -9.55507e-11 -9.55523e-11 -9.55414e-11
          -9.5543e-11 -9.55444e-11 -9.55513e-11 -9.55525e-11 -9.55418e-11 -9.55438e-11 -9.55455e-11 -9.55469e-11 -9.55513e-11 -9.55522e-11 -9.55528e-11 -9.55422e-11
          -9.55448e-11 -9.55469e-11 -9.55486e-11 -9.55499e-11 -9.5551e-11 -9.55521e-11 -9.55529e-11 -9.55533e-11 -9.55533e-11 -9.55431e-11 -9.55464e-11 -9.55488e-11
          -9.55506e-11 -9.55521e-11 -9.55533e-11 -9.55542e-11 -9.55548e-11 -9.55549e-11 -9.55542e-11 -9.55427e-11 -9.55432e-11 -9.5464e-11 -9.54881e-11 -9.55429e-11
          -9.54541e-11 -9.54556e-11 -9.55436e-11 -5.33778e-08 -6.68478e-08 -8.12421e-08 -6.64091e-08 -4.94968e-08 -3.90169e-08 -5.10198e-08 -6.32517e-08 -4.76432e-08
          -6.16082e-08 -4.86278e-08 -3.64403e-08 -5.67994e-08 -4.97848e-08 -4.5375e-08 -4.89179e-08 -9.5543e-11 -9.55436e-11 -9.5541e-11 -9.55505e-11 -9.55438e-11
          -9.55192e-11 -9.55182e-11 -9.55445e-11 -3.2983e-08 -2.91892e-08 -3.68196e-08 -4.27874e-08 -2.99707e-08 -3.98492e-08 -3.32699e-08 -2.57339e-08 -4.35198e-08
          -3.79746e-08 -3.50137e-08 -4.0949e-08 -4.22201e-08 -4.0645e-08 -3.47383e-08 -3.63519e-08 -9.55449e-11 -9.55456e-11 -9.55442e-11 -9.5555e-11 -9.55449e-11
          -9.55244e-11 -9.55365e-11 -9.55457e-11 -2.2598e-08 -9.55374e-11 -9.52959e-11 -2.99696e-08 -3.72327e-08 -2.86464e-08 -9.55282e-11 -2.90691e-08 -9.53504e-11
          -2.66751e-08 -9.54672e-11 -9.55483e-11 -3.00556e-08 -9.54139e-11 -9.55493e-11 -9.5148e-11 -2.84134e-08 -9.51533e-11 -9.55459e-11 -9.54726e-11 -9.55501e-11
          -9.55501e-11 -9.55501e-11 -9.55501e-11 -9.55504e-11 -9.55504e-11 -9.55504e-11 -9.55504e-11
        </DataArray>
        <DataArray type="Float32" Name="dV_dC1" NumberOfComponents="1" format="ascii">
          0.00100022 0.00100022 0.00100022 0.00100022 0.00100022 0.00100022 0.00100022 0.00100023 0.00100023 0.00100024 0.00100022 0.00100022
          0.00100022 0.00100022 0.00100022 0.00100022 0.00100023 0.00100023 0.00100024 0.00100024 0.00100022 0.00100022 0.00100022 0.00100022
          0.00100023 0.00100023 0.00100023 0.00100023 0.00100024 0.00100024 0.00100022 0.00100022 0.00100022 0.00100023 0.00100024 0.00100024
          0.00100024 0.00100022 0.00100022 0.00100023 0.00100024 0.00100024 0.00100022 0.00100023 0.00100023 0.00100024 0.00100024 0.00100022
          0.00100023 0.00100023 0.00100024 0.00100025 0.00100022 0.00100023 0.00100023 0.00100023 0.00100024 0.00100024 0.00100025 0.00100023
          0.00100023 0.00100023 0.00100024 0.00100024 0.00100024 0.00100024 0.00100025 0.00100025 0.00100025 0.00100023 0.00100023 0.00100024
          0.00100024 0.00100024 0.00100025 0.00100025 0.00100025 0.00100025 0.00100025 0.00100023 0.00100023 0.00100023 0.00100023 0.00100023
          0.00100023 0.00100023 0.00100023 0.000976209 0.000976209 0.00097621 0.000976209 0.00097621 0.000976211 0.000976211 0.00097621 0.00097621
          0.00097621 0.000976211 0.00097621 0.000976211 0.000976211 0.000976212 0.000976211 0.00100023 0.00100023 0.00100023 0.00100023 0.00100023
          0.00100023 0.00100023 0.00100023 0.000976211 0.000976212 0.000976212 0.000976212 0.000976211 0.000976212 0.000976212 0.000976212 0.000976212
          0.000976213 0.000976213 0.000976213 0.000976212 0.000976213 0.000976213 0.000976213 0.00100023 0.00100023 0.00100023 0.00100023 0.00100023
          0.00100023 0.00100023 0.00100023 0.000976213 0.00100024 0.00100024 0.000976213 0.000976213 0.000976214 0.00100024 0.000976214 0.00100024
          0.000976213 0.00100024 0.00100024 0.000976214 0.00100024 0.00100024 0.00100024 0.000976214 0.00100024 0.00100024 0.00100024 0.00100024
          0.00100024 0.00100024 0.00100024 0.00100024 0.00100024 0.00100024 0.00100024
        </DataArray>
        <DataArray type="Float32" Name="dV_dC2" NumberOfComponents="1" format="ascii">
          0.000622207 0.000622206 0.000622206 0.000622208 0.000622206 0.000622209 0.000622211 0.000622213 0.000622216 0.000622221 0.000622209 0.000622208
          0.000622209 0.00062221 0.000622209 0.000622212 0.000622213 0.000622216 0.000622218 0.000622222 0.00062221 0.000622209 0.000622209 0.000622209
          0.000622211 0.000622211 0.000622215 0.000622217 0.00062222 0.000622221 0.000622211 0.00062221 0.000622211 0.000622212 0.000622218 0.00062222
          0.000622222 0.00062221 0.000622211 0.000622212 0.000622221 0.000622224 0.00062221 0.000622212 0.000622213 0.000622222 0.000622227 0.000622211
          0.000622211 0.000622214 0.000622222 0.000622225 0.000622212 0.000622214 0.000622216 0.000622217 0.000622224 0.000622224 0.000622225 0.000622211
          0.000622215 0.000622219 0.000622219 0.000622221 0.000622223 0.000622224 0.000622225 0.000622224 0.000622224 0.000622211 0.000622216 0.000622221
          0.000622222 0.000622223 0.000622224 0.000622225 0.000622227 0.000622226 0.000622227 0.000622212 0.000622213 0.000622214 0.000622213 0.000622212
          0.000622213 0.000622214 0.000622213 0.331702 0.334167 0.336262 0.334024 0.337443 0.340921 0.34283 0.339428 0.337071
          0.339239 0.342432 0.340223 0.341989 0.345145 0.347944 0.344992 0.000622214 0.000622214 0.000622215 0.000622214 0.000622214
          0.000622214 0.000622214 0.000622214 0.344711 0.348854 0.350539 0.346522 0.343582 0.345897 0.349693 0.347204 0.34865
          0.352503 0.354978 0.351255 0.348402 0.351231 0.355106 0.352256 0.000622215 0.000622216 0.000622217 0.000622216 0.000622214
          0.000622215 0.000622218 0.000622216 0.353437 0.000622219 0.000622219 0.354969 0.354366 0.357724 0.00062222 0.357975 0.000622218
          0.353965 0.000622219 0.000622219 0.356784 0.00062222 0.00062222 0.000622219 0.356633 0.000622219 0.000622221 0.00062222 0.000622221
          0.000622221 0.000622221 0.000622221 0.000622221 0.000622221 0.000622221 0.000622221
        </DataArray>
        <DataArray type="Float32" Name="updEstimate comp 1" NumberOfComponents="1" format="ascii">
          8.30807e-08 2.39434e-07 3.67389e-07 4.94257e-07 6.00361e-07 6.75909e-07 7.09451e-07 6.87153e-07 6.17646e-07 2.83936e-07 6.36816e-08 2.21267e-07
          3.72031e-07 5.09557e-07 6.23209e-07 7.10672e-07 7.61022e-07 7.39753e-07 6.04244e-07 2.49383e-07 7.79013e-08 2.48601e-07 4.17798e-07 5.62675e-07
          6.70191e-07 7.98451e-07 9.09016e-07 9.32467e-07 7.175e-07 2.81161e-07 9.96794e-08 3.02541e-07 4.97264e-07 5.31208e-07 -0.000143178 9.71125e-07
          3.63758e-07 1.2783e-07 3.77684e-07 6.04819e-07 8.56966e-07 4.89795e-07 1.62989e-07 4.74811e-07 7.54262e-07 1.70865e-06 6.5132e-07 2.05137e-07
          5.93885e-07 9.50826e-07 0.0109467 7.6883e-07 2.51459e-07 7.2355e-07 1.17399e-06 1.67939e-06 2.23076e-05 2.24918e-06 7.25611e-07 2.98561e-07
          8.48838e-07 1.35506e-06 1.97203e-06 2.79222e-06 3.62609e-06 -0.00467809 3.10801e-06 1.92165e-06 6.30234e-07 3.6328e-07 9.59102e-07 1.4462e-06
          2.03397e-06 2.68748e-06 3.2035e-06 3.26297e-06 2.69982e-06 1.73745e-06 5.86111e-07 1.6957e-07 -6.02306e-08 6.73125e-05 0.000172493 7.20577e-07
          -8.2427e-05 -0.000107363 8.08674e-07 0.00675703 0.00298349 -0.0064144 0.00403388 0.00173254 0.00106927 -0.00748425 -0.00782644 0.00346593
          -0.0060704 -0.00487383 0.00292525 -0.0102863 -0.0106336 -0.0107582 -0.00954055 4.39734e-07 5.95427e-07 1.11521e-05 1.91023e-05 8.89693e-07
          -0.000203996 -0.000212412 1.02992e-06 0.000934798 -0.000499665 -0.00730891 -0.00700459 0.00317669 -0.00403429 -0.0044335 -0.00320505 -0.0104264
          -0.0106658 -0.0187306 -0.0113449 -0.0085654 -0.0105369 -0.017751 -0.00771974 7.98607e-07 9.81887e-07 -0.000154271 1.53144e-05 1.15796e-06
          -0.000218994 -0.000295041 1.30588e-06 -0.0159166 -0.00073583 -0.0132219 -0.0205368 -0.00588117 -0.0815966 -0.0176662 -0.0875004 -0.00627294
          -0.0240089 -0.00868815 2.29747e-06 -0.0413979 -0.013644 0.0702778 -0.0265637 -0.0465338 -0.0334963 -0.0384013 -0.00975452 0.0373733
          -0.236124 -0.00879155 0.218686 0.0656997 -0.167165 -0.0355438 0.134312
        </DataArray>
        <DataArray type="Float32" Name="updEstimate comp 2" NumberOfComponents="1" format="ascii">
          0 0 0 1.12099e-12 4.38399e-12 2.30958e-12 1.15711e-12 1.60294e-13 6.21582e-15 2.02528e-16 0 0
          0 1.8919e-10 7.91484e-10 3.44686e-10 1.99453e-10 6.53065e-11 1.71366e-12 3.39591e-14 0 0 0 1.09636e-08
          4.86143e-08 1.94476e-08 1.13346e-08 1.45236e-08 2.62097e-10 3.40961e-12 0 0 0 2.24996e-07 1.61045e-06 2.30631e-08
          2.10763e-10 0 0 0 8.37394e-07 4.46369e-09 0 0 0 3.78991e-07 5.56058e-10 0
          0 0 1.8239e-08 9.0351e-12 0 0 0 0 1.88956e-08 2.23783e-12 1.22782e-15 0
          0 0 0 0 0 0 0 0 0 0 0 0
          0 0 0 0 0 0 0 9.05659e-07 1.31773e-06 2.63915e-06 2.6949e-06 1.29436e-10
          -2.32938e-07 -2.36219e-06 1.14397e-09 -8.60228e-06 -7.74224e-06 4.14485e-06 -8.83215e-06 -2.60059e-06 -4.07303e-07 2.08959e-05 1.89955e-05 -6.18021e-06
          1.51046e-05 1.40629e-05 -5.05196e-06 2.82107e-05 3.12129e-05 3.27654e-05 2.81064e-05 6.49209e-07 4.94446e-07 4.52585e-06 4.88971e-06 -1.07364e-09
          -1.7459e-10 -1.29465e-09 -2.09105e-09 -2.68622e-07 4.05321e-06 2.14987e-05 1.93994e-05 -4.63691e-06 1.11854e-05 1.51885e-05 -7.39034e-07 3.04577e-05
          3.24804e-05 4.2447e-05 3.32875e-05 2.56296e-05 3.15676e-05 3.961e-05 2.92923e-05 3.73955e-07 2.94277e-07 5.32152e-06 4.95588e-06 0
          0 0 0 0.000107309 4.40257e-05 0.000191164 3.17099e-05 5.87705e-05 2.23247e-05 0.000287798 2.36158e-06 8.53457e-05
          2.00261e-05 0.000124719 0 3.47906e-05 0.000194557 5.17531e-06 0.000360606 3.03769e-05 0.000373834 4.3941e-07 0.00017251 0.000176861
          -1.01172e-07 -3.08494e-08 4.20294e-07 0.000213533 -8.36203e-08 -3.17105e-08 4.81745e-08
        </DataArray>
      </CellData>
      <Points>
        <DataArray type="Float32" Name="Coordinates" NumberOfComponents="3" format="ascii">
          0 0 0 1 0 0 0 1 0 1 1 0
          2 0 0 2 1 0 3 0 0 3 1 0
          4 0 0 4 1 0 5 0 0 5 1 0
          6 0 0 6 1 0 7 0 0 7 1 0