<?xml version="1.0"?>
<VTKFile type="UnstructuredGrid" version="0.1" byte_order="LittleEndian">
  <UnstructuredGrid>
    <Piece NumberOfCells="324" NumberOfPoints="1296">
      <PointData Scalars="S_aq">
        <DataArray type="Float32" Name="S_aq" NumberOfComponents="1" format="ascii">
          0.926385 0.5 0.926392 0.5 0.999924 0.926385 0.999924 0.926392 0.926364 0.5 0.926385 0.5
          0.999924 0.926364 0.999924 0.926385 1 0.999924 1 0.999924 1 1 1 1
          1 1 1 1 1 0.999924 1 0.999924 1 1 1 1
          1 1 1 1 0.92632 0.5 0.926364 0.5 0.999924 0.92632 0.999924 0.926364
          0.92624 0.5 0.92632 0.5 0.926091 0.5 0.92624 0.5 0.999923 0.92624 0.999924 0.92632
          0.999923 0.926091 0.999923 0.92624 1 0.999924 1 0.999924 1 1 1 1
          1 1 1 1 1 0.999923 1 0.999924 1 0.999923 1 0.999923
          1 1 1 1 1 1 1 1 1 1 1 1
          1 1 1 1 1 1 1 1 1 1 1 1
          1 1 1 1 1 1 1 1 1 1 1 1
          1 1 1 1 1 1 1 1 1 1 1 1
          1 1 1 1 1 1 1 1 1 1 1 1
          1 1 1 1 1 1 1 1 1 1 1 1
          1 1 1 1 1 1 1 1 1 1 1 1
          1 1 1 1 1 1 1 1 1 1 1 1
          0.925781 0.5 0.926091 0.5 0.999922 0.925781 0.999923 0.926091 0.924916 0.5 0.925781 0.5
          0.999919 0.924916 0.999922 0.925781 1 0.999922 1 0.999923 1 1 1 1
          1 1 1 1 1 0.999919 1 0.999922 1 1 1 1
          1 1 1 1 0.927603 0.5 0.924916 0.5 0.999932 0.927603 0.999919 0.924916
          1 1 0.927603 0.5 1 1 0.999932 0.927603 1 0.999932 1 0.999919
          1 1 1 1 1 1 1 1 1 1 1 0.999932
          1 1 1 1 1 1 1 1 1 1 1 1
          1 1 1 1 1 1 1 1 1 1 1 1
          1 1 1 1 1 1 1 1 1 1 1 1
          1 1 1 1 1 1 1 1 1 1 1 1
          1 1 1 1 1 1 1 1 1 1 1 1
          1 1 1 1 1 1 1 1 1 1 1 1
          1 1 1 1 1 1 1 1 1 1 1 1
          1 1 1 1 1 1 1 1 1 1 1 1
          1 1 1 1 1 1 1 1 1 1 1 1
          1 1 1 1 1 1 1 1 1 1 1 1
          1 1 1 1 1 1 1 1 1 1 1 1
          1 1 1 1 1 1 1 1 1 1 1 1
          1 1 1 1 1 1 1 1 1 1 1 1
          1 1 1 1 1 1 1 1 1 1 1 1
          1 1 1 1 1 1 1 1 1 1 1 1
          1 1 1 1 1 1 1 1 1 1 1 1
          1 1 1 1 1 1 1 1 1 1 1 1
          1 1 1 1 1 1 1 1 1 1 1 1
          1 1 1 1 1 1 1 1 1 1 1 1
          1 1 1 1 1 1 1 1 1 1 1 1
          1 1 1 1 1 1 1 1 1 1 1 1
          1 1 1 1 1 1 1 1 1 1 1 1
          1 1 1 1 1 1 1 1 1 1 1 1
          1 1 1 1 1 1 1 1 1 1 1 1
          1 1 1 1 1 1 1 1 1 1 1 1
          1 1 1 1 1 1 1 1 1 1 1 1
          1 1 1 1 1 1 1 1 1 1 1 1
          1 1 1 1 1 1 1 1 1 1 1 1
          1 1 1 1 1 1 1 1 1 1 1 1
          1 1 1 1 1 1 1 1 1 1 1 1
          1 1 1 1 1 1 1 1 1 1 1 1
          1 1 1 1 1 1 1 1 1 1 1 1
          1 1 1 1 1 1 1 1 1 1 1 1
          0.5 1 0.927603 1 0.927603 1 0.999932 1 0.5 0.5 0.924916 0.927603
          0.924916 0.927603 0.999919 0.999932 0.999932 1 1 1 1 1 1 1
          1 1 1 1 0.999919 0.999932 1 1 1 1 1 1
          1 1 1 1 0.5 0.5 0.925781 0.924916 0.925781 0.924916 0.999922 0.999919
          0.5 0.5 0.926091 0.925781 0.926091 0.925781 0.999923 0.999922 0.999922 0.999919 1 1
          1 1 1 1 1 1 1 1 0.999923 0.999922 1 1
          1 1 1 1 1 1 1 1 1 1 1 1
          1 1 1 1 1 1 1 1 1 1 1 1
          1 1 1 1 1 1 1 1 1 1 1 1
          1 1 1 1 1 1 1 1 1 1 1 1
          1 1 1 1 1 1 1 1 1 1 1 1
          1 1 1 1 1 1 1 1 1 1 1 1
          0.5 0.5 0.92624 0.926091 0.5 0.5 0.92632 0.92624 0.92624 0.926091 0.999923 0.999923
          0.92632 0.92624 0.999924 0.999923 0.5 0.5 0.926364 0.92632 0.926364 0.92632 0.999924 0.999924
          0.999923 0.999923 1 1 0.999924 0.999923 1 1 1 1 1 1
          1 1 1 1 1 1 1 1 1 1 1 1
          0.999924 0.999924 1 1 1 1 1 1 1 1 1 1
          0.5 0.5 0.926385 0.926364 0.926385 0.926364 0.999924 0.999924 0.5 0.5 0.926392 0.926385
          0.926392 0.926385 0.999924 0.999924 0.999924 0.999924 1 1 1 1 1 1
          1 1 1 1 0.999924 0.999924 1 1 1 1 1 1
          1 1 1 1 1 1 1 1 1 1 1 1
          1 1 1 1 1 1 1 1 1 1 1 1
          1 1 1 1 1 1 1 1 1 1 1 1
          1 1 1 1 1 1 1 1 1 1 1 1
          1 1 1 1 1 1 1 1 1 1 1 1
          1 1 1 1 1 1 1 1 1 1 1 1
          1 1 1 1 1 1 1 1 1 1 1 1
          1 1 1 1 1 1 1 1 1 1 1 1
          1 1 1 1 1 1 1 1 1 1 1 1
          1 1 1 1 1 1 1 1 1 1 1 1
          1 1 1 1 1 1 1 1 1 1 1 1
          1 1 1 1 1 1 1 1 1 1 1 1
          1 1 1 1 1 1 1 1 1 1 1 1
          1 1 1 1 1 1 1 1 1 1 1 1
          1 1 1 1 1 1 1 1 1 1 1 1
          1 1 1 1 1 1 1 1 1 1 1 1
          1 1 1 1 1 1 1 1 1 1 1 1
          1 1 1 1 1 1 1 1 1 1 1 1
          1 1 1 1 1 1 1 1 1 1 1 1
          1 1 1 1 1 1 1 1 1 1 1 1
          1 1 1 1 1 1 1 1 1 1 1 1
          1 1 1 1 1 1 1 1 1 1 1 1
          1 1 1 1 1 1 1 1 1 1 1 1
          1 1 1 1 1 1 1 1 1 1 1 1
          1 1 1 1 1 1 1 1 1 1 1 1
          1 1 1 1 1 1 1 1 1 1 1 1
          1 1 1 1 1 1 1 1 1 1 1 1
          1 1 1 1 1 1 1 1 1 1 1 1
          1 1 1 1 1 1 1 1 1 1 1 1
          1 1 1 1 1 1 1 1 1 1 1 1
          1 1 1 1 1 1 1 1 1 1 1 1
          1 1 1 1 1 1 1 1 1 1 1 1
          1 1 1 1 1 1 1 1 1 1 1 1
          1 1 1 1 1 1 1 1 1 1 1 1
        </DataArray>
        <DataArray type="Float32" Name="p_aq" NumberOfComponents="1" format="ascii">
          195818 200000 195818 200000 187886 195818 187885 195818 195819 200000 195818 200000
          187887 195819 187886 195818 182418 187886 182417 187885 176950 182418 176949 182417
          171480 176950 171478 176949 182420 187887 182418 187886 176953 182420 176950 182418
          171485 176953 171480 176950 195820 200000 195819 200000 187888 195820 187887 195819
          195821 200000 195820 200000 195819 200000 195821 200000 187888 195821 187888 195820
          187885 195819 187888 195821 182423 187888 182420 187887 176959 182423 176953 182420
          171493 176959 171485 176953 182427 187888 182423 187888 182432 187885 182427 187888
          176968 182427 176959 182423 171506 176968 171493 176959 176980 182432 176968 182427
          171523 176980 171506 176968 166006 171480 166004 171478 160529 166006 160526 166004
          166012 171485 166006 171480 160536 166012 160529 166006 155046 160529 155044 160526
          149559 155046 149556 155044 155054 160536 155046 160529 149567 155054 149559 155046
          166023 171493 166012 171485 160548 166023 160536 166012 166039 171506 166023 171493
          166060 171523 166039 171506 160566 166039 160548 166023 160591 166060 160566 166039
          155067 160548 155054 160536 149580 155067 149567 155054 155087 160566 155067 160548
          155115 160591 155087 160566 149600 155087 149580 155067 149629 155115 149600 155087
          195807 200000 195819 200000 187873 195807 187885 195819 195747 200000 195807 200000
          187845 195747 187873 195807 182438 187873 182432 187885 176998 182438 176980 182432
          171546 176998 171523 176980 182458 187845 182438 187873 177027 182458 176998 182438
          171576 177027 171546 176998 195376 200000 195747 200000 187880 195376 187845 195747
          194367 200000 195376 200000 188443 194367 187880 195376 182535 187880 182458 187845
          177067 182535 177027 182458 171609 177067 171576 177027 182602 188443 182535 187880
          177093 182602 177067 182535 171637 177093 171609 177067 166088 171546 166060 171523
          160624 166088 160591 166060 166120 171576 166088 171546 160662 166120 160624 166088
          155152 160624 155115 160591 149669 155152 149629 155115 155202 160662 155152 160624
          149727 155202 149669 155152 166156 171609 166120 171576 160696 166156 160662 166120
          166200 171637 166156 171609 160745 166200 160696 166156 155262 160696 155202 160662
          149827 155262 149727 155202 155186 160745 155262 160696 150192 155186 149827 155262
          149559 149556 144066 144064 144066 144064 138569 138567 149567 149559 144074 144066
          144074 144066 138575 138569 138569 138567 133067 133065 133067 133065 127561 127559
          138575 138569 133072 133067 133072 133067 127566 127561 149580 149567 144087 144074
          144087 144074 138587 138575 149600 149580 144106 144087 149629 149600 144132 144106
          144106 144087 138604 138587 144132 144106 138626 138604 138587 138575 133082 133072
          133082 133072 127573 127566 138604 138587 133096 133082 138626 138604 133113 133096
          133096 133082 127584 127573 133113 133096 127596 127584 127561 127559 122052 122051
          122052 122051 116541 116540 116541 116540 111028 111028 127566 127561 122056 122052
          122056 122052 116543 116541 116543 116541 111030 111028 111028 111028 105514 105514
          105514 105514 100000 100000 111030 111028 105515 105514 105515 105514 100000 100000
          127573 127566 122061 122056 122061 122056 116547 116543 116547 116543 111032 111030
          127584 127573 122069 122061 122069 122061 116553 116547 127596 127584 122078 122069
          122078 122069 116559 116553 116553 116547 111035 111032 116559 116553 111039 111035
          111032 111030 105516 105515 105516 105515 100000 100000 111035 111032 105518 105516
          111039 111035 105520 105518 105518 105516 100000 100000 105520 105518 100000 100000
          149669 149629 144169 144132 144169 144132 138656 138626 149727 149669 144221 144169
          144221 144169 138692 138656 138656 138626 133134 133113 133134 133113 127611 127596
          138692 138656 133157 133134 133157 133134 127625 127611 149827 149727 144300 144221
          144300 144221 138728 138692 150192 149827 144348 144300 144348 144300 138744 138728
          138728 138692 133176 133157 133176 133157 127636 127625 138744 138728 133183 133176
          133183 133176 127640 127636 127611 127596 122088 122078 122088 122078 116565 116559
          116565 116559 111043 111039 127625 127611 122096 122088 122096 122088 116570 116565
          116570 116565 111046 111043 111043 111039 105521 105520 105521 105520 100000 100000
          111046 111043 105523 105521 105523 105521 100000 100000 127636 127625 122103 122096
          122103 122096 116574 116570 116574 116570 111048 111046 127640 127636 122105 122103
          122105 122103 116576 116574 116576 116574 111049 111048 111048 111046 105524 105523
          105524 105523 100000 100000 111049 111048 105524 105524 105524 105524 100000 100000
          200000 200000 195376 194367 195376 194367 187880 188443 200000 200000 195747 195376
          195747 195376 187845 187880 187880 188443 182535 182602 182535 182602 177067 177093
          177067 177093 171609 171637 187845 187880 182458 182535 182458 182535 177027 177067
          177027 177067 171576 171609 200000 200000 195807 195747 195807 195747 187873 187845
          200000 200000 195819 195807 195819 195807 187885 187873 187873 187845 182438 182458
          182438 182458 176998 177027 176998 177027 171546 171576 187885 187873 182432 182438
          182432 182438 176980 176998 176980 176998 171523 171546 171609 171637 166156 166200
          166156 166200 160696 160745 171576 171609 166120 166156 166120 166156 160662 160696
          160696 160745 155262 155186 155262 155186 149827 150192 160662 160696 155202 155262
          155202 155262 149727 149827 171546 171576 166088 166120 166088 166120 160624 160662
          171523 171546 166060 166088 166060 166088 160591 160624 160624 160662 155152 155202
          155152 155202 149669 149727 160591 160624 155115 155152 155115 155152 149629 149669
          200000 200000 195821 195819 200000 200000 195820 195821 195821 195819 187888 187885
          195820 195821 187888 187888 200000 200000 195819 195820 195819 195820 187887 187888
          187888 187885 182427 182432 187888 187888 182423 182427 182427 182432 176968 176980
          176968 176980 171506 171523 182423 182427 176959 176968 176959 176968 171493 171506
          187887 187888 182420 182423 182420 182423 176953 176959 176953 176959 171485 171493
          200000 200000 195818 195819 195818 195819 187886 187887 200000 200000 195818 195818
          195818 195818 187885 187886 187886 187887 182418 182420 182418 182420 176950 176953
          176950 176953 171480 171485 187885 187886 182417 182418 182417 182418 176949 176950
          176949 176950 171478 171480 171506 171523 166039 166060 171493 171506 166023 166039
          166039 166060 160566 160591 166023 166039 160548 160566 171485 171493 166012 166023
          166012 166023 160536 160548 160566 160591 155087 155115 160548 160566 155067 155087
          155087 155115 149600 149629 155067 155087 149580 149600 160536 160548 155054 155067
          155054 155067 149567 149580 171480 171485 166006 166012 166006 166012 160529 160536
          171478 171480 166004 166006 166004 166006 160526 160529 160529 160536 155046 155054
          155046 155054 149559 149567 160526 160529 155044 155046 155044 155046 149556 149559
          149827 150192 144300 144348 144300 144348 138728 138744 149727 149827 144221 144300
          144221 144300 138692 138728 138728 138744 133176 133183 133176 133183 127636 127640
          138692 138728 133157 133176 133157 133176 127625 127636 149669 149727 144169 144221
          144169 144221 138656 138692 149629 149669 144132 144169 144132 144169 138626 138656
          138656 138692 133134 133157 133134 133157 127611 127625 138626 138656 133113 133134
          133113 133134 127596 127611 127636 127640 122103 122105 122103 122105 116574 116576
          116574 116576 111048 111049 127625 127636 122096 122103 122096 122103 116570 116574
          116570 116574 111046 111048 111048 111049 105524 105524 105524 105524 100000 100000
          111046 111048 105523 105524 105523 105524 100000 100000 127611 127625 122088 122096
          122088 122096 116565 116570 116565 116570 111043 111046 127596 127611 122078 122088
          122078 122088 116559 116565 116559 116565 111039 111043 111043 111046 105521 105523
          105521 105523 100000 100000 111039 111043 105520 105521 105520 105521 100000 100000
          149600 149629 144106 144132 149580 149600 144087 144106 144106 144132 138604 138626
          144087 144106 138587 138604 149567 149580 144074 144087 144074 144087 138575 138587
          138604 138626 133096 133113 138587 138604 133082 133096 133096 133113 127584 127596
          133082 133096 127573 127584 138575 138587 133072 133082 133072 133082 127566 127573
          127566 127573 122056 122061 149559 149567 144066 144074 144066 144074 138569 138575
          149556 149559 144064 144066 144064 144066 138567 138569 138569 138575 133067 133072
          133067 133072 127561 127566 127561 127566 122052 122056 138567 138569 133065 133067
          133065 133067 127559 127561 127559 127561 122051 122052 127584 127596 122069 122078
          122069 122078 116553 116559 127573 127584 122061 122069 122061 122069 116547 116553
          116553 116559 111035 111039 116547 116553 111032 111035 122056 122061 116543 116547
          116543 116547 111030 111032 111035 111039 105518 105520 111032 111035 105516 105518
          105518 105520 100000 100000 105516 105518 100000 100000 111030 111032 105515 105516
          105515 105516 100000 100000 122052 122056 116541 116543 116541 116543 111028 111030
          122051 122052 116540 116541 116540 116541 111028 111028 111028 111030 105514 105515
          105514 105515 100000 100000 111028 111028 105514 105514 105514 105514 100000 100000
        </DataArray>
        <DataArray type="Float32" Name="rho_aq" NumberOfComponents="1" format="ascii">
          1000 1000 1000 1000 1000 1000 1000 1000 1000 1000 1000 1000
          1000 1000 1000 1000 1000 1000 1000 1000 1000 1000 1000 1000
          1000 1000 1000 1000 1000 1000 1000 1000 1000 1000 1000 1000
          1000 1000 1000 1000 1000 1000 1000 1000 1000 1000 1000 1000
          1000 1000 1000 1000 1000 1000 1000 1000 1000 1000 1000 1000
          1000 1000 1000 1000 1000 1000 1000 1000 1000 1000 1000 1000
          1000 1000 1000 1000 1000 1000 1000 1000 1000 1000 1000 1000
          1000 1000 1000 1000 1000 1000 1000 1000 1000 1000 1000 1000
          1000 1000 1000 1000 1000 1000 1000 1000 1000 1000 1000 1000
          1000 1000 1000 1000 1000 1000 1000 1000 1000 1000 1000 1000
          1000 1000 1000 1000 1000 1000 1000 1000 1000 1000 1000 1000
          1000 1000 1000 1000 1000 1000 1000 1000 1000 1000 1000 1000
          1000 1000 1000 1000 1000 1000 1000 1000 1000 1000 1000 1000
          1000 1000 1000 1000 1000 1000 1000 1000 1000 1000 1000 1000
          1000 1000 1000 1000 1000 1000 1000 1000 1000 1000 1000 1000
          1000 1000 1000 1000 1000 1000 1000 1000 1000 1000 1000 1000
          1000 1000 1000 1000 1000 1000 1000 1000 1000 1000 1000 1000
          1000 1000 1000 1000 1000 1000 1000 1000 1000 1000 1000 1000
          1000 1000 1000 1000 1000 1000 1000 1000 1000 1000 1000 1000
          1000 1000 1000 1000 1000 1000 1000 1000 1000 1000 1000 1000
          1000 1000 1000 1000 1000 1000 1000 1000 1000 1000 1000 1000
          1000 1000 1000 1000 1000 1000 1000 1000 1000 1000 1000 1000
          1000 1000 1000 1000 1000 1000 1000 1000 1000 1000 1000 1000
          1000 1000 1000 1000 1000 1000 1000 1000 1000 1000 1000 1000
          1000 1000 1000 1000 1000 1000 1000 1000 1000 1000 1000 1000
          1000 1000 1000 1000 1000 1000 1000 1000 1000 1000 1000 1000
          1000 1000 1000 1000 1000 1000 1000 1000 1000 1000 1000 1000
          1000 1000 1000 1000 1000 1000 1000 1000 1000 1000 1000 1000
          1000 1000 1000 1000 1000 1000 1000 1000 1000 1000 1000 1000
          1000 1000 1000 1000 1000 1000 1000 1000 1000 1000 1000 1000
          1000 1000 1000 1000 1000 1000 1000 1000 1000 1000 1000 1000
          1000 1000 1000 1000 1000 1000 1000 1000 1000 1000 1000 1000
          1000 1000 1000 1000 1000 1000 1000 1000 1000 1000 1000 1000
          1000 1000 1000 1000 1000 1000 1000 1000 1000 1000 1000 1000
          1000 1000 1000 1000 1000 1000 1000 1000 1000 1000 1000 1000
          1000 1000 1000 1000 1000 1000 1000 1000 1000 1000 1000 1000
          1000 1000 1000 1000 1000 1000 1000 1000 1000 1000 1000 1000
          1000 1000 1000 1000 1000 1000 1000 1000 1000 1000 1000 1000
          1000 1000 1000 1000 1000 1000 1000 1000 1000 1000 1000 1000
          1000 1000 1000 1000 1000 1000 1000 1000 1000 1000 1000 1000
          1000 1000 1000 1000 1000 1000 1000 1000 1000 1000 1000 1000
          1000 1000 1000 1000 1000 1000 1000 1000 1000 1000 1000 1000
          1000 1000 1000 1000 1000 1000 1000 1000 1000 1000 1000 1000
          1000 1000 1000 1000 1000 1000 1000 1000 1000 1000 1000 1000
          1000 1000 1000 1000 1000 1000 1000 1000 1000 1000 1000 1000
          1000 1000 1000 1000 1000 1000 1000 1000 1000 1000 1000 1000
          1000 1000 1000 1000 1000 1000 1000 1000 1000 1000 1000 1000
          1000 1000 1000 1000 1000 1000 1000 1000 1000 1000 1000 1000
          1000 1000 1000 1000 1000 1000 1000 1000 1000 1000 1000 1000
          1000 1000 1000 1000 1000 1000 1000 1000 1000 1000 1000 1000
          1000 1000 1000 1000 1000 1000 1000 1000 1000 1000 1000 1000
          1000 1000 1000 1000 1000 1000 1000 1000 1000 1000 1000 1000
          1000 1000 1000 1000 1000 1000 1000 1000 1000 1000 1000 1000
          1000 1000 1000 1000 1000 1000 1000 1000 1000 1000 1000 1000
          1000 1000 1000 1000 1000 1000 1000 1000 1000 1000 1000 1000
          1000 1000 1000 1000 1000 1000 1000 1000 1000 1000 1000 1000
          1000 1000 1000 1000 1000 1000 1000 1000 1000 1000 1000 1000
          1000 1000 1000 1000 1000 1000 1000 1000 1000 1000 1000 1000
          1000 1000 1000 1000 1000 1000 1000 1000 1000 1000 1000 1000
          1000 1000 1000 1000 1000 1000 1000 1000 1000 1000 1000 1000
          1000 1000 1000 1000 1000 1000 1000 1000 1000 1000 1000 1000
          1000 1000 1000 1000 1000 1000 1000 1000 1000 1000 1000 1000
          1000 1000 1000 1000 1000 1000 1000 1000 1000 1000 1000 1000
          1000 1000 1000 1000 1000 1000 1000 1000 1000 1000 1000 1000
          1000 1000 1000 1000 1000 1000 1000 1000 1000 1000 1000 1000
          1000 1000 1000 1000 1000 1000 1000 1000 1000 1000 1000 1000
          1000 1000 1000 1000 1000 1000 1000 1000 1000 1000 1000 1000
          1000 1000 1000 1000 1000 1000 1000 1000 1000 1000 1000 1000
          1000 1000 1000 1000 1000 1000 1000 1000 1000 1000 1000 1000
          1000 1000 1000 1000 1000 1000 1000 1000 1000 1000 1000 1000
          1000 1000 1000 1000 1000 1000 1000 1000 1000 1000 1000 1000
          1000 1000 1000 1000 1000 1000 1000 1000 1000 1000 1000 1000
          1000 1000 1000 1000 1000 1000 1000 1000 1000 1000 1000 1000
          1000 1000 1000 1000 1000 1000 1000 1000 1000 1000 1000 1000
          1000 1000 1000 1000 1000 1000 1000 1000 1000 1000 1000 1000
          1000 1000 1000 1000 1000 1000 1000 1000 1000 1000 1000 1000
          1000 1000 1000 1000 1000 1000 1000 1000 1000 1000 1000 1000
          1000 1000 1000 1000 1000 1000 1000 1000 1000 1000 1000 1000
          1000 1000 1000 1000 1000 1000 1000 1000 1000 1000 1000 1000
          1000 1000 1000 1000 1000 1000 1000 1000 1000 1000 1000 1000
          1000 1000 1000 1000 1000 1000 1000 1000 1000 1000 1000 1000
          1000 1000 1000 1000 1000 1000 1000 1000 1000 1000 1000 1000
          1000 1000 1000 1000 1000 1000 1000 1000 1000 1000 1000 1000
          1000 1000 1000 1000 1000 1000 1000 1000 1000 1000 1000 1000
          1000 1000 1000 1000 1000 1000 1000 1000 1000 1000 1000 1000
          1000 1000 1000 1000 1000 1000 1000 1000 1000 1000 1000 1000
          1000 1000 1000 1000 1000 1000 1000 1000 1000 1000 1000 1000
          1000 1000 1000 1000 1000 1000 1000 1000 1000 1000 1000 1000
          1000 1000 1000 1000 1000 1000 1000 1000 1000 1000 1000 1000
          1000 1000 1000 1000 1000 1000 1000 1000 1000 1000 1000 1000
          1000 1000 1000 1000 1000 1000 1000 1000 1000 1000 1000 1000
          1000 1000 1000 1000 1000 1000 1000 1000 1000 1000 1000 1000
          1000 1000 1000 1000 1000 1000 1000 1000 1000 1000 1000 1000
          1000 1000 1000 1000 1000 1000 1000 1000 1000 1000 1000 1000
          1000 1000 1000 1000 1000 1000 1000 1000 1000 1000 1000 1000
          1000 1000 1000 1000 1000 1000 1000 1000 1000 1000 1000 1000
          1000 1000 1000 1000 1000 1000 1000 1000 1000 1000 1000 1000
          1000 1000 1000 1000 1000 1000 1000 1000 1000 1000 1000 1000
          1000 1000 1000 1000 1000 1000 1000 1000 1000 1000 1000 1000
          1000 1000 1000 1000 1000 1000 1000 1000 1000 1000 1000 1000
          1000 1000 1000 1000 1000 1000 1000 1000 1000 1000 1000 1000
          1000 1000 1000 1000 1000 1000 1000 1000 1000 1000 1000 1000
          1000 1000 1000 1000 1000 1000 1000 1000 1000 1000 1000 1000
          1000 1000 1000 1000 1000 1000 1000 1000 1000 1000 1000 1000
          1000 1000 1000 1000 1000 1000 1000 1000 1000 1000 1000 1000
          1000 1000 1000 1000 1000 1000 1000 1000 1000 1000 1000 1000
          1000 1000 1000 1000 1000 1000 1000 1000 1000 1000 1000 1000
          1000 1000 1000 1000 1000 1000 1000 1000 1000 1000 1000 1000
        </DataArray>
        <DataArray type="Float32" Name="mob_aq" NumberOfComponents="1" format="ascii">
          686.431 23.1923 686.455 23.1923 999.629 686.431 999.629 686.455 686.352 23.1923 686.431 23.1923
          999.628 686.352 999.629 686.431 1000 999.629 1000 999.629 1000 1000 1000 1000
          1000 1000 1000 1000 1000 999.628 1000 999.629 1000 1000 1000 1000
          1000 1000 1000 1000 686.192 23.1923 686.352 23.1923 999.628 686.192 999.628 686.352
          685.898 23.1923 686.192 23.1923 685.349 23.1923 685.898 23.1923 999.626 685.898 999.628 686.192
          999.623 685.349 999.626 685.898 1000 999.628 1000 999.628 1000 1000 1000 1000
          1000 1000 1000 1000 1000 999.626 1000 999.628 1000 999.623 1000 999.626
          1000 1000 1000 1000 1000 1000 1000 1000 1000 1000 1000 1000
          1000 1000 1000 1000 1000 1000 1000 1000 1000 1000 1000 1000
          1000 1000 1000 1000 1000 1000 1000 1000 1000 1000 1000 1000
          1000 1000 1000 1000 1000 1000 1000 1000 1000 1000 1000 1000
          1000 1000 1000 1000 1000 1000 1000 1000 1000 1000 1000 1000
          1000 1000 1000 1000 1000 1000 1000 1000 1000 1000 1000 1000
          1000 1000 1000 1000 1000 1000 1000 1000 1000 1000 1000 1000
          1000 1000 1000 1000 1000 1000 1000 1000 1000 1000 1000 1000
          684.211 23.1923 685.349 23.1923 999.618 684.211 999.623 685.349 681.042 23.1923 684.211 23.1923
          999.607 681.042 999.618 684.211 1000 999.618 1000 999.623 1000 1000 1000 1000
          1000 1000 1000 1000 1000 999.607 1000 999.618 1000 1000 1000 1000
          1000 1000 1000 1000 690.92 23.1923 681.042 23.1923 999.671 690.92 999.607 681.042
          1000 1000 690.92 23.1923 1000 1000 999.671 690.92 1000 999.671 1000 999.607
          1000 1000 1000 1000 1000 1000 1000 1000 1000 1000 1000 999.671
          1000 1000 1000 1000 1000 1000 1000 1000 1000 1000 1000 1000
          1000 1000 1000 1000 1000 1000 1000 1000 1000 1000 1000 1000
          1000 1000 1000 1000 1000 1000 1000 1000 1000 1000 1000 1000
          1000 1000 1000 1000 1000 1000 1000 1000 1000 1000 1000 1000
          1000 1000 1000 1000 1000 1000 1000 1000 1000 1000 1000 1000
          1000 1000 1000 1000 1000 1000 1000 1000 1000 1000 1000 1000
          1000 1000 1000 1000 1000 1000 1000 1000 1000 1000 1000 1000
          1000 1000 1000 1000 1000 1000 1000 1000 1000 1000 1000 1000
          1000 1000 1000 1000 1000 1000 1000 1000 1000 1000 1000 1000
          1000 1000 1000 1000 1000 1000 1000 1000 1000 1000 1000 1000
          1000 1000 1000 1000 1000 1000 1000 1000 1000 1000 1000 1000
          1000 1000 1000 1000 1000 1000 1000 1000 1000 1000 1000 1000
          1000 1000 1000 1000 1000 1000 1000 1000 1000 1000 1000 1000
          1000 1000 1000 1000 1000 1000 1000 1000 1000 1000 1000 1000
          1000 1000 1000 1000 1000 1000 1000 1000 1000 1000 1000 1000
          1000 1000 1000 1000 1000 1000 1000 1000 1000 1000 1000 1000
          1000 1000 1000 1000 1000 1000 1000 1000 1000 1000 1000 1000
          1000 1000 1000 1000 1000 1000 1000 1000 1000 1000 1000 1000
          1000 1000 1000 1000 1000 1000 1000 1000 1000 1000 1000 1000
          1000 1000 1000 1000 1000 1000 1000 1000 1000 1000 1000 1000
          1000 1000 1000 1000 1000 1000 1000 1000 1000 1000 1000 1000
          1000 1000 1000 1000 1000 1000 1000 1000 1000 1000 1000 1000
          1000 1000 1000 1000 1000 1000 1000 1000 1000 1000 1000 1000
          1000 1000 1000 1000 1000 1000 1000 1000 1000 1000 1000 1000
          1000 1000 1000 1000 1000 1000 1000 1000 1000 1000 1000 1000
          1000 1000 1000 1000 1000 1000 1000 1000 1000 1000 1000 1000
          1000 1000 1000 1000 1000 1000 1000 1000 1000 1000 1000 1000
          1000 1000 1000 1000 1000 1000 1000 1000 1000 1000 1000 1000
          1000 1000 1000 1000 1000 1000 1000 1000 1000 1000 1000 1000
          1000 1000 1000 1000 1000 1000 1000 1000 1000 1000 1000 1000
          1000 1000 1000 1000 1000 1000 1000 1000 1000 1000 1000 1000
          1000 1000 1000 1000 1000 1000 1000 1000 1000 1000 1000 1000
          1000 1000 1000 1000 1000 1000 1000 1000 1000 1000 1000 1000
          23.1923 1000 690.92 1000 690.92 1000 999.671 1000 23.1923 23.1923 681.042 690.92
          681.042 690.92 999.607 999.671 999.671 1000 1000 1000 1000 1000 1000 1000
          1000 1000 1000 1000 999.607 999.671 1000 1000 1000 1000 1000 1000
          1000 1000 1000 1000 23.1923 23.1923 684.211 681.042 684.211 681.042 999.618 999.607
          23.1923 23.1923 685.349 684.211 685.349 684.211 999.623 999.618 999.618 999.607 1000 1000
          1000 1000 1000 1000 1000 1000 1000 1000 999.623 999.618 1000 1000
          1000 1000 1000 1000 1000 1000 1000 1000 1000 1000 1000 1000
          1000 1000 1000 1000 1000 1000 1000 1000 1000 1000 1000 1000
          1000 1000 1000 1000 1000 1000 1000 1000 1000 1000 1000 1000
          1000 1000 1000 1000 1000 1000 1000 1000 1000 1000 1000 1000
          1000 1000 1000 1000 1000 1000 1000 1000 1000 1000 1000 1000
          1000 1000 1000 1000 1000 1000 1000 1000 1000 1000 1000 1000
          23.1923 23.1923 685.898 685.349 23.1923 23.1923 686.192 685.898 685.898 685.349 999.626 999.623
          686.192 685.898 999.628 999.626 23.1923 23.1923 686.352 686.192 686.352 686.192 999.628 999.628
          999.626 999.623 1000 1000 999.628 999.626 1000 1000 1000 1000 1000 1000
          1000 1000 1000 1000 1000 1000 1000 1000 1000 1000 1000 1000
          999.628 999.628 1000 1000 1000 1000 1000 1000 1000 1000 1000 1000
          23.1923 23.1923 686.431 686.352 686.431 686.352 999.629 999.628 23.1923 23.1923 686.455 686.431
          686.455 686.431 999.629 999.629 999.629 999.628 1000 1000 1000 1000 1000 1000
          1000 1000 1000 1000 999.629 999.629 1000 1000 1000 1000 1000 1000
          1000 1000 1000 1000 1000 1000 1000 1000 1000 1000 1000 1000
          1000 1000 1000 1000 1000 1000 1000 1000 1000 1000 1000 1000
          1000 1000 1000 1000 1000 1000 1000 1000 1000 1000 1000 1000
          1000 1000 1000 1000 1000 1000 1000 1000 1000 1000 1000 1000
          1000 1000 1000 1000 1000 1000 1000 1000 1000 1000 1000 1000
          1000 1000 1000 1000 1000 1000 1000 1000 1000 1000 1000 1000
          1000 1000 1000 1000 1000 1000 1000 1000 1000 1000 1000 1000
          1000 1000 1000 1000 1000 1000 1000 1000 1000 1000 1000 1000
          1000 1000 1000 1000 1000 1000 1000 1000 1000 1000 1000 1000
          1000 1000 1000 1000 1000 1000 1000 1000 1000 1000 1000 1000
          1000 1000 1000 1000 1000 1000 1000 1000 1000 1000 1000 1000
          1000 1000 1000 1000 1000 1000 1000 1000 1000 1000 1000 1000
          1000 1000 1000 1000 1000 1000 1000 1000 1000 1000 1000 1000
          1000 1000 1000 1000 1000 1000 1000 1000 1000 1000 1000 1000
          1000 1000 1000 1000 1000 1000 1000 1000 1000 1000 1000 1000
          1000 1000 1000 1000 1000 1000 1000 1000 1000 1000 1000 1000
          1000 1000 1000 1000 1000 1000 1000 1000 1000 1000 1000 1000
          1000 1000 1000 1000 1000 1000 1000 1000 1000 1000 1000 1000