<?xml version="1.0"?>
<VTKFile type="UnstructuredGrid" version="0.1" byte_order="LittleEndian">
  <UnstructuredGrid>
    <Piece NumberOfCells="2204" NumberOfPoints="2924">
      <CellData Scalars="wetting pressure">
        <DataArray type="Float32" Name="wetting pressure" NumberOfComponents="1" format="ascii">
          265451 270471 271873 270782 267706 262829 256105 247275 235799 220576 265455 270485
          271898 270822 267766 262917 256223 247404 235900 220614 265462 270507 271938 270886
          267857 263061 256437 247660 236106 220691 265469 270529 271979 270947 267911 263174
          256671 248026 236415 220805 265473 270543 272007 270999 236759 220924 265473 270543
          272007 270999 236766 220924 265469 270529 271980 270948 267910 263177 256678 248030
          236418 220806 265462 270507 271939 270886 267857 263062 256439 247662 236108 220692
          265455 270485 271898 270822 267766 262918 256224 247405 235900 220614 265451 270472
          271873 270782 267706 262829 256105 247276 235799 220576 261898 264269 264532 262920
          259641 254780 248285 239986 229637 217038 261903 264286 264563 262971 259721 254899
          248444 240156 229768 217087 261911 264313 264615 263058 259853 255115 248761 240522
          230058 217192 261920 264340 264668 263155 241146 230573 217371 261925 264356 264697
          263190 217626 261925 264356 264698 263190 217621 261920 264340 264668 263155 241152
          230574 217371 261911 264313 264615 263058 259853 255115 248761 240523 230059 217192
          261903 264286 264564 262972 259721 254900 248444 240157 229769 217087 261898 264270
          264533 262920 259641 254780 248286 239987 229637 217038 260141 260160 259037 256674
          253079 248247 242112 234578 225595 215306 260148 260182 259079 256745 253193 248421
          242341 234814 225773 215371 260158 260217 259149 256869 253396 248760 242835 235351
          226188 215517 260169 260254 259223 257006 227014 215781 260176 260276 259267 257078
          216164 260176 260276 259267 257078 216162 260170 260254 259223 257006 227005 215779
          260158 260217 259149 256869 253396 248760 242836 235351 226186 215516 260148 260182
          259079 256745 253194 248421 242341 234814 225773 215371 260141 260160 259038 256674
          253079 248247 242113 234578 225595 215306 259019 257172 254742 251587 247641 242843
          237113 230383 222683 214212 259027 257200 254798 251685 247801 243085 237420 230685
          222902 214290 259041 257248 254894 251858 248100 243587 238116 231385 223414 214466
          259056 257297 254996 252054 224421 214777 259065 257328 255060 252176 215194 259065
          257328 255060 252176 215194 259056 257297 254996 252054 224415 214775 259041 257248
          254894 251858 248101 243587 238116 231385 223413 214466 259027 257200 254798 251685
          247802 243085 237420 230685 222902 214290 259019 257172 254742 251587 247641 242844
          237113 230383 222683 214212 258149 254739 251117 247195 242896 238133 232806 226856
          220323 213368 258160 254776 251190 247322 243104 238439 233180 227208 220570 213455
          258178 254837 251314 247549 243502 239086 234029 228012 221125 213643 258197 254901
          251447 247805 222142 213952 258209 254941 251532 247973 214316 258209 254941 251532
          247973 214320 258197 254901 251447 247805 222137 213952 258178 254837 251314 247549
          243502 239086 234029 228012 221124 213642 258160 254776 251190 247322 243104 238439
          233181 227209 220570 213455 258149 254739 251117 247195 242896 238133 232807 226856
          220324 213369 257351 252483 247721 243052 238408 233680 228751 223559 218142 212598
          257365 252529 247812 243211 238665 234046 229181 223950 218405 212690 257388 252606
          247967 243494 239154 234811 230133 224808 218972 212879 257412 252686 248133 243808
          219911 213165 257427 252737 248240 244016 213451 257427 252737 248240 244016 213452
          257412 252686 248133 243808 219908 213165 257388 252606 247968 243494 239154 234811
          230134 224809 218972 212879 257365 252529 247812 243212 238665 234047 229182 223951
          218406 212690 257351 252483 247721 243052 238409 233681 228753 223560 218143 212599
          256489 250075 244140 238726 233750 229065 224532 220099 215822 211768 256507 250132
          244254 238925 234065 229503 225028 220537 216111 211867 256535 250228 244447 239273
          234660 230395 226084 221458 216704 212064 256565 250326 244651 239653 217609 212340
          256583 250389 244783 239906 212587 256583 250390 244783 239906 212586 256565 250327
          244651 239653 217606 212340 256535 250228 244447 239274 234660 230396 226086 221460
          216705 212065 256507 250132 244254 238925 234066 229504 225030 220539 216114 211868
          256489 250075 244140 238727 233750 229066 224534 220101 215825 211769 255380 247130
          239926 233767 228484 223860 219718 216045 212993 210701 255402 247201 240069 234020
          228892 224420 220334 216575 213333 210815 255436 247319 240311 234463 229653 225529
          221599 217667 214011 211038 255472 247441 240565 234937 219339 214970 211334 255495
          247518 240730 235259 215945 211591 255495 247518 240731 235259 215953 211593 255472
          247441 240565 234938 219348 214977 211336 255437 247319 240311 234463 229653 225530
          221602 217675 214019 211040 255402 247201 240069 234020 228892 224420 220338 216582
          213339 210817 255380 247130 239926 233766 228484 223861 219721 216050 212998 210702
          253639 243070 234525 227677 222155 217616 213821 210840 209066 209005 253664 243155
          234702 228004 222713 218401 214668 211537 209493 209145 253705 243297 235003 228585
          223792 219981 216438 213023 210358 209418 253748 243444 235321 229211 215012 211581
          209774 253774 243536 235527 229672 212589 210060 253774 243536 235527 229673 212591
          210061 253748 243444 235321 229211 215028 211604 209779 253705 243297 235004 228586
          223792 219981 216440 213045 210376 209423 253664 243155 234702 228004 222710 218400
          214672 211551 209504 209149 253639 243070 234525 227676 222154 217616 213825 210849
          209074 209008 250096 236902 227252 219935 214289 209843 206266 203731 203001 205496
          250123 236997 227455 220331 215033 211011 207478 204628 203519 205660 250169 237156
          227804 221036 204622 205987 250216 237320 228176 221870 206407 250244 237417 228374
          206783 250245 237418 228377 206784 250216 237321 228178 221871 206405 250169 237156
          227806 221044 204665 205996 250123 236997 227455 220329 215020 211001 207483 204657
          203539 205666 250096 236901 227252 219933 214284 209841 206271 203745 203012 205500
          271017 269112 269097 271037 266639 264661 264628 266629 266711 263944 263888 266678
          262280 259562 259474 262229 271037 269098 269112 271017 266630 264628 264660 266638
          266678 263888 263945 266711 262229 259474 259562 262279 262694 260684 260635 262676
          259153 257132 257120 259152 258328 255656 255629 258284 254848 252315 252422 254908
          262677 260635 260684 262694 259153 257120 257132 259152 258284 255629 255657 258329
          254908 252422 252316 254849 256030 254014 254068 256053 253241 251279 251382 253289
          251850 249496 249717 252024 249260 247072 247327 249484 256053 254068 254014 256029
          253290 251382 251278 253239 252024 249717 249497 251851 249484 247327 247072 249261
          250737 248814 248957 250805 248421 246549 246705 248504 246927 244865 245124 247165
          244745 242778 243033 244985 250805 248957 248814 250735 248505 246706 246548 248420
          247165 245124 244865 246927 244985 243033 242778 244745 246255 244398 244565 246347
          244148 242306 242480 244250 242649 240758 241010 242889 240594 238767 239017 240835
          246348 244565 244397 246252 244251 242480 242305 244147 242889 241010 240759 242649
          240835 239018 238768 240594 242087 240232 240412 242195 239990 238132 238318 240105
          238545 236774 237024 238788 236467 234751 235002 236713 242196 240412 240231 242085
          240107 238318 238131 239989 238788 237024 236775 238545 236713 235002 234751 236467
          237853 235976 236170 237975 235599 233726 233930 235732 234332 232670 232924 234583
          232113 230508 230768 232371 237976 236170 235975 237850 235733 233930 233726 235599
          234583 232924 232670 234333 232372 230768 230508 232114 233225 231359 231578 233369
          230669 228850 229090 230835 229789 228247 228517 230060 227344 225876 226162 227634
          233370 231579 231359 233223 230835 229094 228852 230672 230060 228517 228247 229789
          227636 226163 225877 227346 227914 226185 226457 228102 224936 223371 223686 225158
          224778 223399 223710 225099 222111 220837 221189 222476 228102 226459 226188 227916
          225157 223691 223378 224943 225100 223711 223401 224781 222478 221190 220839 222116
          221663 220436 220812 221910 218199 217398 217799 218505 219398 218233 218646 219821
          216594 215534 215975 217033 221911 220815 220442 221664 218506 217800 217401 218200
          219822 218645 218226 219399 217027 215966 215514 216585 217263 215730 215353 216872
          214620 213064 212639 214180 216880 215367 215735 217268 214199 212653 213075 214632
          226879 225126 224895 226626 224607 222958 222712 224339 221940 220405 220671 222232
          219444 217960 218257 219773 217734 216444 217456 218653 214619 213478 214660 215741
          218647 217446 216423 217716 215728 214639 213459 214605 260731 257035 257113 260708
          256453 252844 252856 256378 260709 257114 257037 260733 256378 252856 252844 256453
          252634 249255 249276 252640 249460 246230 246357 249585 252640 249276 249256 252635
          249585 246358 246231 249461 246850 243827 244008 247056 244587 241746 241950 244824
          247057 244008 243829 246852 244824 241950 241747 244587 242511 239832 240041 242755
          240540 238004 238214 240781 242755 240041 239833 242512 240781 238213 238004 240540
          238624 236229 236430 238861 236729 234462 234654 236962 238861 236429 236229 238625
          236962 234653 234462 236729 234824 232675 232860 235055 232884 230844 231030 233116
          235055 232860 232675 234825 233116 231030 230844 232885 230886 228950 229144 231120
          228804 226964 227181 229047 231120 229144 228950 230886 229047 227181 226965 228804
          226625 224893 225125 226879 224337 222709 222957 224606 222234 220676 220413 221943
          219775 218259 217966 219447 220584 219078 219837 221236 216763 215603 216631 217749
          221231 219839 219074 220581 217750 216632 215600 216760 229385 227790 227062 228813
          226906 225390 224625 226295 227152 225272 225795 227605 224042 222315 222900 224572
          223612 222032 222865 224284 220809 219342 220227 221509 258423 255699 255749 258435
          254869 252227 252337 254920 258438 255751 255698 258423 254921 252338 252227 254867
          251719 249180 249344 251789 248940 246527 246784 249076 251789 249346 249185 251719
          249076 246785 246527 248937 246434 244130 244510 246670 244140 241938 242398 244449
          246670 244511 244135 246434 244448 242398 241937 244135 241954 239832 240365 242332
          239847 237797 238367 240265 242333 240366 239837 241956 240265 238367 237795 239843
          237747 235757 236367 238204 235635 233703 234337 236116 238205 236368 235761 237749
          236116 234337 233702 235631 233457 231580 232246 233969 231199 229380 230071 231733
          233969 232248 231584 233459 231733 230071 229380 231195 228810 227057 227788 229384
          226299 224623 225389 226906 224288 222868 222038 223620 221518 220229 219338 220825
          256006 254047 253987 255942 253185 251255 251144 253088 250524 248570 248720 250652
          248146 246210 246407 248309 250651 248719 248571 250518 248309 246406 246207 248139
          245924 243978 244223 246121 243774 241832 242110 243997 246120 244222 243979 245918
          243998 242109 241828 243767 241673 239705 240018 241921 239541 237568 237903 239810
          241920 240018 239707 241666 239811 237903 237564 239534 237364 235364 235730 237658
          235069 233073 233462 235387 237657 235730 235367 237357 235387 233461 233070 235063
          232637 230640 231065 232989 230011 228059 228516 230403 232988 231065 230643 232632
          230404 228517 228058 230009 227603 225798 225280 227151 224571 222905 222317 224046
          225617 223300 223500 225783 221560 219370 219546 221700 225784 223503 223298 225618
          221700 219547 219370 221561 262715 260769 260768 262726 259120 257176 257200 259153
          262728 260769 260769 262715 259153 257200 257174 259114 255948 253987 254048 256006
          253095 251146 251255 253186 215006 213294 214635 216156 212092 210565 211769 213328
          216145 214597 213296 214998 213309 211765 210573 212080 213817 211798 212458 214123
          210933 209141 209567 211374 214107 212412 211804 213790 211367 209571 209156 210933
          245350 240689 241010 245465 242642 238424 238617 242708 245466 241013 240700 245352
          242708 238620 238433 242642 240425 236738 236723 240563 238490 234960 235072 238692
          240564 236725 236742 240428 238692 235073 234962 238490 236772 233475 233578 236970
          235124 232028 232147 235319 236969 233577 233476 236772 235317 232139 232028 235124
          233536 230654 230769 233707 231949 228860 229273 232079 233701 230731 230644 233534
          232073 229235 228821 231948 230276 227214 227757 230420 228566 225610 226197 228722
          230418 227754 227207 230276 228722 226196 225610 228566 215467 213876 215197 216646
          212289 211029 212187 213413 216644 215185 213863 215463 213400 212166 210999 212273
          246308 242999 243521 246717 243803 240673 241394 244321 246720 243524 243007 246310
          244321 241396 240678 243799 241538 238588 239570 242157 239461 236656 237701 240157
          242158 239573 238593 241539 240157 237702 236659 239458 237463 234789 235930 238233
          235520 232962 234159 236334 238234 235931 234792 237465 236334 234161 232966 235518
          226810 223998 224626 226981 224980 222310 223002 225172 226981 224626 223999 226810
          225172 223002 222312 224982 223064 220529 221331 223276 221019 218581 219487 221251
          223277 221328 220539 223071 221253 219482 218602 221022 218825 216540 217516 219101
          216436 214215 214883 216731 233572 231128 232395 234433 231600 229255 230558 232492
          234434 232395 231129 233575 232493 230560 229258 231598 229560 227308 228592 230493
          227435 225252 226396 228399 230494 228583 227306 229562 228400 226396 225255 227433
          225196 223113 224276 226194 222842 220839 222046 223875 226195 224276 223124 225200
          223875 222051 220858 222844 220345 218457 219742 221438 217746 215965 217431 218869
          219123 217500 216558 218854 216733 214866 214220 216444 221439 219740 218474 220349
          218876 217381 215964 217741 252541 248939 249138 252657 249190 245688 246014 249406
          252660 249138 248944 252541 249408 246018 245702 249190 219125 217208 218174 219893
          215109 213502 214624 215946 219888 218173 217205 219122 215944 214619 213490 215104
          211495 209720 210862 212780 209032 207049 208443 210059 212789 210904 209840 211536
          210082 208501 207482 209074 212224 210419 211936 213611 209693 207305 209335 210858
          213606 211941 210418 212208 210836 209340 207311 209616 210375 208904 208580 209927
          207959 206164 205661 207575 209907 208552 208898 210369 207557 205622 206144 207964
          252728 247601 247780 252899 248685 243729 243987 248888 252900 247781 247605 252730
          248888 243985 243748 248685 231597 225685 226553 232405 230236 224502 225459 231060
          232405 226552 225722 231597 231060 225455 224532 230241 228938 223487 224449 229802
          227628 222431 223333 228566 229798 224445 223516 228938 228545 223330 222458 227629
          227380 222251 221485 226295 226057 221012 220391 224839 235313 229056 229387 235835
          233224 227041 227652 234156 235842 229388 229061 235310 234159 227651 227076 233228
          235127 231222 232226 236071 233343 229606 230686 234393 236072 232227 231246 235130
          234392 230679 229626 233347 226308 221455 222217 227502 224835 220360 220990 226107
          239232 234985 235726 239859 237057 232938 233828 237833 239864 235723 234987 239230
          237834 233825 232960 237059 231635 228107 229201 232741 229947 226580 227614 231070
          232740 229199 228127 231638 231067 227598 226596 229951 223406 219371 219862 224239
          222010 218307 218722 222728 224245 219860 219399 223411 222731 218718 218335 222023
          208728 207282 208500 210154 205227 203609 205108 207231 209164 208055 207279 208166
          206400 204825 203930 205042 210196 208577 207321 208746 207293 205264 203673 205264
          228268 225114 226097 229374 226544 223576 224535 227636 229373 226094 225132 228271
          227634 224527 223595 226550 208095 207245 208018 209114 204884 203870 204779 206320
          224779 222047 222973 225842 222920 220357 221263 223956 220672 217334 217705 221306
          219251 216178 216489 219844 221307 217700 217358 220676 219848 216490 216183 219256
          225841 222974 222066 224781 223958 221258 220360 222920
        </DataArray>
        <DataArray type="Float32" Name="nonwetting pressure" NumberOfComponents="1" format="ascii">
          265451 270471 271873 270782 267706 262829 256105 247275 235799 220576 265455 270485
          271898 270822 267766 262917 256223 247404 235900 220614 265462 270507 271938 270886
          267857 263061 256437 247660 236106 220691 265469 270529 271979 270947 267911 263174
          256671 248026 236415 220805 265473 270543 272007 270999 236759 220924 265473 270543
          272007 270999 236766 220924 265469 270529 271980 270948 267910 263177 256678 248030
          236418 220806 265462 270507 271939 270886 267857 263062 256439 247662 236108 220692
          265455 270485 271898 270822 267766 262918 256224 247405 235900 220614 265451 270472
          271873 270782 267706 262829 256105 247276 235799 220576 261898 264269 264532 262920
          259641 254780 248285 239986 229637 217038 261903 264286 264563 262971 259721 254899
          248444 240156 229768 217087 261911 264313 264615 263058 259853 255115 248761 240522
          230058 217192 261920 264340 264668 263155 241146 230573 217371 261925 264356 264697
          263190 217626 261925 264356 264698 263190 217621 261920 264340 264668 263155 241152
          230574 217371 261911 264313 264615 263058 259853 255115 248761 240523 230059 217192
          261903 264286 264564 262972 259721 254900 248444 240157 229769 217087 261898 264270
          264533 262920 259641 254780 248286 239987 229637 217038 260141 260160 259037 256674
          253079 248247 242112 234578 225595 215306 260148 260182 259079 256745 253193 248421
          242341 234814 225773 215371 260158 260217 259149 256869 253396 248760 242835 235351
          226188 215517 260169 260254 259223 257006 227014 215781 260176 260276 259267 257078
          216164 260176 260276 259267 257078 216162 260170 260254 259223 257006 227005 215779
          260158 260217 259149 256869 253396 248760 242836 235351 226186 215516 260148 260182
          259079 256745 253194 248421 242341 234814 225773 215371 260141 260160 259038 256674
          253079 248247 242113 234578 225595 215306 259019 257172 254742 251587 247641 242843
          237113 230383 222683 214212 259027 257200 254798 251685 247801 243085 237420 230685
          222902 214290 259041 257248 254894 251858 248100 243587 238116 231385 223414 214466
          259056 257297 254996 252054 224421 214777 259065 257328 255060 252176 215194 259065
          257328 255060 252176 215194 259056 257297 254996 252054 224415 214775 259041 257248
          254894 251858 248101 243587 238116 231385 223413 214466 259027 257200 254798 251685
          247802 243085 237420 230685 222902 214290 259019 257172 254742 251587 247641 242844
          237113 230383 222683 214212 258149 254739 251117 247195 242896 238133 232806 226856
          220323 213368 258160 254776 251190 247322 243104 238439 233180 227208 220570 213455
          258178 254837 251314 247549 243502 239086 234029 228012 221125 213643 258197 254901
          251447 247805 222142 213952 258209 254941 251532 247973 214316 258209 254941 251532
          247973 214320 258197 254901 251447 247805 222137 213952 258178 254837 251314 247549
          243502 239086 234029 228012 221124 213642 258160 254776 251190 247322 243104 238439
          233181 227209 220570 213455 258149 254739 251117 247195 242896 238133 232807 226856
          220324 213369 257351 252483 247721 243052 238408 233680 228751 223559 218142 212598
          257365 252529 247812 243211 238665 234046 229181 223950 218405 212690 257388 252606
          247967 243494 239154 234811 230133 224808 218972 212879 257412 252686 248133 243808
          219911 213165 257427 252737 248240 244016 213451 257427 252737 248240 244016 213452
          257412 252686 248133 243808 219908 213165 257388 252606 247968 243494 239154 234811
          230134 224809 218972 212879 257365 252529 247812 243212 238665 234047 229182 223951
          218406 212690 257351 252483 247721 243052 238409 233681 228753 223560 218143 212599
          256489 250075 244140 238726 233750 229065 224532 220099 215822 211768 256507 250132
          244254 238925 234065 229503 225028 220537 216111 211867 256535 250228 244447 239273
          234660 230395 226084 221458 216704 212064 256565 250326 244651 239653 217609 212340
          256583 250389 244783 239906 212587 256583 250390 244783 239906 212586 256565 250327
          244651 239653 217606 212340 256535 250228 244447 239274 234660 230396 226086 221460
          216705 212065 256507 250132 244254 238925 234066 229504 225030 220539 216114 211868
          256489 250075 244140 238727 233750 229066 224534 220101 215825 211769 255380 247130
          239926 233767 228484 223860 219718 216045 212993 210701 255402 247201 240069 234020
          228892 224420 220334 216575 213333 210815 255436 247319 240311 234463 229653 225529
          221599 217667 214011 211038 255472 247441 240565 234937 219339 214970 211334 255495
          247518 240730 235259 215945 211591 255495 247518 240731 235259 215953 211593 255472
          247441 240565 234938 219348 214977 211336 255437 247319 240311 234463 229653 225530
          221602 217675 214019 211040 255402 247201 240069 234020 228892 224420 220338 216582
          213339 210817 255380 247130 239926 233766 228484 223861 219721 216050 212998 210702
          253639 243070 234525 227677 222155 217616 213821 210840 209066 209005 253664 243155
          234702 228004 222713 218401 214668 211537 209493 209145 253705 243297 235003 228585
          223792 219981 216438 213023 210358 209418 253748 243444 235321 229211 215012 211581
          209774 253774 243536 235527 229672 212589 210060 253774 243536 235527 229673 212591
          210061 253748 243444 235321 229211 215028 211604 209779 253705 243297 235004 228586
          223792 219981 216440 213045 210376 209423 253664 243155 234702 228004 222710 218400
          214672 211551 209504 209149 253639 243070 234525 227676 222154 217616 213825 210849
          209074 209008 250096 236902 227252 219935 214289 209843 206266 203731 203001 205496
          250123 236997 227455 220331 215033 211011 207478 204628 203519 205660 250169 237156
          227804 221036 204622 205987 250216 237320 228176 221870 206407 250244 237417 228374
          206783 250245 237418 228377 206784 250216 237321 228178 221871 206405 250169 237156
          227806 221044 204665 205996 250123 236997 227455 220329 215020 211001 207483 204657
          203539 205666 250096 236901 227252 219933 214284 209841 206271 203745 203012 205500
          271017 269112 269292 271037 266639 264676 264970 266629 266718 263944 263985 266924
          262316 259583 259728 262684 271037 269292 269112 271017 266630 264970 264676 266638
          266924 263985 263945 266718 262683 259728 259583 262315 262694 260724 261093 262676
          259153 257210 257670 259152 258421 255734 256051 258912 255028 252490 252964 255655
          262677 261093 260724 262694 259153 257670 257210 259152 258912 256051 255735 258421
          255656 252964 252490 255028 256030 254140 254683 256053 253241 251449 252037 253289
          252119 249763 250317 252836 249589 247391 247948 250327 256053 254683 254140 256029
          253290 252037 251449 253239 252836 250317 249764 252120 250327 247949 247392 249589
          250737 249017 249635 250805 248421 246768 247397 248504 247288 245207 245751 248023
          245121 243131 243663 245852 250805 249635 249016 250735 248505 247397 246768 248420
          248023 245752 245208 247288 245852 243663 243131 245120 246255 244626 245263 246347
          244148 242538 243181 244250 243033 241115 241640 243762 240982 239126 239647 241713
          246348 245263 244626 246252 244251 243181 242537 244147 243762 241640 241115 243033
          241713 239647 239126 240982 242087 240464 241113 242195 239990 238364 239019 240105
          238935 237133 237652 239668 236859 235109 235629 237597 242196 241113 240464 242085
          240107 239019 238363 239989 239668 237652 237133 238935 237597 235629 235110 236860
          237853 236207 236871 237975 235599 233958 234634 235732 234727 233029 233551 235471
          232512 230868 231395 233265 237976 236871 236207 237850 235733 234634 233959 235599
          235471 233551 233029 234727 233265 231395 230868 232512 233225 231595 232287 233369
          230669 229094 229811 230835 230193 228609 229144 230959 227757 226242 226790 228543
          233370 232288 231596 233223 230835 229813 229096 230672 230960 229144 228609 230193
          228544 226791 226243 227759 227914 226445 227199 228102 224936 223664 224474 225158
          225207 223772 224341 226021 222569 221225 221833 223428 228102 227199 226448 227916
          225157 224476 223669 224943 226022 224342 223773 225209 223429 221833 221226 222572
          221663 220844 221749 221910 218578 218606 219554 219195 219963 218700 219381 220892
          217956 216750 217504 218921 221911 221750 220846 221664 219194 219553 218601 218575
          220892 219378 218693 219960 218918 217499 216739 217948 217773 216077 215587 217219
          215867 214063 213466 215213 217228 215602 216082 217777 215223 213469 214066 215872
          227320 225436 225093 226909 225045 223263 222906 224622 222225 220597 220972 222668
          219736 218155 218557 220214 217794 216509 217707 218910 215223 214089 215566 216694
          218902 217696 216490 217774 216681 215552 214075 215209 260731 257035 257131 260750
          256453 252844 252934 256517 260750 257132 257037 260733 256517 252934 252844 256453
          252685 249286 249456 252918 249600 246334 246642 249977 252918 249457 249287 252686
          249978 246642 246335 249601 247074 244000 244348 247505 244856 241957 242308 245292
          247506 244349 244001 247075 245292 242309 241958 244857 242800 240061 240402 243226
          240834 238237 238571 241251 243227 240402 240062 242800 241251 238570 238237 240835
          238920 236461 236781 239328 237023 234690 234998 237424 239327 236780 236461 238920
          237424 234997 234690 237023 235117 232897 233198 235513 233174 231060 231361 233569
          235513 233198 232897 235117 233569 231361 231060 233175 231173 229159 229468 231569
          229089 227167 227498 229491 231569 229468 229159 231174 229491 227498 227168 229089
          226908 225091 225436 227319 224620 222903 223262 225044 222669 220976 220604 222228
          220214 218558 218159 219738 220584 219078 219964 221236 216763 216024 217394 217827
          221231 219965 219074 220581 217824 217387 216014 216760 229515 227943 227062 228813
          227045 225550 224625 226295 227152 225272 225852 227605 224042 222315 222974 224572
          223612 222032 223034 224437 220824 219342 220412 221690 258423 255699 255749 258435
          254869 252227 252337 254920 258438 255751 255698 258423 254921 252338 252227 254867
          251719 249180 249376 251808 248940 246527 246858 249124 251808 249378 249185 251719
          249123 246859 246527 248937 246434 244130 244615 246744 244140 241938 242523 244542
          246744 244617 244135 246434 244542 242523 241937 244135 241954 239832 240500 242438
          239847 237797 238508 240377 242438 240501 239837 241956 240377 238508 237795 239843
          237747 235757 236512 238320 235635 233703 234483 236235 238321 236513 235761 237749
          236235 234484 233702 235631 233457 231580 232394 234090 231199 229380 230221 231858
          234091 232396 231584 233459 231858 230222 229380 231195 228810 227057 227942 229514
          226299 224623 225549 227045 224441 223037 222038 223620 221696 220413 219338 220836
          256006 254047 253987 255942 253185 251255 251144 253088 250524 248570 248731 250652
          248146 246210 246429 248309 250651 248731 248571 250518 248309 246428 246207 248139
          245924 243978 244252 246121 243774 241832 242144 243997 246120 244252 243979 245918
          243998 242143 241828 243767 241673 239705 240054 241921 239541 237568 237941 239810
          241920 240054 239707 241666 239811 237940 237564 239534 237364 235364 235768 237658
          235069 233073 233501 235387 237657 235768 235367 237357 235387 233501 233070 235063
          232637 230640 231108 232989 230011 228059 228564 230403 232988 231108 230643 232632