<?xml version="1.0"?>
<VTKFile type="PolyData" version="0.1" byte_order="LittleEndian">
  <PolyData>
    <Piece NumberOfLines="137" NumberOfPoints="90">
      <PointData Scalars="S_liq">
        <DataArray type="Float32" Name="S_liq" NumberOfComponents="1" format="ascii">
          1 0.05026 0.0615377 0.144299 0.054273 0.0382944 0.0875068 1 0.0417978 1 0.0384804 0.123106
          0.110205 1 1 1 0.135699 0.0855877 1 1 1 1 1 1
          1 1 1 1 0.245728 0.0784947 1 0.139745 1 0.834482 0.142861 0.0761127
          1 0.217424 1 0.0684895 0.114201 1 1 0.0750908 0.0486632 0.0672301 1 1
          1 1 1 1 1 1 1 1 0.437119 1 1 1
          1 1 1 1 1 0.754078 1 1 1 0.364991 0.144327 1
          1 1 1 1 1 1 1 1 1 1 1 1
          1 1 1 1 1 1
        </DataArray>
        <DataArray type="Float32" Name="p_liq" NumberOfComponents="1" format="ascii">
          102733 102795 102738 102332 101713 101299 102699 102710 101426 102615 101565 102726
          101491 102809 102809 102809 102836 101695 101695 102809 102809 101695 101990 101889
          101739 102652 102652 101717 102799 102792 102675 102769 102809 102826 102728 102819
          102752 102529 102613 102036 101983 101635 102652 102299 100695 102802 102792 102774
          102784 102788 102816 102790 102747 101730 102713 102721 102866 101183 101792 103008
          102742 102751 102600 100574 102704 103784 102618 103292 102790 103489 100001 102803
          102967 102919 102947 103184 102786 102790 102790 102841 101416 102747 103292 100000
          100000 103250 103489 103489 100000 102618
        </DataArray>
        <DataArray type="Float32" Name="rho_liq" NumberOfComponents="1" format="ascii">
          1000 1000 1000 1000 1000 1000 1000 1000 1000 1000 1000 1000
          1000 1000 1000 1000 1000 1000 1000 1000 1000 1000 1000 1000
          1000 1000 1000 1000 1000 1000 1000 1000 1000 1000 1000 1000
          1000 1000 1000 1000 1000 1000 1000 1000 1000 1000 1000 1000
          1000 1000 1000 1000 1000 1000 1000 1000 1000 1000 1000 1000
          1000 1000 1000 1000 1000 1000 1000 1000 1000 1000 1000 1000
          1000 1000 1000 1000 1000 1000 1000 1000 1000 1000 1000 1000
          1000 1000 1000 1000 1000 1000
        </DataArray>
        <DataArray type="Float32" Name="mob_liq" NumberOfComponents="1" format="ascii">
          1000 1000 1000 1000 1000 1000 1000 1000 1000 1000 1000 1000
          1000 1000 1000 1000 1000 1000 1000 1000 1000 1000 1000 1000
          1000 1000 1000 1000 1000 1000 1000 1000 1000 1000 1000 1000
          1000 1000 1000 1000 1000 1000 1000 1000 1000 1000 1000 1000
          1000 1000 1000 1000 1000 1000 1000 1000 1000 1000 1000 1000
          1000 1000 1000 1000 1000 1000 1000 1000 1000 1000 1000 1000
          1000 1000 1000 1000 1000 1000 1000 1000 1000 1000 1000 1000
          1000 1000 1000 1000 1000 1000
        </DataArray>
        <DataArray type="Float32" Name="S_gas" NumberOfComponents="1" format="ascii">
          0 0.94974 0.938462 0.855701 0.945727 0.961706 0.912493 0 0.958202 0 0.96152 0.876894
          0.889795 0 0 0 0.864301 0.914412 0 0 0 0 0 0
          0 0 0 0 0.754272 0.921505 0 0.860255 0 0.165518 0.857139 0.923887
          0 0.782576 0 0.93151 0.8858 0 0 0.924909 0.951337 0.93277 0 0
          0 0 0 0 0 0 0 0 0.562881 0 0 0
          0 0 0 0 0 0.245922 0 0 0 0.635009 0.855673 0
          0 0 0 0 0 0 0 0 0 0 0 0
          0 0 0 0 0 0
        </DataArray>
        <DataArray type="Float32" Name="p_gas" NumberOfComponents="1" format="ascii">
          102733 105000 104977 105000 104999 105000 105000 102710 104852 102615 104996 105000
          104918 102809 102809 102809 104851 104711 101695 102809 102809 101695 101990 101889
          101739 102652 102652 101717 104999 104999 102675 104851 102809 104991 104993 104995
          102752 104852 102613 104852 104711 101635 102652 104708 104594 104704 102792 102774
          102784 102788 102816 102790 102747 101730 102713 102721 104198 101183 101792 103008
          102742 102751 102600 100574 102704 104514 102618 103292 102790 104493 104594 102803
          102967 102919 102947 103184 102786 102790 102790 102841 101416 102747 103292 100000
          100000 103250 103489 103489 100000 102618
        </DataArray>
        <DataArray type="Float32" Name="rho_gas" NumberOfComponents="1" format="ascii">
          1.26374 1.29163 1.29135 1.29163 1.29162 1.29163 1.29163 1.26345 1.28981 1.26228 1.29157 1.29163
          1.29061 1.26467 1.26467 1.26467 1.28979 1.28806 1.25097 1.26467 1.26467 1.25097 1.2546 1.25336
          1.25151 1.26274 1.26274 1.25124 1.29161 1.29161 1.26303 1.2898 1.26467 1.29152 1.29154 1.29157
          1.26397 1.2898 1.26226 1.2898 1.28807 1.25024 1.26274 1.28804 1.28663 1.28798 1.26446 1.26425
          1.26437 1.26442 1.26476 1.26444 1.26391 1.2514 1.2635 1.2636 1.28176 1.24468 1.25216 1.26712
          1.26385 1.26397 1.26211 1.23717 1.26338 1.28565 1.26232 1.27061 1.26444 1.28538 1.28663 1.26461
          1.26662 1.26603 1.26638 1.26928 1.26439 1.26444 1.26444 1.26506 1.24754 1.26391 1.27061 1.23012
          1.23012 1.27009 1.27303 1.27303 1.23012 1.26232
        </DataArray>
        <DataArray type="Float32" Name="mob_gas" NumberOfComponents="1" format="ascii">
          56558.5 56557.2 56557.2 56557.2 56557.2 56557.2 56557.2 56558.5 56557.3 56558.6 56557.2 56557.2
          56557.2 56558.5 56558.5 56558.5 56557.3 56557.4 56559.1 56558.5 56558.5 56559.1 56558.9 56559
          56559.1 56558.6 56558.6 56559.1 56557.2 56557.2 56558.6 56557.3 56558.5 56557.2 56557.2 56557.2
          56558.5 56557.3 56558.6 56557.3 56557.4 56559.2 56558.6 56557.4 56557.4 56557.4 56558.5 56558.5
          56558.5 56558.5 56558.5 56558.5 56558.5 56559.1 56558.5 56558.5 56557.7 56559.4 56559.1 56558.4
          56558.5 56558.5 56558.6 56559.8 56558.5 56557.5 56558.6 56558.2 56558.5 56557.5 56557.4 56558.5
          56558.4 56558.4 56558.4 56558.3 56558.5 56558.5 56558.5 56558.5 56559.3 56558.5 56558.2 56560.1
          56560.1 56558.2 56558.1 56558.1 56560.1 56558.6
        </DataArray>
        <DataArray type="Float32" Name="pc" NumberOfComponents="1" format="ascii">
          0 2205.22 2239.05 2668 3286.1 3700.9 2301.07 0 3425.83 0 3430.36 2274.1
          3426.45 0 0 0 2015.04 3015.76 0 0 0 0 0 0
          0 0 0 0 2199.91 2206.99 0 2082.31 0 2165.5 2265.06 2175.93
          0 2322.9 0 2815.61 2727.46 0 0 2409.77 3898.5 1902.36 0 0
          0 0 0 0 0 0 0 0 1332.58 0 0 0
          0 0 0 0 0 730.25 0 0 0 1003.99 4593.12 0
          0 0 0 0 0 0 0 0 0 0 0 0
          0 0 0 0 0 0
        </DataArray>
        <DataArray type="Float32" Name="porosity" NumberOfComponents="1" format="ascii">
          1 1 1 1 1 1 1 1 1 1 1 1
          1 1 1 1 1 1 1 1 1 1 1 1
          1 1 1 1 1 1 1 1 1 1 1 1
          1 1 1 1 1 1 1 1 1 1 1 1
          1 1 1 1 1 1 1 1 1 1 1 1
          1 1 1 1 1 1 1 1 1 1 1 1
          1 1 1 1 1 1 1 1 1 1 1 1
          1 1 1 1 1 1
        </DataArray>
        <DataArray type="Float32" Name="poreRadius" NumberOfComponents="1" format="ascii">
          0.00010842 0.0002263 0.00018872 8.6711e-05 0.00014246 0.00017024 0.00014006 5.8137e-05 0.00017043 0.00014712 0.00018289 0.00011213
          8.001e-05 0.00026652 0.00010984 0.00018149 0.0001191 0.00010862 6.7563e-05 0.00013353 8.8091e-05 0.00011873 8.6177e-05 0.00014165
          9.7691e-05 0.00014071 8.5166e-05 0.00010965 8.1041e-05 0.00015832 6.1496e-05 0.00011323 0.00033347 6.7184e-05 0.00010274 0.00016438
          0.00011759 8.0701e-05 0.00015113 0.00013784 9.8161e-05 0.00013 8.1223e-05 0.00014997 0.00013153 0.00020701 0.00010946 8.5023e-05
          7.8721e-05 0.00017262 0.00012575 0.00010082 0.00015856 0.00012022 0.00019603 9.1747e-05 0.0001146 0.00025862 0.00012908 0.00025963
          0.00010958 6.7231e-05 0.00012907 0.00015315 9.4275e-05 0.00019972 7.1623e-05 0.00014025 0.00011092 0.00015744 5.0362e-05 0.00022549
          0.00010874 9.8868e-05 0.00010793 0.00015434 8.0185e-05 6.8354e-05 0.00014551 0.00014525 0.00017218 0.00012177 9.0671e-05 0.00015715
          0.00012027 0.00015784 0.00022979 0.00010367 5.3866e-05 0.00024136
        </DataArray>
        <DataArray type="Float32" Name="coordinationNumber" NumberOfComponents="1" format="ascii">
          6 1 4 1 3 1 5 2 6 3 4 1
          2 4 2 3 2 6 1 1 1 1 4 2
          3 2 1 2 3 7 2 4 3 4 6 2
          3 4 3 5 5 3 4 6 4 5 4 4
          4 4 5 7 3 3 2 3 2 5 2 4
          3 2 2 2 3 4 5 4 4 6 2 5
          4 3 2 2 2 1 1 4 2 1 1 3
          1 2 1 1 1 1
        </DataArray>
        <DataArray type="Float32" Name="poreLabel" NumberOfComponents="1" format="ascii">
          -1 2 -1 2 -1 2 2 -1 -1 -1 -1 2
          -1 -1 -1 -1 -1 -1 -1 -1 -1 -1 -1 -1
          -1 -1 -1 -1 -1 -1 -1 -1 -1 -1 -1 -1
          -1 -1 -1 -1 -1 -1 -1 -1 -1 -1 -1 -1
          -1 -1 -1 -1 -1 -1 -1 -1 -1 -1 -1 -1
          -1 -1 -1 -1 -1 -1 -1 -1 -1 -1 -1 -1
          -1 -1 -1 -1 -1 -1 -1 -1 -1 -1 -1 3
          3 -1 -1 -1 3 -1
        </DataArray>
      </PointData>
      <CellData Scalars="process rank" Vectors="velocity_liq (m/s)">
        <DataArray type="Float32" Name="velocity_liq (m/s)" NumberOfComponents="3" format="ascii">
          0.0830694 0.0830694 -0.0830694 -0.0552811 0 0.0552811 -0.0294886 0.0294886 0 -0.0535872 0 0
          -0.0179152 0.0179152 0 0.0286894 0.0286894 0.0286894 0.0928371 -0 0.0928371 0.0464968 -0 -0.0464968
          0.0146321 -0.0146321 -0.0146321 -0.0276675 0.0276675 0.0276675 0.00148178 0.00148178 -0.00148178 -0 0 0
          -0 0 -0 0.0833593 -0 -0 0.0926764 -0.0926764 -0.0926764 -0 -0 0
          -0 0 -0 -0 0 -0 -0 0 0 -0.169462 0.169462 0
          0.138406 0.138406 -0.138406 -0 0 -0 -0.0345802 0 0 0.0245301 -0.0245301 -0
          -0.0699673 0 0 -0.0966241 -0.0966241 0 0.148194 -0 -0 -0.10209 0 0.10209
          0.0394645 -0 -0 -0.0281776 -0.0281776 0 0 -0 -0 -0.0282442 -0.0282442 0.0282442
          -0.0259428 -0.0259428 -0.0259428 -0.034695 0 -0.034695 -0 -0 0.281095 0.00577688 0.00577688 -0
          -0.030805 0 0.030805 -0 -0 0.40805 -0.395052 0 0 -0 0.851614 -0
          -0 0.0455008 -0.0455008 0 0 -0 -0.0497634 0.0497634 0 0 -0.0232604 0.0232604
          0.588302 0.588302 -0 -0.123807 0.123807 0.123807 -0 0 0 -0.0289751 0 0
          -0 -0 0.0437508 0.033416 0.033416 0.033416 -0.107022 0 0.107022 0 -0.207402 0
          0.198634 -0 0.198634 -0 0.0323812 -0 0.0234208 -0 0.0234208 -0 -0 0.0254498
          -0 0.0525331 -0 -0.0274061 -0.0274061 0.0274061 -0.023504 0 0.023504 -0.0426532 -0.0426532 -0.0426532
          -0 0.0452424 0.0452424 -0 0.103774 0.103774 0 -0.0791941 0 0.000492967 -0.000492967 0.000492967
          0.0030878 -0 0.0030878 -0 0.157596 0.157596 0.0042106 0.0042106 -0.0042106 0.0102268 -0 0.0102268
          1.01166 -0 1.01166 0 -1.1301 1.1301 0 -0.239578 0 0.17095 0.17095 -0
          -0.190566 -0.190566 0.190566 -0 0.393419 0.393419 -0.470529 0.470529 0 -0.169239 0.169239 0.169239
          0 -0.244415 0.244415 2.03817 -0 2.03817 -2.03769 0 2.03769 -0.14064 0.14064 0.14064
          0.0986744 -0 -0 0 0 -0.0921514 -0.00530995 0.00530995 0 -0 -0 0.781946
          -0 0.16598 0.16598 -0.278232 0.278232 0.278232 1.91438 -0 -1.91438 0 -0.450682 0.450682
          -0 0.0925267 -0 1.29541 1.29541 -0 0.830626 -0.830626 -0 2.11091 -2.11091 -2.11091
          0.763176 -0.763176 -0 0 0 -0.227068 -0.235189 0.235189 -0.235189 -0.0491745 0.0491745 -0.0491745
          0.032427 -0 -0.032427 0 0 -0.0161003 -0 0.0188001 -0 -0.020439 -0.020439 -0.020439
          -0 0.0125065 -0.0125065 0 0 -0.225225 -0.0316651 -0.0316651 0 0.157376 0.157376 -0.157376
          -0 0.239972 -0 0.0267303 0.0267303 -0.0267303 -0.295929 -0.295929 -0.295929 -0.0051333 -0.0051333 -0.0051333
          -0.0625396 0 0 0.00646661 0.00646661 -0 -0 0 0 -0 0 -0
          -0.137071 -0.137071 -0.137071 0 -0.477927 -0.477927 -0.0329781 -0.0329781 0.0329781 -0 0.86685 -0
          0.354174 -0 -0.354174 -0 -0 0 -0.342832 0.342832 0 0.400839 -0 -0
          0.185935 -0.185935 -0.185935 -0 0 0 0.29607 -0.29607 0.29607 3.90794 3.90794 -0
          -0.310842 0.310842 0.310842 1.56038 1.56038 -1.56038 0 0 -1.09428 -0.084751 0.084751 0
          -0 0.578571 0.578571 0 0 -1.12287 5.50621 -0 -0 -0 0 0
          -0 0 0 -0 0.962499 -0.962499 0.0023621 -0 0.0023621 -0 0 0
          2.35453 -2.35453 2.35453
        </DataArray>
        <DataArray type="Float32" Name="velocity_gas (m/s)" NumberOfComponents="3" format="ascii">
          -0 -0 0 4.02777 -0 -4.02777 0.113727 -0.113727 -0 -0 0 0
          -0 0 0 7.32757 7.32757 7.32757 -0 0 -0 0.411185 -0 -0.411185
          -0 0 0 -3.00243 3.00243 3.00243 3.2021 3.2021 -3.2021 -0 0 0
          -0 0 -0 -0.185521 0 0 -0 0 0 -0 -0 0
          -0 0 -0 -0 0 -0 -0 0 0 -0 0 0
          -0 -0 0 -0 0 -0 -0 0 0 -0 0 0
          0.0813953 -0 -0 0.0710985 0.0710985 -0 -0 0 0 -0 0 0
          -0 0 0 -0 -0 0 0 -0 -0 0.221411 0.221411 -0.221411
          0.11732 0.11732 0.11732 0.0133929 -0 0.0133929 0 0 -0 -0 -0 0
          -0 0 0 0 0 -0 -0 0 0 0 -0 0
          0 -0.0460053 0.0460053 0 0 -0 0.095805 -0.095805 -0 -0 12.779 -12.779
          -0 -0 0 -0 0 0 -0 0 0 0.278833 -0 -0
          -0 -0 0.0399241 8.85152 8.85152 8.85152 1.19183 -0 -1.19183 0 -0 0
          -0 0 -0 0 -0 0 -0 0 -0 0 0 -0
          0 -0 0 -0 -0 0 -0 0 0 -0 -0 -0
          0 -0.042942 -0.042942 0 -0 -0 0 -0 0 -0 0 -0
          -0 0 -0 0 -0 -0 -0 -0 0 -0 0 -0
          -0 0 -0 0 -0 0 0 -0 0 -0 -0 0
          -0 -0 0 0 -0 -0 -0 0 0 -0 0 0
          0 -0 0 -0 0 -0 -0 0 0 -0 0 0
          -0 0 0 0 0 -0 -0 0 0 0 0 -0
          0 -0 -0 -0 0 0 -0 0 0 0 -0 0
          0 -6.98589 0 -0 -0 0 -0 0 0 -0 0 0
          -0 0 0 0 0 -0 -0 0 -0 5.01921 -5.01921 5.01921
          0.00105922 -0 -0.00105922 0 0 -0 0 -0 0 -0 -0 -0
          0 -0 0 0 0 -0 -0 -0 0 -0 -0 0
          0 -0 0 -0 -0 0 -0 -0 -0 -0 -0 -0
          -0 0 0 -0 -0 0 -0 0 0 -0 0 -0
          -0 -0 -0 0 -0 -0 -0 -0 0 0 -0 0
          -0 0 0 -0 -0 0 -0 0 0 -0 0 0
          -0 0 0 -0 0 0 -0 0 -0 -0 -0 0
          -0 0 0 -0 -0 0 0 0 -0 -0 0 0
          0 -0 -0 0 0 -0 -0 0 0 -0 0 0
          -0 0 0 0 -0 0 -0 0 -0 -0 0 0
          -0 0 -0
        </DataArray>
        <DataArray type="Float32" Name="process rank" NumberOfComponents="1" format="ascii">
          0 0 0 0 0 0 0 0 0 0 0 0
          0 0 0 0 0 0 0 0 0 0 0 0
          0 0 0 0 0 0 0 0 0 0 0 0
          0 0 0 0 0 0 0 0 0 0 0 0
          0 0 0 0 0 0 0 0 0 0 0 0
          0 0 0 0 0 0 0 0 0 0 0 0
          0 0 0 0 0 0 0 0 0 0 0 0
          0 0 0 0 0 0 0 0 0 0 0 0
          0 0 0 0 0 0 0 0 0 0 0 0
          0 0 0 0 0 0 0 0 0 0 0 0
          0 0 0 0 0 0 0 0 0 0 0 0
          0 0 0 0 0
        </DataArray>
        <DataArray type="Float32" Name="throatLabel" NumberOfComponents="1" format="ascii">
          2 2 2 2 2 2 2 2 2 -1 -1 -1
          -1 -1 -1 -1 -1 -1 -1 -1 -1 -1 -1 -1
          -1 -1 -1 -1 -1 -1 -1 -1 -1 -1 -1 -1
          -1 -1 -1 -1 -1 -1 -1 -1 -1 -1 -1 -1
          -1 -1 -1 -1 -1 -1 -1 -1 -1 -1 -1 -1
          -1 -1 -1 -1 -1 -1 -1 -1 -1 -1 -1 -1
          -1 -1 -1 -1 -1 -1 -1 -1 -1 -1 -1 -1
          -1 -1 -1 -1 -1 -1 -1 -1 -1 -1 -1 -1
          -1 -1 -1 -1 -1 -1 -1 -1 -1 -1 -1 -1
          -1 -1 -1 -1 -1 -1 -1 -1 -1 -1 -1 -1
          -1 -1 -1 3 -1 3 -1 -1 -1 -1 3 -1
          -1 -1 3 -1 3
        </DataArray>
        <DataArray type="Float32" Name="throatRadius" NumberOfComponents="1" format="ascii">
          3.3304e-05 3.384e-05 3.3615e-05 3.3259e-05 3.3423e-05 3.3717e-05 3.3301e-05 3.3963e-05 3.3418e-05 3.4247e-05 3.3272e-05 3.37e-05
          3.3125e-05 3.3391e-05 3.3434e-05 3.3768e-05 3.3951e-05 3.3734e-05 3.3508e-05 3.3908e-05 3.3903e-05 3.3674e-05 3.3826e-05 3.3772e-05
          3.3303e-05 3.389e-05 3.3413e-05 3.3431e-05 3.3693e-05 3.353e-05 3.3589e-05 3.3834e-05 3.3987e-05 3.3567e-05 3.3743e-05 3.3553e-05
          3.371e-05 3.3781e-05 3.3426e-05 3.3726e-05 3.3836e-05 3.3664e-05 3.422e-05 3.3429e-05 3.3386e-05 3.305e-05 3.3941e-05 3.3926e-05
          3.3606e-05 3.3937e-05 3.3695e-05 3.3731e-05 3.3671e-05 3.3781e-05 3.3667e-05 3.4584e-05 3.3243e-05 3.3015e-05 3.3252e-05 3.3267e-05
          3.3488e-05 3.3576e-05 3.356e-05 3.3816e-05 3.3764e-05 3.3887e-05 3.4237e-05 3.4047e-05 3.3204e-05 3.2859e-05 3.3938e-05 3.3021e-05
          3.3656e-05 3.3645e-05 3.4391e-05 3.361e-05 3.3463e-05 3.3712e-05 3.3716e-05 3.3657e-05 3.3429e-05 3.3224e-05 3.374e-05 3.3184e-05
          3.3288e-05 3.4084e-05 3.3492e-05 3.3586e-05 3.3937e-05 3.3532e-05 3.3981e-05 3.3517e-05 3.3975e-05 3.3845e-05 3.3562e-05 3.3343e-05
          3.3284e-05 3.3542e-05 3.3486e-05 3.3496e-05 3.3966e-05 3.3533e-05 3.402e-05 3.3455e-05 3.3962e-05 3.3458e-05 3.3693e-05 3.3961e-05
          3.3494e-05 3.3486e-05 3.4314e-05 3.3954e-05 3.3488e-05 3.3852e-05 3.3512e-05 3.3871e-05 3.4113e-05 3.3098e-05 3.3981e-05 3.4127e-05
          3.3649e-05 3.4226e-05 3.3685e-05 3.322e-05 3.2903e-05 3.3521e-05 3.3874e-05 3.374e-05 3.3772e-05 3.344e-05 3.3682e-05 3.3086e-05
          3.3378e-05 3.3359e-05 3.3808e-05 3.3628e-05 3.3247e-05
        </DataArray>
        <DataArray type="Float32" Name="throatLength" NumberOfComponents="1" format="ascii">
          6.6609e-05 3.384e-05 3.3615e-05 9.9777e-05 6.6846e-05 0.00010115 9.9902e-05 6.7925e-05 0.00010025 0.00010274 9.9816e-05 3.37e-05
          9.9376e-05 6.6781e-05 0.0001003 6.7537e-05 6.7903e-05 0.0001012 3.3508e-05 6.7817e-05 0.00010171 6.7347e-05 0.00010148 0.00010132
          6.6606e-05 3.389e-05 6.6826e-05 3.3431e-05 6.7385e-05 6.706e-05 0.00010077 0.0001015 0.00010196 0.0001007 6.7487e-05 0.00010066
          6.7421e-05 3.3781e-05 3.3426e-05 0.00010118 6.7672e-05 0.00010099 3.422e-05 6.6858e-05 6.6772e-05 3.305e-05 6.7881e-05 6.7852e-05
          3.3606e-05 6.7873e-05 3.3695e-05 3.3731e-05 3.3671e-05 3.3781e-05 3.3667e-05 3.4584e-05 6.6486e-05 3.3015e-05 6.6503e-05 9.9802e-05
          6.6975e-05 6.7153e-05 6.7119e-05 3.3816e-05 6.7529e-05 0.00010166 0.00010271 3.4047e-05 3.3204e-05 6.5718e-05 6.7876e-05 6.6043e-05
          3.3656e-05 0.00010094 3.4391e-05 3.361e-05 3.3463e-05 3.3712e-05 6.7432e-05 6.7313e-05 3.3429e-05 9.9673e-05 0.00010122 9.9553e-05
          3.3288e-05 0.00010225 0.00010048 0.00010076 0.00010181 0.0001006 6.7962e-05 3.3517e-05 6.7951e-05 3.3845e-05 3.3562e-05 0.00010003
          3.3284e-05 3.3542e-05 3.3486e-05 6.6992e-05 6.7931e-05 3.3533e-05 0.00010206 6.691e-05 0.00010189 6.6916e-05 6.7385e-05 3.3961e-05
          3.3494e-05 6.6972e-05 3.4314e-05 0.00010186 3.3488e-05 0.00010156 6.7024e-05 0.00010161 0.00010234 3.3098e-05 6.7962e-05 6.8254e-05
          0.00010095 0.00010268 3.3685e-05 3.322e-05 6.5807e-05 3.3521e-05 6.7748e-05 6.748e-05 3.3772e-05 3.344e-05 0.00010104 9.9259e-05
          6.6757e-05 0.00010008 3.3808e-05 0.00010088 9.974e-05
        </DataArray>
        <DataArray type="Float32" Name="pcEntry" NumberOfComponents="1" format="ascii">
          4106.16 4041.12 4068.17 4111.71 4091.54 4055.86 4106.53 4026.48 4092.15 3993.09 4110.11 4057.91
          4128.35 4095.46 4090.19 4049.74 4027.91 4053.82 4081.16 4033.01 4033.61 4061.04 4042.79 4049.26
          4106.28 4035.16 4092.76 4090.56 4058.75 4078.48 4071.32 4041.84 4023.64 4073.98 4052.74 4075.68
          4056.7 4048.18 4091.17 4054.78 4041.6 4062.25 3996.24 4090.8 4096.07 4137.71 4029.09 4030.87
          4069.26 4029.57 4058.51 4054.18 4061.4 4048.18 4061.88 3954.18 4113.69 4142.1 4112.58 4110.72
          4083.6 4072.89 4074.83 4043.99 4050.21 4035.51 3994.26 4016.55 4118.52 4161.77 4029.45 4141.35
          4063.21 4064.54 3976.37 4068.77 4086.65 4056.46 4055.98 4063.09 4090.8 4116.04 4053.1 4121.01
          4108.13 4012.19 4083.11 4071.68 4029.57 4078.24 4024.35 4080.06 4025.06 4040.52 4074.59 4101.35
          4108.62 4077.02 4083.84 4082.62 4026.13 4078.12 4019.74 4087.62 4026.6 4087.26 4058.75 4026.72
          4082.86 4083.84 3985.3 4027.55 4083.6 4039.69 4080.67 4037.42 4008.78 4131.71 4024.35 4007.13
          4064.06 3995.54 4059.71 4116.54 4156.2 4079.58 4037.06 4053.1 4049.26 4089.46 4060.08 4133.21
          4097.05 4099.39 4044.94 4066.59 4113.2
        </DataArray>
        <DataArray type="Float32" Name="transmissibilityW" NumberOfComponents="1" format="ascii">
          1.03853e-14 1.21989e-16 3.31687e-17 6.89564e-15 1.04972e-14 1.50129e-17 6.92186e-15 2.22385e-17 6.99529e-15 1.47698e-17 1.52024e-17 2.15208e-14
          6.81256e-15 2.27394e-17 7.0052e-15 1.08255e-14 1.10024e-14 7.19547e-15 2.1155e-14 1.09607e-14 7.30394e-15 1.07357e-14 7.25421e-15 7.21938e-15
          2.69313e-17 5.29297e-17 1.04878e-14 2.10095e-14 1.07538e-14 1.05984e-14 7.10273e-15 1.48823e-17 1.48151e-17 1.50005e-17 1.08015e-14 7.08005e-15
          1.07698e-14 2.16763e-14 2.10001e-14 7.19006e-15 2.244e-17 7.15077e-15 4.43763e-17 2.27132e-17 1.04624e-14 2.02994e-14 1.09931e-14 5.57049e-17
          7.52471e-17 1.33415e-17 1.12174e-16 2.15802e-14 2.14653e-14 2.16763e-14 2.14576e-14 2.32591e-14 1.03285e-14 2.02349e-14 1.03371e-14 6.90054e-15
          4.96921e-17 1.06419e-14 1.0627e-14 2.17438e-14 1.08216e-14 7.29374e-15 7.52208e-15 2.21924e-14 2.05845e-14 9.97473e-15 1.099e-14 1.01228e-14
          2.14366e-14 7.13817e-15 2.28719e-14 2.13488e-14 2.10699e-14 2.15438e-14 1.07757e-14 1.07194e-14 2.10058e-14 6.87382e-15 7.19916e-15 6.84902e-15
          2.07411e-14 7.42176e-15 7.0413e-15 7.10089e-15 8.89431e-18 7.06656e-15 1.10318e-14 2.11721e-14 1.10258e-14 2.17998e-14 2.12575e-14 9.05258e-18
          1.41198e-17 2.12195e-14 2.11134e-14 1.05662e-14 1.10174e-14 2.12024e-14 7.37989e-15 1.05274e-14 7.34192e-15 1.05302e-14 1.07538e-14 2.20247e-14
          2.11285e-14 1.05567e-14 2.27186e-14 7.33716e-15 2.11172e-14 7.27081e-15 1.05813e-14 7.28356e-15 7.4405e-15 2.03879e-14 1.10318e-14 1.11746e-14
          7.14086e-15 7.51462e-15 2.1492e-14 2.06142e-14 1.00147e-14 2.11797e-14 1.09279e-14 1.07987e-14 2.1659e-14 2.10265e-14 7.16253e-15 6.78852e-15
          1.04547e-14 6.95781e-15 2.17283e-14 7.12799e-15 6.88824e-15
        </DataArray>
        <DataArray type="Float32" Name="transmissibilityN" NumberOfComponents="1" format="ascii">
          0 1.74953e-14 1.91634e-14 0 0 6.32337e-15 0 9.71741e-15 0 6.65518e-15 6.05361e-15 0
          0 9.18728e-15 0 0 0 0 0 0 0 0 0 0
          8.99408e-15 1.9059e-14 0 0 0 0 0 6.39803e-15 6.49325e-15 6.23384e-15 0 0
          0 0 0 0 9.59519e-15 0 1.99129e-14 9.22155e-15 0 0 0 8.91741e-15
          1.80019e-14 9.99674e-15 1.74179e-14 0 0 0 0 0 0 0 0 0
          8.6494e-15 0 0 0 0 0 0 0 0 0 0 0
          0 0 0 0 0 0 0 0 0 0 0 0
          0 0 0 0 6.66446e-15 0 0 0 0 0 0 6.29668e-15
          1.93601e-14 0 0 0 0 0 0 0 0 0 0 0
          0 0 0 0 0 0 0 0 0 0 0 0
          0 0 0 0 0 0 0 0 0 0 0 0
          0 0 0 0 0
        </DataArray>
        <DataArray type="Float32" Name="volumeFluxW" NumberOfComponents="1" format="ascii">
          6.38343e-10 4.95554e-11 1.3738e-11 2.37104e-10 1.13211e-10 1.91038e-11 5.82386e-10 2.52133e-11 1.13211e-10 1.84166e-11 9.86334e-13 0
          0 3.20474e-11 7.17739e-10 0 0 0 0 1.10218e-09 1.10218e-09 0 1.58266e-10 1.58266e-10
          2.92351e-11 5.70965e-11 6.61794e-10 6.45442e-10 1.79203e-10 1.79203e-10 0 1.87578e-11 1.72293e-11 1.88137e-11 1.28021e-09 3.67901e-11
          1.98022e-10 1.8626e-09 1.76556e-09 3.87465e-09 2.47385e-11 0 2.7056e-11 1.26465e-11 3.7094e-09 9.3693e-10 0 1.75742e-11
          2.17051e-11 1.71826e-11 9.17995e-11 9.4391e-10 1.27392e-09 1.47808e-10 1.50171e-10 1.21757e-10 2.32217e-10 2.06962e-10 1.47012e-10 3.27039e-10
          3.64153e-11 6.61794e-10 3.56777e-10 3.90556e-12 1.99128e-11 1.02373e-09 3.41944e-11 6.70617e-11 6.30944e-09 6.90238e-09 1.10377e-09 1.05445e-09
          1.49552e-09 2.51925e-09 3.14812e-09 1.32452e-09 1.54822e-09 1.31034e-08 1.31034e-08 1.10377e-09 4.41074e-10 4.06879e-10 3.41944e-11 3.44425e-09
          1.04041e-09 2.23939e-09 1.21475e-08 2.87582e-09 2.74689e-11 8.23951e-09 5.42566e-09 1.64294e-08 4.98332e-09 1.04041e-09 1.83541e-09 2.52857e-11
          9.80791e-12 7.24554e-11 8.43229e-11 1.58879e-10 8.16208e-11 1.01303e-09 2.07312e-10 1.22034e-09 1.10715e-09 2.07312e-10 2.32749e-09 4.10183e-11
          2.8064e-10 4.10183e-11 0 0 1.06499e-09 3.09817e-09 2.56594e-10 3.97796e-09 2.33148e-09 0 2.23939e-09 1.86735e-09
          1.45857e-09 0 2.32749e-09 2.43962e-08 2.33148e-09 1.21475e-08 5.02253e-09 5.4577e-10 3.73289e-09 5.02253e-09 2.49867e-08 0
          0 6.05901e-09 1.52726e-11 0 1.80314e-08
        </DataArray>
        <DataArray type="Float32" Name="volumeFluxN" NumberOfComponents="1" format="ascii">
          0 2.2481e-08 6.73968e-10 0 0 5.28343e-08 0 2.46006e-09 0 2.23986e-08 2.24277e-08 0
          0 7.56069e-10 0 0 0 0 0 0 0 0 0 0
          3.27088e-10 4.19919e-10 0 0 0 0 0 1.60896e-09 8.60984e-10 7.81019e-11 0 0
          0 0 0 0 2.72936e-10 0 5.82545e-10 7.38351e-08 0 0 0 1.1146e-09
          1.60549e-10 6.60779e-08 6.63223e-09 0 0 0 0 0 0 0 0 0
          2.37854e-10 0 0 0 0 0 0 0 0 0 0 0
          0 0 0 0 0 0 0 0 0 0 0 0
          0 0 0 0 3.01092e-08 0 0 0 0 0 0 3.60794e-08
          6.31755e-12 0 0 0 0 0 0 0 0 0 0 0
          0 0 0 0 0 0 0 0 0 0 0 0
          0 0 0 0 0 0 0 0 0 0 0 0
          0 0 0 0 0
        </DataArray>
      </CellData>
      <Points>
        <DataArray type="Float32" Name="Coordinates" NumberOfComponents="3" format="ascii">
          2 2 3 1 1 4 2 1 4 1 1 5
          2 1 1 1 2 1 1 2 3 2 1 3
          2 3 4 2 2 4 2 2 2 1 2 4
          1 2 5 2 3 2 1 3 2 2 3 3
          1 3 4 2 4 4 1 3 5 1 4 1
          1 4 2 1 4 4 2 3 5 1 4 5
          2 5 4 2 4 2 1 5 1 1 5 4
          3 1 1 3 2 1 3 1 4 3 1 3
          2 2 1 3 3 1 3 3 3 3 2 3
          3 2 2 2 2 5 3 2 5 3 2 4
          2 4 3 3 4 5 3 3 2 3 4 3
          3 5 4 3 4 2 4 1 2 3 1 2
          4 2 1 4 1 1 4 2 4 4 2 2
          4 3 1 4 2 5 3 3 5 4 4 1
          4 2 3 4 3 5 3 3 4 4 3 3
          3 4 1 3 5 3 4 3 2 4 4 2
          3 5 2 3 4 4 4 5 4 4 3 4
          4 4 3 4 4 5 4 5 3 5 2 2
          4 1 4 4 1 3 5 2 3 5 2 5
          5 3 2 5 1 1 5 1 3 5 3 3
          5 2 4 5 4 1 5 3 4 5 4 5
          5 5 1 4 4 4 5 3 5 5 4 4
          5 5 4 5 4 3
        </DataArray>
      </Points>
      <Lines>
        <DataArray type="Int32" Name="connectivity" NumberOfComponents="1" format="ascii">
          0 1 2 3 4 5 0 6 7 6 8 6
          9 6 10 6 7 11 2 12 8 12 13 14
          15 14 8 16 0 16 17 18 13 19 15 20
          17 21 22 23 24 23 25 26 24 27 17 27
          28 4 29 4 30 2 31 2 29 32 33 32
          13 32 33 10 34 10 35 10 9 0 34 0
          36 0 37 9 38 37 22 37 8 37 15 13
          39 8 40 8 41 22 39 22 42 25 43 40
          17 40 44 40 45 40 24 17 41 17 29 28
          46 28 31 47 36 47 48 47 49 47 50 31
          39 31 38 30 33 29 46 29 51 29 42 29
          52 36 50 35 53 39 34 39 54 38 55 33
          55 42 43 42 56 34 51 34 45 34 57 58
          59 58 50 54 55 60 45 60 52 60 43 45
          61 45 62 43 63 43 64 43 44 65 66 65
          67 65 59 65 57 41 61 64 68 64 69 44
          70 44 46 49 48 49 71 49 48 46 72 73
          74 73 71 73 50 72 74 72 75 72 76 48
          71 51 76 51 77 51 78 51 79 51 67 56
          79 50 57 53 80 53 81 52 71 62 79 59
          71 59 82 67 75 67 83 57 80 57 84 63
          85 68 79 68 66 68 69 85 83 69 86 69
          87 69 66 69 88 70 89 66 83 66
        </DataArray>
        <DataArray type="Int32" Name="offsets" NumberOfComponents="1" format="ascii">
          2 4 6 8 10 12 14 16 18 20 22 24
          26 28 30 32 34 36 38 40 42 44 46 48
          50 52 54 56 58 60 62 64 66 68 70 72
          74 76 78 80 82 84 86 88 90 92 94 96
          98 100 102 104 106 108 110 112 114 116 118 120
          122 124 126 128 130 132 134 136 138 140 142 144
          146 148 150 152 154 156 158 160 162 164 166 168
          170 172 174 176 178 180 182 184 186 188 190 192
          194 196 198 200 202 204 206 208 210 212 214 216
          218 220 222 224 226 228 230 232 234 236 238 240
          242 244 246 248 250 252 254 256 258 260 262 264
          266 268 270 272 274
        </DataArray>
      </Lines>
    </Piece>
  </PolyData>
</VTKFile>
