<?xml version="1.0"?>
<VTKFile type="UnstructuredGrid" version="0.1" byte_order="LittleEndian">
  <UnstructuredGrid>
    <Piece NumberOfCells="512" NumberOfPoints="729">
      <CellData Scalars="wetting pressure" Vectors="wetting-velocity">
        <DataArray type="Float32" Name="wetting pressure" NumberOfComponents="1" format="ascii">
          1.23805 1.17125 1.15816 1.18328 1.19897 1.16408 1.15381 1.1718 1.14493 1.1294 1.12664 1.14001
          1.14271 1.12839 1.12554 1.13809 1.13309 1.12172 1.11442 1.12549 1.13144 1.12051 1.1136 1.12407
          1.15743 1.14554 1.13486 1.14178 1.15243 1.14269 1.13274 1.1388 1.17498 1.15546 1.14755 1.15965
          1.15933 1.1474 1.14098 1.14927 1.13908 1.12645 1.12341 1.13477 1.13485 1.12379 1.1206 1.13071
          1.12837 1.11759 1.11259 1.12126 1.12434 1.11433 1.11185 1.11598 1.14553 1.13806 1.12899 1.13415
          1.13848 1.1327 1.12416 1.12877 1.12028 1.1144 1.11282 1.11806 1.11948 1.11332 1.1124 1.11664
          1.11226 1.11178 1.11145 1.11188 1.11194 1.11145 1.11106 1.11151 1.11118 1.1108 1.11001 1.11033
          1.11072 1.11032 1.10937 1.10975 1.11322 1.1119 1.11096 1.11184 1.11268 1.1115 1.11046 1.11144
          1.11778 1.1124 1.11184 1.11418 1.11479 1.11177 1.11119 1.11276 1.1114 1.11091 1.11043 1.1109
          1.11078 1.11027 1.10968 1.11019 1.10997 1.10951 1.10827 1.10873 1.10908 1.10854 1.10688 1.10749
          1.11205 1.11084 1.10959 1.11074 1.11145 1.11008 1.10857 1.10996 1.13069 1.12561 1.11625 1.12177
          1.12835 1.12388 1.11503 1.11881 1.11685 1.11229 1.11132 1.1134 1.11517 1.11188 1.11081 1.11288
          1.11242 1.11065 1.11033 1.11196 1.11188 1.11006 1.10968 1.1114 1.11484 1.11397 1.11332 1.11408
          1.11424 1.11339 1.11277 1.11353 1.12464 1.12013 1.11362 1.11519 1.11976 1.11487 1.11235 1.11314
          1.11349 1.11111 1.10986 1.11191 1.11239 1.11022 1.10872 1.11079 1.11088 1.10894 1.10845 1.11037
          1.10965 1.10753 1.10685 1.10903 1.11319 1.11237 1.11177 1.11253 1.1119 1.11113 1.11051 1.11127
          1.11084 1.11006 1.10931 1.11002 1.11032 1.1094 1.10847 1.10935 1.1095 1.1092 1.10852 1.1088
          1.10872 1.10836 1.10744 1.1078 1.10832 1.10806 1.10785 1.1081 1.10712 1.10675 1.10641 1.10679
          1.10946 1.1088 1.10857 1.10919 1.10866 1.10779 1.10746 1.10831 1.10939 1.10822 1.10689 1.10813
          1.1083 1.10677 1.1048 1.10662 1.10732 1.10681 1.1053 1.10588 1.10547 1.10469 1.10201 1.1031
          1.10467 1.10398 1.1032 1.10397 1.10069 1.09909 1.09678 1.09892 1.10715 1.10581 1.10521 1.10661
          1.10517 1.10294 1.1017 1.10427 1.1432 1.13691 1.1328 1.13811 1.12865 1.12504 1.12245 1.12611
          1.12827 1.11886 1.11494 1.12489 1.11822 1.11297 1.11257 1.11523 1.11872 1.1128 1.11116 1.11339
          1.11344 1.11159 1.1102 1.11193 1.13087 1.12626 1.1181 1.12297 1.12135 1.11641 1.11334 1.11433
          1.11615 1.11419 1.11352 1.11469 1.11255 1.11224 1.11202 1.11236 1.1128 1.11163 1.11128 1.11247
          1.11164 1.11087 1.11056 1.11138 1.11173 1.1105 1.10935 1.11065 1.11079 1.10989 1.10887 1.10989
          1.1132 1.11269 1.11167 1.11218 1.11188 1.1115 1.11069 1.11113 1.11237 1.11088 1.11033 1.11187
          1.11119 1.10968 1.10916 1.11074 1.10984 1.1093 1.10867 1.10924 1.10858 1.10799 1.10734 1.10798
          1.10803 1.10738 1.10535 1.10617 1.10672 1.10594 1.10359 1.10468 1.11076 1.1092 1.10755 1.10922
          1.10977 1.10807 1.10639 1.10834 1.1102 1.10871 1.10821 1.1098 1.10967 1.10818 1.10769 1.10929
          1.10757 1.10694 1.10625 1.10696 1.107 1.10634 1.10562 1.10638 1.10563 1.10472 1.10204 1.10341
          1.10502 1.104 1.10108 1.10268 1.10893 1.10714 1.10545 1.10763 1.10849 1.10664 1.10494 1.10726
          1.11413 1.11305 1.11133 1.11208 1.11238 1.1117 1.11031 1.11103 1.11146 1.10945 1.10782 1.10985
          1.11037 1.10863 1.10705 1.10895 1.10864 1.10645 1.10561 1.10794 1.10781 1.10568 1.10483 1.10714
          1.1109 1.11014 1.10948 1.11026 1.11004 1.10928 1.10871 1.10951 1.11107 1.11049 1.10936 1.11002
          1.11022 1.10971 1.10872 1.10932 1.1094 1.10795 1.10646 1.10813 1.10878 1.10757 1.10616 1.10761
          1.10708 1.10512 1.10428 1.10645 1.1066 1.10486 1.10402 1.106 1.1092 1.10847 1.10797 1.10877
          1.10861 1.10791 1.10746 1.10824 1.10742 1.10544 1.10294 1.1055 1.10658 1.10413 1.10135 1.10463
          1.10359 1.10238 1.09817 1.10021 1.10168 1.09992 1.09424 1.09752 1.09613 1.09241 1.08602 1.09235
          1.09217 1.08558 1.07438 1.0869 1.10372 1.10031 1.09828 1.10252 1.10277 1.09832 1.09594 1.10151
          1.10594 1.10309 1.10009 1.10402 1.10563 1.10253 1.09942 1.10375 1.10002 1.09759 1.09009 1.09507
          1.09903 1.09604 1.08692 1.09353 1.08828 1.07691 1.05483 1.08087 1.08557 1.06819 1.0203 1.07576
          1.10216 1.09674 1.09401 1.10088 1.1019 1.09588 1.09291 1.10063
        </DataArray>
        <DataArray type="Float32" Name="nonwetting pressure" NumberOfComponents="1" format="ascii">
          1.23805 1.17125 1.15816 1.18328 1.19897 1.16408 1.15381 1.1718 1.14493 1.1294 1.12664 1.14001
          1.14271 1.12839 1.12554 1.13809 1.13309 1.12172 1.11442 1.12549 1.13144 1.12051 1.1136 1.12407
          1.15743 1.14554 1.13486 1.14178 1.15243 1.14269 1.13274 1.1388 1.17498 1.15546 1.14755 1.15965
          1.15933 1.1474 1.14098 1.14927 1.13908 1.12645 1.12341 1.13477 1.13485 1.12379 1.1206 1.13071
          1.12837 1.11759 1.11259 1.12126 1.12434 1.11433 1.11185 1.11598 1.14553 1.13806 1.12899 1.13415
          1.13848 1.1327 1.12416 1.12877 1.12028 1.1144 1.11282 1.11806 1.11948 1.11332 1.1124 1.11664
          1.11226 1.11178 1.11145 1.11188 1.11194 1.11145 1.11106 1.11151 1.11118 1.1108 1.11001 1.11033
          1.11072 1.11032 1.10937 1.10975 1.11322 1.1119 1.11096 1.11184 1.11268 1.1115 1.11046 1.11144
          1.11778 1.1124 1.11184 1.11418 1.11479 1.11177 1.11119 1.11276 1.1114 1.11091 1.11043 1.1109
          1.11078 1.11027 1.10968 1.11019 1.10997 1.10951 1.10827 1.10873 1.10908 1.10854 1.10688 1.10749
          1.11205 1.11084 1.10959 1.11074 1.11145 1.11008 1.10857 1.10996 1.13069 1.12561 1.11625 1.12177
          1.12835 1.12388 1.11503 1.11881 1.11685 1.11229 1.11132 1.1134 1.11517 1.11188 1.11081 1.11288
          1.11242 1.11065 1.11033 1.11196 1.11188 1.11006 1.10968 1.1114 1.11484 1.11397 1.11332 1.11408
          1.11424 1.11339 1.11277 1.11353 1.12464 1.12013 1.11362 1.11519 1.11976 1.11487 1.11235 1.11314
          1.11349 1.11111 1.10986 1.11191 1.11239 1.11022 1.10872 1.11079 1.11088 1.10894 1.10845 1.11037
          1.10965 1.10753 1.10685 1.10903 1.11319 1.11237 1.11177 1.11253 1.1119 1.11113 1.11051 1.11127
          1.11084 1.11006 1.10931 1.11002 1.11032 1.1094 1.10847 1.10935 1.1095 1.1092 1.10852 1.1088
          1.10872 1.10836 1.10744 1.1078 1.10832 1.10806 1.10785 1.1081 1.10712 1.10675 1.10641 1.10679
          1.10946 1.1088 1.10857 1.10919 1.10866 1.10779 1.10746 1.10831 1.10939 1.10822 1.10689 1.10813
          1.1083 1.10677 1.1048 1.10662 1.10732 1.10681 1.1053 1.10588 1.10547 1.10469 1.10201 1.1031
          1.10467 1.10398 1.1032 1.10397 1.10069 1.09909 1.09678 1.09892 1.10715 1.10581 1.10521 1.10661
          1.10517 1.10294 1.1017 1.10427 1.1432 1.13691 1.1328 1.13811 1.12865 1.12504 1.12245 1.12611
          1.12827 1.11886 1.11494 1.12489 1.11822 1.11297 1.11257 1.11523 1.11872 1.1128 1.11116 1.11339
          1.11344 1.11159 1.1102 1.11193 1.13087 1.12626 1.1181 1.12297 1.12135 1.11641 1.11334 1.11433
          1.11615 1.11419 1.11352 1.11469 1.11255 1.11224 1.11202 1.11236 1.1128 1.11163 1.11128 1.11247
          1.11164 1.11087 1.11056 1.11138 1.11173 1.1105 1.10935 1.11065 1.11079 1.10989 1.10887 1.10989
          1.1132 1.11269 1.11167 1.11218 1.11188 1.1115 1.11069 1.11113 1.11237 1.11088 1.11033 1.11187
          1.11119 1.10968 1.10916 1.11074 1.10984 1.1093 1.10867 1.10924 1.10858 1.10799 1.10734 1.10798
          1.10803 1.10738 1.10535 1.10617 1.10672 1.10594 1.10359 1.10468 1.11076 1.1092 1.10755 1.10922
          1.10977 1.10807 1.10639 1.10834 1.1102 1.10871 1.10821 1.1098 1.10967 1.10818 1.10769 1.10929
          1.10757 1.10694 1.10625 1.10696 1.107 1.10634 1.10562 1.10638 1.10563 1.10472 1.10204 1.10341
          1.10502 1.104 1.10108 1.10268 1.10893 1.10714 1.10545 1.10763 1.10849 1.10664 1.10494 1.10726
          1.11413 1.11305 1.11133 1.11208 1.11238 1.1117 1.11031 1.11103 1.11146 1.10945 1.10782 1.10985
          1.11037 1.10863 1.10705 1.10895 1.10864 1.10645 1.10561 1.10794 1.10781 1.10568 1.10483 1.10714
          1.1109 1.11014 1.10948 1.11026 1.11004 1.10928 1.10871 1.10951 1.11107 1.11049 1.10936 1.11002
          1.11022 1.10971 1.10872 1.10932 1.1094 1.10795 1.10646 1.10813 1.10878 1.10757 1.10616 1.10761
          1.10708 1.10512 1.10428 1.10645 1.1066 1.10486 1.10402 1.106 1.1092 1.10847 1.10797 1.10877
          1.10861 1.10791 1.10746 1.10824 1.10742 1.10544 1.10294 1.1055 1.10658 1.10413 1.10135 1.10463
          1.10359 1.10238 1.09817 1.10021 1.10168 1.09992 1.09424 1.09752 1.09613 1.09241 1.08602 1.09235
          1.09217 1.08558 1.07438 1.0869 1.10372 1.10031 1.09828 1.10252 1.10277 1.09832 1.09594 1.10151
          1.10594 1.10309 1.10009 1.10402 1.10563 1.10253 1.09942 1.10375 1.10002 1.09759 1.09009 1.09507
          1.09903 1.09604 1.08692 1.09353 1.08828 1.07691 1.05483 1.08087 1.08557 1.06819 1.0203 1.07576
          1.10216 1.09674 1.09401 1.10088 1.1019 1.09588 1.09291 1.10063
        </DataArray>
        <DataArray type="Float32" Name="capillary pressure" NumberOfComponents="1" format="ascii">
          0 0 0 0 0 0 0 0 0 0 0 0
          0 0 0 0 0 0 0 0 0 0 0 0
          0 0 0 0 0 0 0 0 0 0 0 0
          0 0 0 0 0 0 0 0 0 0 0 0
          0 0 0 0 0 0 0 0 0 0 0 0
          0 0 0 0 0 0 0 0 0 0 0 0
          0 0 0 0 0 0 0 0 0 0 0 0
          0 0 0 0 0 0 0 0 0 0 0 0
          0 0 0 0 0 0 0 0 0 0 0 0
          0 0 0 0 0 0 0 0 0 0 0 0
          0 0 0 0 0 0 0 0 0 0 0 0
          0 0 0 0 0 0 0 0 0 0 0 0
          0 0 0 0 0 0 0 0 0 0 0 0
          0 0 0 0 0 0 0 0 0 0 0 0
          0 0 0 0 0 0 0 0 0 0 0 0
          0 0 0 0 0 0 0 0 0 0 0 0
          0 0 0 0 0 0 0 0 0 0 0 0
          0 0 0 0 0 0 0 0 0 0 0 0
          0 0 0 0 0 0 0 0 0 0 0 0
          0 0 0 0 0 0 0 0 0 0 0 0
          0 0 0 0 0 0 0 0 0 0 0 0
          0 0 0 0 0 0 0 0 0 0 0 0
          0 0 0 0 0 0 0 0 0 0 0 0
          0 0 0 0 0 0 0 0 0 0 0 0
          0 0 0 0 0 0 0 0 0 0 0 0
          0 0 0 0 0 0 0 0 0 0 0 0
          0 0 0 0 0 0 0 0 0 0 0 0
          0 0 0 0 0 0 0 0 0 0 0 0
          0 0 0 0 0 0 0 0 0 0 0 0
          0 0 0 0 0 0 0 0 0 0 0 0
          0 0 0 0 0 0 0 0 0 0 0 0
          0 0 0 0 0 0 0 0 0 0 0 0
          0 0 0 0 0 0 0 0 0 0 0 0
          0 0 0 0 0 0 0 0 0 0 0 0
          0 0 0 0 0 0 0 0 0 0 0 0
          0 0 0 0 0 0 0 0 0 0 0 0
          0 0 0 0 0 0 0 0 0 0 0 0
          0 0 0 0 0 0 0 0 0 0 0 0
          0 0 0 0 0 0 0 0 0 0 0 0
          0 0 0 0 0 0 0 0 0 0 0 0
          0 0 0 0 0 0 0 0 0 0 0 0
          0 0 0 0 0 0 0 0 0 0 0 0
          0 0 0 0 0 0 0 0
        </DataArray>
        <DataArray type="Float32" Name="wetting mobility" NumberOfComponents="1" format="ascii">
          842.223 669.61 569.779 704.007 755.285 615.227 529.161 640.815 498.52 327.736 264.144 429.439
          469.473 310.649 244.121 405.518 347 138.066 1.08392 225.218 324.393 96.6921 0.100181 185.06
          572.549 469.205 363.545 448.679 526.725 437.907 334.868 412.976 673.658 559.092 483.052 575.787
          595.092 502.068 433.42 510.668 433.997 282.421 203.406 373.09 393.26 237.55 116.072 331.465
          287.671 26.6628 0.000138764 95.0952 222.764 0.498417 3.51313e-13 3.5484 474.628 398.194 290.106 366.115
          418.087 349.549 209.064 304.006 227.421 9.60636 0.00386559 105.064 183.11 0.469344 1.97629e-06 39.1461
          2.9701e-10 0 0 4.55064e-27 3.66586e-17 0 0 0 0 0 0 0
          0 0 0 0 0.18686 7.77267e-19 0 1.78987e-14 0.00368609 9.42263e-27 0 1.17633e-19
          96.6078 0.000663149 2.03889e-13 2.2867 7.63733 7.86615e-11 1.3188e-26 0.00387958 1.2233e-30 0 0 0
          0 0 0 0 0 0 0 0 0 0 0 0
          2.71264e-07 0 0 9.49546e-33 1.92436e-16 0 0 0 315.835 213.131 1.1764 81.5715
          276.829 157.928 0.0345778 20.9225 7.13396 1.0937e-11 0 2.70335e-11 0.57288 3.98243e-17 0 3.88794e-17
          0 0 0 0 0 0 0 0 0.000188234 2.16293e-15 0 8.3004e-34
          1.94123e-08 7.84008e-23 0 0 205.09 47.0289 1.74883e-06 0.426407 59.8597 0.316181 4.05271e-18 7.37958e-06
          0.000452711 3.60517e-31 0 1.09561e-31 3.77639e-13 0 0 0 0 0 0 0
          0 0 0 0 1.38414e-17 0 0 0 0 0 0 0
          0 0 0 0 0 0 0 0 0 0 0 0
          0 0 0 0 0 0 0 0 0 0 0 0
          0 0 0 0 0 0 0 0 0 0 0 0
          0 0 0 0 0 0 0 0 0 0 0 0
          0 0 0 0 0 0 0 0 0 0 0 0
          0 0 0 0 450.932 379.461 326.793 392.873 287.075 206.938 122.846 234.155
          274.923 39.806 0.520818 200.1 23.78 1.15891e-06 1.62486e-16 0.36923 19.9313 6.37126e-09 0 3.33754e-08
          3.3234e-09 0 0 0 314.777 236.119 14.1461 164.083 104.139 2.72902 1.03439e-09 0.114235
          14.1799 0.177874 0.00106671 1.41643 4.34812e-10 9.6756e-20 4.38284e-30 2.95262e-15 4.98822e-09 0 0 2.41586e-18
          0 0 0 0 0 0 0 0 0 0 0 0
          0.000427824 1.04089e-13 0 1.61527e-20 7.4646e-32 0 0 0 2.77328e-06 0 0 1.86321e-16
          0 0 0 0 0 0 0 0 0 0 0 0
          0 0 0 0 0 0 0 0 0 0 0 0
          0 0 0 0 0 0 0 0 0 0 0 0
          0 0 0 0 0 0 0 0 0 0 0 0
          0 0 0 0 0 0 0 0 0 0 0 0
          0.0564706 9.02473e-10 0 8.58093e-22 6.59526e-20 0 0 0 0 0 0 0
          0 0 0 0 0 0 0 0 0 0 0 0
          0 0 0 0 0 0 0 0 0 0 0 0
          0 0 0 0 0 0 0 0 0 0 0 0
          0 0 0 0 0 0 0 0 0 0 0 0
          0 0 0 0 0 0 0 0 0 0 0 0
          0 0 0 0 0 0 0 0 0 0 0 0
          0 0 0 0 0 0 0 0 0 0 0 0
          0 0 0 0 0 0 0 0 0 0 0 0
          0 0 0 0 0 0 0 0 0 0 0 0
          0 0 0 0 0 0 0 0
        </DataArray>
        <DataArray type="Float32" Name="nonwetting mobility" NumberOfComponents="1" format="ascii">
          0.145262 1.65379 4.21922 1.13572 0.601145 2.81996 5.89804 2.21148 7.49917 25.3224 38.954 12.5066
          9.33995 28.4307 44.6524 14.82 22.2121 95.7957 647.97 50.8555 25.9031 134.839 801.812 67.4746
          4.12067 9.35861 19.8343 10.8843 6.01396 11.7681 24.125 14.0608 1.58499 4.61744 8.43665 4.0078
          3.38508 7.29701 12.1544 6.82588 12.1042 34.4135 59.218 18.5732 16.1486 46.7105 114.267 24.6894
          33.2121 297.125 961.413 136.765 51.7273 707.34 999.726 537.396 8.98779 15.6013 32.6694 19.4871
          13.5608 21.829 56.9099 29.7377 50.0864 425.625 911.489 125.358 68.428 711.532 986.666 247.252
          998.524 1000 1000 1000 999.972 1000 1000 1000 1000 1000 1000 1000
          1000 1000 1000 1000 769.175 999.989 1000 999.87 912.531 1000 1000 999.993
          134.94 942.973 999.761 581.274 452.79 998.941 1000 911.409 1000 1000 1000 1000
          1000 1000 1000 1000 1000 1000 1000 1000 1000 1000 1000 1000
          991.883 1000 1000 1000 999.958 1000 1000 1000 27.4498 55.3134 641.13 154.854
          35.7419 82.3184 847.501 328.455 460.71 999.353 1000 999.189 697.415 999.972 1000 999.972
          1000 1000 1000 1000 1000 1000 1000 1000 958.359 999.923 1000 1000
          995.802 999.999 1000 1000 58.5203 223.581 987.067 718.109 192.909 737.732 999.984 981.465
          948.156 1000 1000 1000 999.721 1000 1000 1000 1000 1000 1000 1000
          1000 1000 1000 1000 999.978 1000 1000 1000 1000 1000 1000 1000
          1000 1000 1000 1000 1000 1000 1000 1000 1000 1000 1000 1000
          1000 1000 1000 1000 1000 1000 1000 1000 1000 1000 1000 1000
          1000 1000 1000 1000 1000 1000 1000 1000 1000 1000 1000 1000
          1000 1000 1000 1000 1000 1000 1000 1000 1000 1000 1000 1000
          1000 1000 1000 1000 1000 1000 1000 1000 1000 1000 1000 1000
          1000 1000 1000 1000 10.7069 17.7735 25.4849 16.1922 33.3463 57.7649 108.106 47.8137
          36.2066 245.088 704.239 60.6161 311.947 988.331 999.96 727.719 334.687 996.823 1000 995.193
          997.3 1000 1000 1000 27.6472 47.1721 378.145 78.6296 126.357 564.029 997.983 795.329
          377.846 771.931 935.79 625.189 998.376 999.994 1000 999.917 997.011 1000 1000 999.986
          1000 1000 1000 1000 1000 1000 1000 1000 1000 1000 1000 1000
          948.883 999.798 1000 999.996 1000 1000 1000 1000 985.487 1000 1000 999.958
          1000 1000 1000 1000 1000 1000 1000 1000 1000 1000 1000 1000
          1000 1000 1000 1000 1000 1000 1000 1000 1000 1000 1000 1000
          1000 1000 1000 1000 1000 1000 1000 1000 1000 1000 1000 1000
          1000 1000 1000 1000 1000 1000 1000 1000 1000 1000 1000 1000
          1000 1000 1000 1000 1000 1000 1000 1000 1000 1000 1000 1000
          827.872 998.051 1000 999.998 999.994 1000 1000 1000 1000 1000 1000 1000
          1000 1000 1000 1000 1000 1000 1000 1000 1000 1000 1000 1000
          1000 1000 1000 1000 1000 1000 1000 1000 1000 1000 1000 1000
          1000 1000 1000 1000 1000 1000 1000 1000 1000 1000 1000 1000
          1000 1000 1000 1000 1000 1000 1000 1000 1000 1000 1000 1000
          1000 1000 1000 1000 1000 1000 1000 1000 1000 1000 1000 1000
          1000 1000 1000 1000 1000 1000 1000 1000 1000 1000 1000 1000
          1000 1000 1000 1000 1000 1000 1000 1000 1000 1000 1000 1000
          1000 1000 1000 1000 1000 1000 1000 1000 1000 1000 1000 1000
          1000 1000 1000 1000 1000 1000 1000 1000 1000 1000 1000 1000
          1000 1000 1000 1000 1000 1000 1000 1000
        </DataArray>
        <DataArray type="Float32" Name="wetting saturation" NumberOfComponents="1" format="ascii">
          0.77486 0.742943 0.72154 0.749764 0.759477 0.731606 0.712021 0.737033 0.70448 0.654636 0.631146 0.686108
          0.697 0.648678 0.622966 0.679236 0.661097 0.568929 0.315017 0.614898 0.653494 0.539401 0.264776 0.595853
          0.722174 0.696926 0.666441 0.691438 0.711437 0.688465 0.657061 0.681417 0.743763 0.719085 0.700528 0.722906
          0.72722 0.705363 0.687211 0.707506 0.687383 0.638315 0.604819 0.669433 0.675602 0.620295 0.554894 0.655922
          0.640335 0.45081 0.213344 0.538715 0.614044 0.296015 0.200113 0.355628 0.698348 0.677067 0.641242 0.667259
          0.682882 0.661937 0.607809 0.646356 0.615927 0.396928 0.230456 0.546966 0.59496 0.294932 0.20496 0.475791
          0.200584 0.2 0.2 0.2 0.200012 0.2 0.2 0.2 0.2 0.2 0.2 0.2
          0.2 0.2 0.2 0.2 0.276599 0.200005 0.2 0.200052 0.229727 0.2 0.2 0.200003
          0.540256 0.219689 0.200098 0.339461 0.386476 0.200416 0.2 0.229848 0.2 0.2 0.2 0.2
          0.2 0.2 0.2 0.2 0.2 0.2 0.2 0.2 0.2 0.2 0.2 0.2
          0.202995 0.2 0.2 0.2 0.200018 0.2 0.2 0.2 0.650526 0.609378 0.316836 0.525146
          0.636199 0.581098 0.249669 0.434835 0.381854 0.200247 0.2 0.200311 0.299147 0.200012 0.2 0.200012
          0.2 0.2 0.2 0.2 0.2 0.2 0.2 0.2 0.213945 0.20003 0.2 0.2
          0.201502 0.2 0.2 0.2 0.60564 0.486861 0.20464 0.291181 0.503451 0.285859 0.200007 0.206519
          0.217929 0.2 0.2 0.2 0.200116 0.2 0.2 0.2 0.2 0.2 0.2 0.2
          0.2 0.2 0.2 0.2 0.200009 0.2 0.2 0.2 0.2 0.2 0.2 0.2
          0.2 0.2 0.2 0.2 0.2 0.2 0.2 0.2 0.2 0.2 0.2 0.2
          0.2 0.2 0.2 0.2 0.2 0.2 0.2 0.2 0.2 0.2 0.2 0.2
          0.2 0.2 0.2 0.2 0.2 0.2 0.2 0.2 0.2 0.2 0.2 0.2
          0.2 0.2 0.2 0.2 0.2 0.2 0.2 0.2 0.2 0.2 0.2 0.2
          0.2 0.2 0.2 0.2 0.2 0.2 0.2 0.2 0.2 0.2 0.2 0.2
          0.2 0.2 0.2 0.2 0.69206 0.671421 0.654326 0.675497 0.640079 0.606402 0.559324 0.618742
          0.635486 0.475245 0.297311 0.603451 0.443541 0.204252 0.200017 0.289619 0.43531 0.201243 0.2 0.201905
          0.201065 0.2 0.2 0.2 0.650171 0.619806 0.416991 0.584935 0.545661 0.3458 0.200808 0.267857
          0.412634 0.273007 0.221338 0.321494 0.20057 0.200002 0.2 0.200031 0.2011 0.2 0.2 0.200006
          0.2 0.2 0.2 0.2 0.2 0.2 0.2 0.2 0.2 0.2 0.2 0.2
          0.217247 0.200083 0.2 0.200002 0.2 0.2 0.2 0.2 0.205218 0.2 0.2 0.200018
          0.2 0.2 0.2 0.2 0.2 0.2 0.2 0.2 0.2 0.2 0.2 0.2
          0.2 0.2 0.2 0.2 0.2 0.2 0.2 0.2 0.2 0.2 0.2 0.2
          0.2 0.2 0.2 0.2 0.2 0.2 0.2 0.2 0.2 0.2 0.2 0.2
          0.2 0.2 0.2 0.2 0.2 0.2 0.2 0.2 0.2 0.2 0.2 0.2
          0.2 0.2 0.2 0.2 0.2 0.2 0.2 0.2 0.2 0.2 0.2 0.2
          0.256946 0.200777 0.2 0.200001 0.200003 0.2 0.2 0.2 0.2 0.2 0.2 0.2
          0.2 0.2 0.2 0.2 0.2 0.2 0.2 0.2 0.2 0.2 0.2 0.2
          0.2 0.2 0.2 0.2 0.2 0.2 0.2 0.2 0.2 0.2 0.2 0.2
          0.2 0.2 0.2 0.2 0.2 0.2 0.2 0.2 0.2 0.2 0.2 0.2
          0.2 0.2 0.2 0.2 0.2 0.2 0.2 0.2 0.2 0.2 0.2 0.2
          0.2 0.2 0.2 0.2 0.2 0.2 0.2 0.2 0.2 0.2 0.2 0.2
          0.2 0.2 0.2 0.2 0.2 0.2 0.2 0.2 0.2 0.2 0.2 0.2
          0.2 0.2 0.2 0.2 0.2 0.2 0.2 0.2 0.2 0.2 0.2 0.2
          0.2 0.2 0.2 0.2 0.2 0.2 0.2 0.2 0.2 0.2 0.2 0.2
          0.2 0.2 0.2 0.2 0.2 0.2 0.2 0.2 0.2 0.2 0.2 0.2
          0.2 0.2 0.2 0.2 0.2 0.2 0.2 0.2
        </DataArray>
        <DataArray type="Float32" Name="nonwetting saturation" NumberOfComponents="1" format="ascii">
          0.22514 0.257057 0.27846 0.250236 0.240523 0.268394 0.287979 0.262967 0.29552 0.345364 0.368854 0.313892
          0.303 0.351322 0.377034 0.320764 0.338903 0.431071 0.684983 0.385102 0.346506 0.460599 0.735224 0.404147
          0.277826 0.303074 0.333559 0.308562 0.288563 0.311535 0.342939 0.318583 0.256237 0.280915 0.299472 0.277094
          0.27278 0.294637 0.312789 0.292494 0.312617 0.361685 0.395181 0.330567 0.324398 0.379705 0.445106 0.344078
          0.359665 0.54919 0.786656 0.461285 0.385956 0.703985 0.799887 0.644372 0.301652 0.322933 0.358758 0.332741
          0.317118 0.338063 0.392191 0.353644 0.384073 0.603072 0.769544 0.453034 0.40504 0.705068 0.79504 0.524209
          0.799416 0.8 0.8 0.8 0.799988 0.8 0.8 0.8 0.8 0.8 0.8 0.8
          0.8 0.8 0.8 0.8 0.723401 0.799995 0.8 0.799948 0.770273 0.8 0.8 0.799997
          0.459744 0.780311 0.799902 0.660539 0.613524 0.799584 0.8 0.770152 0.8 0.8 0.8 0.8
          0.8 0.8 0.8 0.8 0.8 0.8 0.8 0.8 0.8 0.8 0.8 0.8
          0.797005 0.8 0.8 0.8 0.799982 0.8 0.8 0.8 0.349474 0.390622 0.683164 0.474854
          0.363801 0.418902 0.750331 0.565165 0.618146 0.799753 0.8 0.799689 0.700853 0.799988 0.8 0.799988
          0.8 0.8 0.8 0.8 0.8 0.8 0.8 0.8 0.786055 0.79997 0.8 0.8
          0.798498 0.8 0.8 0.8 0.39436 0.513139 0.79536 0.708819 0.496549 0.714141 0.799993 0.793481
          0.782071 0.8 0.8 0.8 0.799884 0.8 0.8 0.8 0.8 0.8 0.8 0.8
          0.8 0.8 0.8 0.8 0.799991 0.8 0.8 0.8 0.8 0.8 0.8 0.8
          0.8 0.8 0.8 0.8 0.8 0.8 0.8 0.8 0.8 0.8 0.8 0.8
          0.8 0.8 0.8 0.8 0.8 0.8 0.8 0.8 0.8 0.8 0.8 0.8
          0.8 0.8 0.8 0.8 0.8 0.8 0.8 0.8 0.8 0.8 0.8 0.8
          0.8 0.8 0.8 0.8 0.8 0.8 0.8 0.8 0.8 0.8 0.8 0.8
          0.8 0.8 0.8 0.8 0.8 0.8 0.8 0.8 0.8 0.8 0.8 0.8
          0.8 0.8 0.8 0.8 0.30794 0.328579 0.345674 0.324503 0.359921 0.393598 0.440676 0.381258
          0.364514 0.524755 0.702689 0.396549 0.556459 0.795748 0.799983 0.710381 0.56469 0.798757 0.8 0.798095
          0.798935 0.8 0.8 0.8 0.349829 0.380194 0.583009 0.415065 0.454339 0.6542 0.799192 0.732143
          0.587366 0.726993 0.778662 0.678506 0.79943 0.799998 0.8 0.799969 0.7989 0.8 0.8 0.799994
          0.8 0.8 0.8 0.8 0.8 0.8 0.8 0.8 0.8 0.8 0.8 0.8
          0.782753 0.799917 0.8 0.799998 0.8 0.8 0.8 0.8 0.794782 0.8 0.8 0.799982
          0.8 0.8 0.8 0.8 0.8 0.8 0.8 0.8 0.8 0.8 0.8 0.8
          0.8 0.8 0.8 0.8 0.8 0.8 0.8 0.8 0.8 0.8 0.8 0.8
          0.8 0.8 0.8 0.8 0.8 0.8 0.8 0.8 0.8 0.8 0.8 0.8
          0.8 0.8 0.8 0.8 0.8 0.8 0.8 0.8 0.8 0.8 0.8 0.8
          0.8 0.8 0.8 0.8 0.8 0.8 0.8 0.8 0.8 0.8 0.8 0.8
          0.743054 0.799223 0.8 0.799999 0.799997 0.8 0.8 0.8 0.8 0.8 0.8 0.8
          0.8 0.8 0.8 0.8 0.8 0.8 0.8 0.8 0.8 0.8 0.8 0.8
          0.8 0.8 0.8 0.8 0.8 0.8 0.8 0.8 0.8 0.8 0.8 0.8
          0.8 0.8 0.8 0.8 0.8 0.8 0.8 0.8 0.8 0.8 0.8 0.8
          0.8 0.8 0.8 0.8 0.8 0.8 0.8 0.8 0.8 0.8 0.8 0.8
          0.8 0.8 0.8 0.8 0.8 0.8 0.8 0.8 0.8 0.8 0.8 0.8
          0.8 0.8 0.8 0.8 0.8 0.8 0.8 0.8 0.8 0.8 0.8 0.8
          0.8 0.8 0.8 0.8 0.8 0.8 0.8 0.8 0.8 0.8 0.8 0.8
          0.8 0.8 0.8 0.8 0.8 0.8 0.8 0.8 0.8 0.8 0.8 0.8
          0.8 0.8 0.8 0.8 0.8 0.8 0.8 0.8 0.8 0.8 0.8 0.8
          0.8 0.8 0.8 0.8 0.8 0.8 0.8 0.8
        </DataArray>
        <DataArray type="Float32" Name="wetting-velocity" NumberOfComponents="3" format="ascii">
          1.55796e-05 1.98475e-05 2.08822e-05 2.13316e-05 3.77088e-06 3.06439e-06 8.08333e-06 6.33012e-06 1.60437e-06 5.01061e-06 2.49545e-05 5.47941e-06
          6.60932e-06 8.74119e-06 3.32081e-05 1.1303e-05 2.6901e-06 6.63214e-06 5.73396e-06 4.81606e-06 3.81723e-06 3.18867e-06 1.28136e-05 1.04817e-05
          7.42675e-06 1.05589e-06 7.05529e-07 3.55913e-06 3.89167e-07 2.09724e-07 2.63406e-06 8.91138e-07 1.91521e-07 4.69642e-06 2.17983e-06 5.32796e-07
          5.82236e-06 9.2426e-07 1.83862e-06 3.13557e-06 3.77628e-07 6.07506e-07 2.39386e-06 8.45127e-07 5.4687e-07 3.94407e-06 1.93893e-06 1.43434e-06
          2.85411e-06 2.23236e-06 3.73841e-07 1.64727e-06 9.15416e-07 1.20727e-07 7.42176e-07 3.82766e-07 1.94972e-08 1.72301e-06 1.81737e-06 2.21183e-07
          2.49657e-06 2.00438e-06 1.03369e-06 1.37041e-06 7.37052e-07 3.17444e-07 6.02774e-07 2.5071e-07 3.80231e-08 1.44078e-06 1.58094e-06 5.89054e-07
          1.9453e-06 1.06326e-05 1.85567e-06 3.64928e-06 4.82281e-06 8.58267e-07 1.88057e-06 3.31158e-06 4.82631e-07 8.9071e-07 5.48476e-06 8.2579e-07
          1.46212e-06 7.6274e-06 4.23096e-06 2.92232e-06 4.01621e-06 2.19161e-06 1.57854e-06 2.86748e-06 1.28693e-06 7.22459e-07 4.48727e-06 2.05654e-06
          3.38666e-06 4.31648e-06 1.93141e-05 6.35624e-06 1.84696e-06 6.63507e-06 3.81365e-06 3.49812e-06 4.42027e-06 1.93367e-06 7.1059e-06 9.35358e-06
          1.89101e-06 2.43263e-06 1.18166e-05 3.84669e-06 1.31139e-06 5.58434e-06 2.55321e-06 2.58114e-06 4.17532e-06 1.19735e-06 4.32785e-06 7.31324e-06
          4.30129e-06 7.81415e-07 2.38454e-06 2.60822e-06 3.59352e-07 9.07472e-07 2.02607e-06 8.00968e-07 7.78621e-07 3.0919e-06 1.66547e-06 1.95693e-06
          3.16718e-06 6.60464e-07 2.46362e-06 2.13954e-06 3.08273e-07 1.04308e-06 1.38647e-06 5.60348e-07 7.70575e-07 2.35287e-06 1.42395e-06 2.1323e-06
          2.08183e-06 1.71254e-06 1.45741e-06 1.03391e-06 4.86731e-07 2.96916e-07 2.6878e-07 4.90262e-08 1.22998e-08 9.22687e-07 1.05413e-06 7.02436e-07
          1.57054e-06 1.49559e-06 1.60885e-06 7.58163e-07 2.59179e-07 1.33628e-07 5.0176e-09 4.40661e-10 1.54276e-10 5.49128e-07 6.70943e-07 4.62233e-07
          1.01791e-06 5.18955e-06 4.6851e-06 2.1728e-06 3.15935e-06 2.79712e-06 1.22028e-06 2.37883e-06 1.74337e-06 5.52524e-07 3.40838e-06 2.54234e-06
          7.08058e-07 3.58232e-06 4.27299e-06 1.59625e-06 2.46834e-06 2.86879e-06 9.42504e-07 1.83975e-06 1.79805e-06 4.20456e-07 2.54091e-06 2.51609e-06
          2.11998e-06 2.16712e-07 1.23053e-07 8.92528e-07 6.53082e-09 6.84868e-09 3.59714e-07 5.66156e-09 2.83961e-10 1.28919e-06 4.04634e-07 1.00742e-07
          1.76535e-06 2.20889e-07 3.29451e-07 6.77209e-07 1.83894e-10 6.25797e-09 9.90352e-08 1.59376e-10 2.47135e-11 9.76714e-07 2.56942e-07 1.64727e-07
          1.32852e-08 4.8227e-20 6.34232e-20 8.95189e-20 0 0 1.25644e-36 0 0 2.33428e-12 4.17967e-20 2.08984e-21
          3.83763e-10 6.70959e-27 5.57065e-20 1.03784e-26 0 0 0 0 0 1.04036e-15 5.81498e-27 8.72247e-28
          3.59515e-28 1.20127e-36 6.00637e-38 0 0 0 0 0 0 0 0 0
          4.26556e-36 0 0 0 0 0 0 0 0 0 0 0
          4.88144e-07 1.91419e-07 9.61948e-09 1.60115e-10 1.33697e-12 6.68487e-14 1.01077e-23 2.75475e-28 1.37738e-29 1.15352e-09 9.77951e-11 4.88975e-12
          3.15103e-07 5.78002e-08 8.71549e-09 2.58555e-12 6.68061e-16 1.00209e-16 6.81385e-29 3.67374e-36 5.51061e-37 8.93163e-11 1.71592e-12 2.57388e-13
          1.21957e-06 1.45137e-07 3.98361e-07 2.87866e-07 1.57019e-13 2.53667e-10 2.94636e-09 1.36083e-13 3.45939e-14 7.79263e-07 1.27805e-07 8.22261e-08
          8.72967e-07 6.29077e-09 1.80104e-07 1.18651e-08 1.85324e-20 2.54381e-13 3.10818e-12 1.60614e-20 5.6911e-21 3.83738e-07 5.45405e-09 3.58941e-09
          3.62416e-13 0 1.18062e-26 0 0 0 0 0 0 1.02982e-22 0 0
          3.90087e-20 0 0 0 0 0 0 0 0 6.57227e-36 0 0
          0 0 0 0 0 0 0 0 0 0 0 0
          0 0 0 0 0 0 0 0 0 0 0 0
          6.1589e-08 1.78176e-09 4.46479e-10 1.7909e-16 7.42891e-23 1.85723e-23 0 0 0 1.06235e-13 1.3054e-16 3.2635e-17
          5.98699e-10 1.80876e-12 6.33142e-13 1.33474e-25 5.20271e-36 1.82095e-36 0 0 0 2.76147e-22 1.0277e-25 3.59696e-26
          4.61012e-07 3.07167e-06 4.29934e-07 1.00602e-06 2.11386e-06 2.43257e-07 1.32552e-07 7.63232e-07 3.86528e-08 1.29448e-07 1.31162e-06 1.48267e-07
          3.59003e-07 2.72162e-06 1.08676e-06 7.69569e-07 1.69728e-06 6.22718e-07 2.41472e-08 5.2901e-07 7.98819e-08 2.12262e-08 1.0391e-06 2.68553e-07
          5.57893e-07 7.50799e-07 4.19688e-08 9.62414e-09 8.75452e-10 4.37726e-11 1.65924e-20 4.05587e-21 2.02793e-22 9.85512e-10 9.39845e-09 4.69922e-10
          4.22603e-07 6.21113e-07 9.81618e-08 5.8372e-10 6.46203e-11 9.69304e-12 2.48593e-26 1.61509e-26 2.42264e-27 2.27989e-11 4.96714e-10 7.4507e-11
          9.82015e-25 1.01728e-20 5.0864e-22 0 0 0 0 0 0 0 0 0
          3.64937e-32 1.4816e-26 2.2224e-27 0 0 0 0 0 0 0 0 0
          4.74473e-14 2.16721e-07 1.08361e-08 4.8301e-14 1.03184e-09 5.15919e-11 0 5.36899e-25 2.6845e-26 0 5.52426e-14 2.76213e-15
          -8.87913e-16 3.62519e-08 5.43782e-09 5.03492e-18 2.14513e-11 3.21769e-12 0 1.86331e-32 2.79496e-33 0 5.27999e-18 7.91999e-19
          2.74094e-07 2.07433e-06 1.31519e-06 3.69139e-07 1.07439e-06 5.99211e-07 2.13018e-10 1.13568e-07 2.84097e-08 -5.10387e-10 7.19909e-07 2.07761e-07
          8.28749e-08 1.14108e-06 9.48722e-07 9.02091e-08 6.98524e-07 3.45129e-07 1.89276e-15 2.87432e-10 1.00602e-10 -8.47618e-12 1.43094e-07 5.04079e-08
          1.00569e-07 2.73286e-07 6.87022e-08 3.49212e-13 7.59305e-14 1.89826e-14 0 0 0 9.61048e-16 2.64315e-13 6.60788e-14
          2.65377e-10 4.57599e-09 1.6018e-09 2.80079e-22 2.06274e-22 7.21959e-23 0 0 0 2.13689e-27 2.17837e-22 7.62429e-23
          0 0 0 0 0 0 0 0 0 0 0 0