<?xml version="1.0"?>
<VTKFile type="UnstructuredGrid" version="0.1" byte_order="LittleEndian">
  <UnstructuredGrid>
    <Piece NumberOfCells="298" NumberOfPoints="221">
      <CellData Scalars="p">
        <DataArray type="Float32" Name="p" NumberOfComponents="1" format="ascii">
          200000 200000 189309 188198 162907 162907 198028 198028 200000 200000 197647 197404
          200000 200000 195699 172734 170485 100013 100017 200000 200000 100017 198466 198336
          198941 198817 198482 198236 197623 195279 193213 189666 184442 196393 196821 197497
          200000 200000 200000 200000 200000 200000 200000 200000 200000 200000 200000 200000
          200000 200000 200000 200000 163375 164014 163632 163632 163302 163632 164764 163632
          163099 163138 162583 200000 200000 200000 200000 200000 200000 200000 184422 181706
          175517 175182 179461 177777 179353 171697 171388 169779 165963 149623 166771 163842
          164186 187682 186874 175517 200000 200000 200000 200000 200000 162861 200000 200000
          200000 200000 200000 100790 200000 199875 199688 200000 200000 200000 200000 163171
          200000 199134 188388 190305 200000 162943 115972 100017 200000 100017 100017 200000
          162991 200000 100978 102090 103888 200000 199769 199805 200000 200000 200000 200000
          199233 199496 199473 198546 194514 192838 200000 200000 165650 164873 163802 160153
          165475 199216 199134 200000 109539 200000 200000 162907 162943 162873 162884 200000
          200000 163069 163012 162937 162965 162976 162984 200000 200000 200000 101666 106278
          109347 103178 200000 200000 163895 165726 200000 195601 198626 199334 197212 199437
          199293 199610 199636 199368 198939 198572 195366 107798 106607 106717 105387 108797
          109052 114210 110828 111957 111835 111945 112751 109492 200000 200000 200000 200000
          200000 100017 100017 100017 100017 162843 110477 111416 185194 200000 200000 200000
          116354 200000 200000 200000 159837 200000 199264 200000 200000 102961 107455 104519
          200000 110477 200000 200000 200000 200000 200000 200000 200000 200000 185432 168320
          200000 200000 162468 162746 162794 162765 159214 174596 170895 167256 167256 167491
          119868 123830 119902 120212 124350 154640 142883 156592 153712 145817 129839 191638
          189318 198900 200000 183876 182738 180564 176541 174691 190187 192646 184311 191664
          180327 189805 200000 200000 200000 200000 200000 200000 200000 200000 200000 200000
          200000 200000 200000 200000 200000 200000 200000 200000 200000 200000
        </DataArray>
        <DataArray type="Float32" Name="process rank" NumberOfComponents="1" format="ascii">
          0 0 0 0 0 0 0 0 0 0 0 0
          0 0 0 0 0 0 0 0 0 0 0 0
          0 0 0 0 0 0 0 0 0 0 0 0
          0 0 0 0 0 0 0 0 0 0 0 0
          0 0 0 0 0 0 0 0 0 0 0 0
          0 0 0 0 0 0 0 0 0 0 0 0
          0 0 0 0 0 0 0 0 0 0 0 0
          0 0 0 0 0 0 0 0 0 0 0 0
          0 0 0 0 0 0 0 0 0 0 0 0
          0 0 0 0 0 0 0 0 0 0 0 0
          0 0 0 0 0 0 0 0 0 0 0 0
          0 0 0 0 0 0 0 0 0 0 0 0
          0 0 0 0 0 0 0 0 0 0 0 0
          0 0 0 0 0 0 0 0 0 0 0 0
          0 0 0 0 0 0 0 0 0 0 0 0
          0 0 0 0 0 0 0 0 0 0 0 0
          0 0 0 0 0 0 0 0 0 0 0 0
          0 0 0 0 0 0 0 0 0 0 0 0
          0 0 0 0 0 0 0 0 0 0 0 0
          0 0 0 0 0 0 0 0 0 0 0 0
          0 0 0 0 0 0 0 0 0 0 0 0
          0 0 0 0 0 0 0 0 0 0 0 0
          0 0 0 0 0 0 0 0 0 0 0 0
          0 0 0 0 0 0 0 0 0 0 0 0
          0 0 0 0 0 0 0 0 0 0
        </DataArray>
      </CellData>
      <Points>
        <DataArray type="Float32" Name="Coordinates" NumberOfComponents="3" format="ascii">
          2.8842 3.50495 0.903574 1.27696 4.84716 1.12304 2.83789 2.69586 1.52196 1.30983 3.50259 2.06946
          2.06373 6.88262 2.19949 1.91523 5.8493 3.01035 3.01555 5.71968 3.13019 3.0065 6.36418 2.6228
          6.48802 3.93436 3.01721 7.55169 5.07245 2.45583 7.47414 3.94003 3.1386 6.00813 4.81389 2.41853
          3.44462 5.34094 3.25379 3.45664 6.30736 2.65603 2.51466 6.2495 2.54355 2.15375 5.25802 3.1019
          2.01442 4.74272 0.653113 2.81973 3.938 0.638595 0.632657 6.13389 2.31882 0 5.02867 2.90494
          0 2.21566 1.32449 1.21104 3.2799 0.742112 0.815252 3.36813 0.594171 0 3.31421 0.472253
          0.180851 5.95683 2.35751 1.40959 2.89132 2.19128 1.54062 4.44932 2.20597 2.35535 4.52617 2.13202
          2.77318 2.8678 2.0649 6.94291 5.68834 5 8 5.86359 4.21881 8 5.86548 4.21749
          6.86245 6.56517 4.43843 1.6305 3.42204 0.716089 5.60448 6.88419 5 6.06753 8 3.93291
          3.43261 4.37452 3.85155 2.47367 4.33423 3.72549 3.41916 3.29176 4.52127 1.98298 3.41925 4.21594
          0 6.09503 2.24328 1.27512 4.29503 3.56102 0.782487 5.14457 3.54665 0 6.3668 2.57203
          0 5.46814 3.27931 1.12858 6.75636 2.28371 2.99744 7.00868 2.11541 3.04892 3.34462 5
          2.01897 4.40601 4.14796 3.03863 4.07723 4.42324 1.48374 3.3124 5 0.760722 4.15481 4.32528
          4.45605 5.1568 0.515232 5.59717 4.19472 0.4888 3.62505 3.13328 0.624078 2.61635 1.66846 0.723592
          1.69603 2.17573 0.753746 4.58487 2.17417 0.606775 5.95521 2.88408 0.513686 3.19391 4.75598 0.592649
          6.67078 4.20612 0.433786 6.23595 5.60253 0.409987 5.30287 1.4567 0.593832 6.47728 2.07102 0.513858
          4.47354 0.644796 0.662743 5.4104 0.128405 0.632047 5.41377 5.22457 0.464262 3.80966 5.93951 0.522385
          4.38288 6.62393 0.470702 5.30941 6.11323 0.440345 3.53667 1.16119 0.693439 4.58368 6.25865 1.35456
          3.86648 5.05244 2.00148 4.60941 5.31118 1.93729 2.4695 6.19322 1.1269 4.61922 8 0.294039
          2.53991 7.2213 0.507031 5.36474 7.16942 0.896418 3.61696 8 0.167142 2.41193 5.35246 1.63382
          2.59323 8 0.0375269 4.3491 3.92208 2.75392 5.41504 3.9282 2.88513 5.35234 5.56992 1.87311
          2.79158 1.88677 2.14034 3.73174 1.77756 1.52397 3.45468 1.16367 2.17205 0 1.10783 2.18394
          1.42802 0.888119 2.64121 2.18409 5.39433 2.16278 0.142941 3.92795 2.32612 3.98123 6.23918 2.01129
          0.161896 4.94241 2.34182 3.08585 4.78058 2.06892 5.39774 8 1.91071 4.34161 8 2.00828
          5.36722 6.36622 1.88543 3.70824 2.85167 1.97824 4.75284 3.83098 1.89858 5.30103 2.82419 1.83062
          3.79933 4.11577 1.99157 1.49657 7.29023 1.8695 1.25668 8 2.29327 0.123986 2.9135 2.31042
          2.90085 1.28647 2.62799 2.9337 1.96473 2.1084 2.96678 2.64779 1.58513 3.00869 3.51318 0.922192
          2.01456 2.7341 2.10317 7.63824 6.33634 1.69378 6.75217 5.97531 1.8024 3.65381 3.96824 0
          1.58277 0.845375 0 2.1892 0 0 1.57843 0 0.54098 8 0.939028 4.19913
          8 0 4.82129 7.24039 0 4.73136 0 0.274148 1.76487 0.905132 0 1.13735
          0 1.31069 1.10627 0 1.67625 4.98508 0.124968 1.68393 5 0 2.53212 4.45402
          1.10407 1.93249 5 0.933622 5.8362 5 0 5.79752 5 0 6.93437 4.06532
          0.952945 0.84217 0.559901 0.698383 2.07824 0 5.70259 8 0.431204 2.25681 2.22514 5
          3.40954 2.51778 5 0.219028 8 2.38913 0 7.26546 1.86475 4.34922 3.25598 0
          6.79765 8 0.56985 7.69707 7.19546 1.17578 7.75216 8 0.690701 6.32467 3.64073 2.21073
          7.15767 4.29096 1.87853 6.31534 4.63244 1.55256 4.9816 7.44072 5 5.13077 8 4.51683
          4.35564 8 5 3.99669 6.98742 4.15782 3.1574 5.92832 5 4.28045 5.97484 5
          2.94101 6.42991 0.550464 2.47776 5.5864 0.601783 7.22695 1.34158 3.84088 8 1.91699 3.55116
          6.49704 0 4.64335 0 3.38799 3.92296 0.889085 3.52332 3.97904 0 4.20833 3.41395
          0.939383 0 3.23206 0 0 3.04338 1.92431 0 3.42988 2.86801 0.608215 3.14757
          0 3.28186 5 0 3.92069 4.49721 0 4.62236 3.94497 3.02671 4.92525 3.75562
          1.0675 7.10409 3.96214 1.6139 8 3.24415 0 8 3.18918 3.31788 3.91616 2.62698
          7.10184 5.12527 0.381617 4.29659 1.43045 3.43507 3.71302 0.742194 3.822 4.64355 0.364963 4.18211
          2.37031 7.09333 4.01535 6.79532 6.87879 1.25529 5.80406 6.51439 1.35266 5.97023 7.25095 0.923211
          7.07936 3.16732 0.447159 8 2.95657 2.86237 7.0981 2.42619 3.10701 5.85415 1.93785 3.28329
          5.6405 3.01379 2.54512 2.85188 4.7896 0 1.36918 2.79981 4.5036 6.02579 0.930567 3.971
          5.54382 0 4.5305 3.87545 2.44448 2.71336 4.83696 2.4845 2.80068 4.32038 3.14759 2.30018
          7.03682 3.37962 2.46804 1.72299 6.54017 4.4481 2.1108 5.88496 5 7.59536 6.73291 3.86455
          7.00429 8 3.349 3.43023 1.7409 3.12681 2.29432 8 2.19741 2.66341 8 3.2799
          7.51085 3.953 0.399357 4.71033 0.948635 1.3988 5.0446 2.54374 0 0.605105 4.27108 2.03576
          4.11779 0.440568 2.20377 8 3.94949 2.2045 2.985 1.03733 3.54026 2.83855 0 3.6135
          7.91001 4.67981 0.355138 0 3.05181 0 0 2.34724 0.447666 3.35785 7.18891 0.504286
          2.99314 7.31499 1.87425 3.71293 8 3.31564 5.3371 4.75424 1.86049 2.31318 3.91039 2.5033
          5.32315 4.00782 1.84894 5.47546 4.97292 1.22753 0.193431 6.6301 2.36793 3.33327 8 2.10143
          1.63978 4.06056 0.694616 0.858243 2.6375 0.781195 5.87519 0.974713 0.580558 5.73999 1.83151 0
          2.10363 5.55598 0
        </DataArray>
      </Points>
      <Cells>
        <DataArray type="Int32" Name="connectivity" NumberOfComponents="1" format="ascii">
          0 1 2 3 1 2 4 5 6 7 4 6
          8 9 10 8 9 11 12 13 14 12 15 14
          1 16 17 0 1 17 15 18 14 15 18 19
          20 21 22 23 20 22 24 19 18 25 26 27
          27 25 28 29 30 31 29 32 31 33 2 21
          2 20 21 34 32 35 36 15 37 36 15 12
          38 39 37 37 38 36 24 19 40 15 19 41
          42 43 44 42 43 5 5 43 45 5 45 4
          7 4 46 47 48 49 47 48 50 50 48 51
          52 53 54 33 55 56 33 55 54 57 53 58
          57 53 54 52 54 59 53 60 61 59 54 17
          54 33 17 62 58 63 62 58 57 64 62 65
          53 61 66 67 68 69 67 69 52 70 55 54
          71 72 73 71 72 74 71 74 75 75 74 76
          75 71 77 75 76 78 72 74 79 78 76 80
          81 82 11 81 11 73 73 11 83 84 2 85
          85 54 57 85 54 2 85 84 86 20 87 88
          88 20 84 84 20 2 4 18 45 4 18 89
          25 26 90 89 46 91 89 46 4 92 26 90
          18 26 89 93 89 91 94 91 95 94 91 96
          96 91 73 97 98 99 28 27 93 28 93 100
          96 73 83 45 101 4 45 4 102 103 90 25
          104 105 84 106 84 105 106 107 2 33 22 21
          108 3 2 9 109 110 84 2 108 84 2 106
          54 0 17 54 111 17 112 113 114 115 116 117
          118 119 120 121 122 123 123 122 124 125 126 127
          128 119 120 128 119 114 129 128 112 130 77 75
          128 114 112 131 38 132 45 102 133 134 101 45
          54 111 135 136 137 138 139 140 141 142 143 144
          145 146 147 35 143 34 34 142 143 70 57 54
          8 82 11 67 148 149 115 150 151 115 150 117
          152 150 117 70 57 64 153 154 155 153 154 123
          156 88 157 88 87 157 156 88 158 158 88 159
          160 51 161 161 51 162 154 41 155 160 51 50
          48 5 163 163 5 6 164 165 166 164 127 125
          167 72 93 167 72 81 73 72 81 100 72 73
          91 72 73 154 39 41 39 131 38 168 60 61
          169 170 171 164 172 165 172 146 145 109 173 137
          136 173 137 174 173 110 109 173 110 52 66 69
          61 66 69 130 175 77 130 175 136 174 175 173
          136 175 173 71 77 174 174 175 77 58 176 63
          58 176 60 53 58 60 177 178 151 179 178 150
          179 178 180 150 178 151 111 17 181 67 59 52
          100 72 93 93 79 72 67 59 149 48 42 5
          51 42 162 42 44 162 51 42 48 124 182 131
          39 182 131 123 182 124 154 182 123 154 182 39
          39 37 41 37 15 41 48 49 163 171 183 184
          184 183 152 179 183 150 152 183 150 171 183 169
          179 183 169 185 186 187 169 186 179 185 186 169
          180 186 179 139 188 140 139 188 180 188 178 180
          164 189 172 125 189 164 125 189 190 172 189 146
          190 189 146 31 32 191 34 32 29 191 32 192
          35 32 192 110 9 11 193 169 170 193 169 185
          102 4 194 195 172 165 196 168 60 176 196 60
          187 180 186 57 85 197 57 135 54 198 57 135
          97 100 28 3 199 1 19 41 155 86 200 85
          197 200 85 201 177 188 201 140 188 188 178 177
          52 66 53 170 202 193 203 158 159 104 88 159
          196 204 168 129 205 206 129 120 206 129 120 128
          67 207 148 67 207 68 101 208 4 91 72 93
          195 145 209 195 145 172 71 83 73 71 83 174
          174 83 110 11 83 110 73 83 210 26 27 89
          93 27 89 167 27 211 167 27 93 93 27 79
          139 212 180 212 213 141 139 212 141 187 98 180
          180 98 212 97 98 100 99 98 212 100 98 73
          210 98 73 212 98 210 212 98 213 134 214 45
          214 45 133 134 214 43 166 164 127 208 46 4
          4 46 194 194 46 215 215 46 95 91 46 95
          24 18 214 214 43 45 92 18 24 40 18 24
          92 18 26 214 18 45 0 2 107 54 0 2
          104 84 88 216 33 17 0 33 2 33 21 216
          217 21 56 33 21 56 218 62 65 64 62 57
          198 62 219 197 62 57 198 62 57 218 62 63
          1 16 220 181 16 220 181 16 17 149 16 59
          17 16 59 216 16 17
        </DataArray>
        <DataArray type="Int32" Name="offsets" NumberOfComponents="1" format="ascii">
          3 6 9 12 15 18 21 24 27 30 33 36
          39 42 45 48 51 54 57 60 63 66 69 72
          75 78 81 84 87 90 93 96 99 102 105 108
          111 114 117 120 123 126 129 132 135 138 141 144
          147 150 153 156 159 162 165 168 171 174 177 180
          183 186 189 192 195 198 201 204 207 210 213 216
          219 222 225 228 231 234 237 240 243 246 249 252
          255 258 261 264 267 270 273 276 279 282 285 288
          291 294 297 300 303 306 309 312 315 318 321 324
          327 330 333 336 339 342 345 348 351 354 357 360
          363 366 369 372 375 378 381 384 387 390 393 396
          399 402 405 408 411 414 417 420 423 426 429 432
          435 438 441 444 447 450 453 456 459 462 465 468
          471 474 477 480 483 486 489 492 495 498 501 504
          507 510 513 516 519 522 525 528 531 534 537 540
          543 546 549 552 555 558 561 564 567 570 573 576
          579 582 585 588 591 594 597 600 603 606 609 612
          615 618 621 624 627 630 633 636 639 642 645 648
          651 654 657 660 663 666 669 672 675 678 681 684
          687 690 693 696 699 702 705 708 711 714 717 720
          723 726 729 732 735 738 741 744 747 750 753 756
          759 762 765 768 771 774 777 780 783 786 789 792
          795 798 801 804 807 810 813 816 819 822 825 828
          831 834 837 840 843 846 849 852 855 858 861 864
          867 870 873 876 879 882 885 888 891 894
        </DataArray>
        <DataArray type="UInt8" Name="types" NumberOfComponents="1" format="ascii">
          5 5 5 5 5 5 5 5 5 5 5 5
          5 5 5 5 5 5 5 5 5 5 5 5
          5 5 5 5 5 5 5 5 5 5 5 5
          5 5 5 5 5 5 5 5 5 5 5 5
          5 5 5 5 5 5 5 5 5 5 5 5
          5 5 5 5 5 5 5 5 5 5 5 5
          5 5 5 5 5 5 5 5 5 5 5 5
          5 5 5 5 5 5 5 5 5 5 5 5
          5 5 5 5 5 5 5 5 5 5 5 5
          5 5 5 5 5 5 5 5 5 5 5 5
          5 5 5 5 5 5 5 5 5 5 5 5
          5 5 5 5 5 5 5 5 5 5 5 5
          5 5 5 5 5 5 5 5 5 5 5 5
          5 5 5 5 5 5 5 5 5 5 5 5
          5 5 5 5 5 5 5 5 5 5 5 5
          5 5 5 5 5 5 5 5 5 5 5 5
          5 5 5 5 5 5 5 5 5 5 5 5
          5 5 5 5 5 5 5 5 5 5 5 5
          5 5 5 5 5 5 5 5 5 5 5 5
          5 5 5 5 5 5 5 5 5 5 5 5
          5 5 5 5 5 5 5 5 5 5 5 5
          5 5 5 5 5 5 5 5 5 5 5 5
          5 5 5 5 5 5 5 5 5 5 5 5
          5 5 5 5 5 5 5 5 5 5 5 5
          5 5 5 5 5 5 5 5 5 5
        </DataArray>
      </Cells>
    </Piece>
  </UnstructuredGrid>
</VTKFile>
