<?xml version="1.0"?>
<VTKFile type="UnstructuredGrid" version="0.1" byte_order="LittleEndian">
  <UnstructuredGrid>
    <Piece NumberOfCells="200" NumberOfPoints="231">
      <PointData Scalars="S_liq">
        <DataArray type="Float32" Name="S_liq" NumberOfComponents="1" format="ascii">
          0.2 0.199901 0.2 0.199901 0.199902 0.199902 0.199902 0.199902 0.199902 0.199902 0.199902 0.199902
          0.199902 0.199902 0.199902 0.199902 0.199902 0.199902 0.199902 0.199902 0.199902 0.199902 0.199902 0.199902
          0.199902 0.199902 0.199902 0.199902 0.199902 0.199902 0.199902 0.199902 0.199902 0.199902 0.199902 0.199902
          0.199902 0.199902 0.199898 0.199898 0.187804 0.187804 0.2 0.199901 0.199902 0.199902 0.199902 0.199902
          0.199902 0.199902 0.199902 0.199902 0.199902 0.199902 0.199902 0.199902 0.199902 0.199902 0.199902 0.199902
          0.199902 0.199898 0.187804 0.2 0.199901 0.199902 0.199902 0.199902 0.199902 0.199902 0.199902 0.199902
          0.199902 0.199902 0.199902 0.199902 0.199902 0.199902 0.199902 0.199902 0.199902 0.199902 0.199898 0.187804
          0.2 0.199901 0.199902 0.199902 0.199902 0.199902 0.199902 0.199902 0.199902 0.199902 0.199902 0.199902
          0.199902 0.199902 0.199902 0.199902 0.199902 0.199902 0.199902 0.199898 0.187804 0.2 0.199901 0.199902
          0.199902 0.199902 0.199902 0.199902 0.199902 0.199902 0.199902 0.199902 0.199902 0.199902 0.199902 0.199902
          0.199902 0.199902 0.199902 0.199902 0.199898 0.187804 0.2 0.199901 0.199902 0.199902 0.199902 0.199902
          0.199902 0.199902 0.199902 0.199902 0.199902 0.199902 0.199902 0.199902 0.199902 0.199902 0.199902 0.199902
          0.199902 0.199898 0.187804 0.2 0.199901 0.199902 0.199902 0.199902 0.199902 0.199902 0.199902 0.199902
          0.199902 0.199902 0.199902 0.199902 0.199902 0.199902 0.199902 0.199902 0.199902 0.199902 0.199898 0.187804
          0.2 0.199901 0.199902 0.199902 0.199902 0.199902 0.199902 0.199902 0.199902 0.199902 0.199902 0.199902
          0.199902 0.199902 0.199902 0.199902 0.199902 0.199902 0.199902 0.199898 0.187804 0.2 0.199901 0.199902
          0.199902 0.199902 0.199902 0.199902 0.199902 0.199902 0.199902 0.199902 0.199902 0.199902 0.199902 0.199902
          0.199902 0.199902 0.199902 0.199902 0.199898 0.187804 0.2 0.199901 0.199902 0.199902 0.199902 0.199902
          0.199902 0.199902 0.199902 0.199902 0.199902 0.199902 0.199902 0.199902 0.199902 0.199902 0.199902 0.199902
          0.199902 0.199898 0.187804
        </DataArray>
        <DataArray type="Float32" Name="p_liq" NumberOfComponents="1" format="ascii">
          100000 99292.2 100000 99292.2 99297.2 99297.2 99297 99297 99296.8 99296.8 99296.6 99296.6
          99296.4 99296.4 99296.3 99296.3 99296.1 99296.1 99295.9 99295.9 99295.7 99295.7 99295.5 99295.5
          99295.3 99295.3 99295.1 99295.1 99294.9 99294.9 99294.7 99294.7 99294.5 99294.5 99294.3 99294.3
          99293.9 99293.9 99266.4 99266.4 12883 12883 100000 99292.2 99297.2 99297 99296.8 99296.6
          99296.4 99296.3 99296.1 99295.9 99295.7 99295.5 99295.3 99295.1 99294.9 99294.7 99294.5 99294.3
          99293.9 99266.4 12883 100000 99292.2 99297.2 99297 99296.8 99296.6 99296.4 99296.3 99296.1
          99295.9 99295.7 99295.5 99295.3 99295.1 99294.9 99294.7 99294.5 99294.3 99293.9 99266.4 12883
          100000 99292.2 99297.2 99297 99296.8 99296.6 99296.4 99296.3 99296.1 99295.9 99295.7 99295.5
          99295.3 99295.1 99294.9 99294.7 99294.5 99294.3 99293.9 99266.4 12883 100000 99292.2 99297.2
          99297 99296.8 99296.6 99296.4 99296.3 99296.1 99295.9 99295.7 99295.5 99295.3 99295.1 99294.9
          99294.7 99294.5 99294.3 99293.9 99266.4 12883 100000 99292.2 99297.2 99297 99296.8 99296.6
          99296.4 99296.3 99296.1 99295.9 99295.7 99295.5 99295.3 99295.1 99294.9 99294.7 99294.5 99294.3
          99293.9 99266.4 12883 100000 99292.2 99297.2 99297 99296.8 99296.6 99296.4 99296.3 99296.1
          99295.9 99295.7 99295.5 99295.3 99295.1 99294.9 99294.7 99294.5 99294.3 99293.9 99266.4 12883
          100000 99292.2 99297.2 99297 99296.8 99296.6 99296.4 99296.3 99296.1 99295.9 99295.7 99295.5
          99295.3 99295.1 99294.9 99294.7 99294.5 99294.3 99293.9 99266.4 12883 100000 99292.2 99297.2
          99297 99296.8 99296.6 99296.4 99296.3 99296.1 99295.9 99295.7 99295.5 99295.3 99295.1 99294.9
          99294.7 99294.5 99294.3 99293.9 99266.4 12883 100000 99292.2 99297.2 99297 99296.8 99296.6
          99296.4 99296.3 99296.1 99295.9 99295.7 99295.5 99295.3 99295.1 99294.9 99294.7 99294.5 99294.3
          99293.9 99266.4 12883
        </DataArray>
        <DataArray type="Float32" Name="rho_liq" NumberOfComponents="1" format="ascii">
          997.048 997.048 997.048 997.048 997.048 997.048 997.048 997.048 997.048 997.048 997.048 997.048
          997.048 997.048 997.048 997.048 997.048 997.048 997.048 997.048 997.048 997.048 997.048 997.048
          997.048 997.048 997.048 997.048 997.048 997.048 997.048 997.048 997.048 997.048 997.048 997.048
          997.048 997.048 997.065 997.065 998.083 998.083 997.048 997.048 997.048 997.048 997.048 997.048
          997.048 997.048 997.048 997.048 997.048 997.048 997.048 997.048 997.048 997.048 997.048 997.048
          997.048 997.065 998.083 997.048 997.048 997.048 997.048 997.048 997.048 997.048 997.048 997.048
          997.048 997.048 997.048 997.048 997.048 997.048 997.048 997.048 997.048 997.048 997.065 998.083
          997.048 997.048 997.048 997.048 997.048 997.048 997.048 997.048 997.048 997.048 997.048 997.048
          997.048 997.048 997.048 997.048 997.048 997.048 997.048 997.065 998.083 997.048 997.048 997.048
          997.048 997.048 997.048 997.048 997.048 997.048 997.048 997.048 997.048 997.048 997.048 997.048
          997.048 997.048 997.048 997.048 997.065 998.083 997.048 997.048 997.048 997.048 997.048 997.048
          997.048 997.048 997.048 997.048 997.048 997.048 997.048 997.048 997.048 997.048 997.048 997.048
          997.048 997.065 998.083 997.048 997.048 997.048 997.048 997.048 997.048 997.048 997.048 997.048
          997.048 997.048 997.048 997.048 997.048 997.048 997.048 997.048 997.048 997.048 997.065 998.083
          997.048 997.048 997.048 997.048 997.048 997.048 997.048 997.048 997.048 997.048 997.048 997.048
          997.048 997.048 997.048 997.048 997.048 997.048 997.048 997.065 998.083 997.048 997.048 997.048
          997.048 997.048 997.048 997.048 997.048 997.048 997.048 997.048 997.048 997.048 997.048 997.048
          997.048 997.048 997.048 997.048 997.065 998.083 997.048 997.048 997.048 997.048 997.048 997.048
          997.048 997.048 997.048 997.048 997.048 997.048 997.048 997.048 997.048 997.048 997.048 997.048
          997.048 997.065 998.083
        </DataArray>
        <DataArray type="Float32" Name="mob_liq" NumberOfComponents="1" format="ascii">
          0 0 0 0 0 0 0 0 0 0 0 0
          0 0 0 0 0 0 0 0 0 0 0 0
          0 0 0 0 0 0 0 0 0 0 0 0
          0 0 0 0 0 0 0 0 0 0 0 0
          0 0 0 0 0 0 0 0 0 0 0 0
          0 0 0 0 0 0 0 0 0 0 0 0
          0 0 0 0 0 0 0 0 0 0 0 0
          0 0 0 0 0 0 0 0 0 0 0 0
          0 0 0 0 0 0 0 0 0 0 0 0
          0 0 0 0 0 0 0 0 0 0 0 0
          0 0 0 0 0 0 0 0 0 0 0 0
          0 0 0 0 0 0 0 0 0 0 0 0
          0 0 0 0 0 0 0 0 0 0 0 0
          0 0 0 0 0 0 0 0 0 0 0 0
          0 0 0 0 0 0 0 0 0 0 0 0
          0 0 0 0 0 0 0 0 0 0 0 0
          0 0 0 0 0 0 0 0 0 0 0 0
          0 0 0 0 0 0 0 0 0 0 0 0
          0 0 0 0 0 0 0 0 0 0 0 0
          0 0 0
        </DataArray>
        <DataArray type="Float32" Name="S_gas" NumberOfComponents="1" format="ascii">
          0.8 0.800099 0.8 0.800099 0.800098 0.800098 0.800098 0.800098 0.800098 0.800098 0.800098 0.800098
          0.800098 0.800098 0.800098 0.800098 0.800098 0.800098 0.800098 0.800098 0.800098 0.800098 0.800098 0.800098
          0.800098 0.800098 0.800098 0.800098 0.800098 0.800098 0.800098 0.800098 0.800098 0.800098 0.800098 0.800098
          0.800098 0.800098 0.800102 0.800102 0.812196 0.812196 0.8 0.800099 0.800098 0.800098 0.800098 0.800098
          0.800098 0.800098 0.800098 0.800098 0.800098 0.800098 0.800098 0.800098 0.800098 0.800098 0.800098 0.800098
          0.800098 0.800102 0.812196 0.8 0.800099 0.800098 0.800098 0.800098 0.800098 0.800098 0.800098 0.800098
          0.800098 0.800098 0.800098 0.800098 0.800098 0.800098 0.800098 0.800098 0.800098 0.800098 0.800102 0.812196
          0.8 0.800099 0.800098 0.800098 0.800098 0.800098 0.800098 0.800098 0.800098 0.800098 0.800098 0.800098
          0.800098 0.800098 0.800098 0.800098 0.800098 0.800098 0.800098 0.800102 0.812196 0.8 0.800099 0.800098
          0.800098 0.800098 0.800098 0.800098 0.800098 0.800098 0.800098 0.800098 0.800098 0.800098 0.800098 0.800098
          0.800098 0.800098 0.800098 0.800098 0.800102 0.812196 0.8 0.800099 0.800098 0.800098 0.800098 0.800098
          0.800098 0.800098 0.800098 0.800098 0.800098 0.800098 0.800098 0.800098 0.800098 0.800098 0.800098 0.800098
          0.800098 0.800102 0.812196 0.8 0.800099 0.800098 0.800098 0.800098 0.800098 0.800098 0.800098 0.800098
          0.800098 0.800098 0.800098 0.800098 0.800098 0.800098 0.800098 0.800098 0.800098 0.800098 0.800102 0.812196
          0.8 0.800099 0.800098 0.800098 0.800098 0.800098 0.800098 0.800098 0.800098 0.800098 0.800098 0.800098
          0.800098 0.800098 0.800098 0.800098 0.800098 0.800098 0.800098 0.800102 0.812196 0.8 0.800099 0.800098
          0.800098 0.800098 0.800098 0.800098 0.800098 0.800098 0.800098 0.800098 0.800098 0.800098 0.800098 0.800098
          0.800098 0.800098 0.800098 0.800098 0.800102 0.812196 0.8 0.800099 0.800098 0.800098 0.800098 0.800098
          0.800098 0.800098 0.800098 0.800098 0.800098 0.800098 0.800098 0.800098 0.800098 0.800098 0.800098 0.800098
          0.800098 0.800102 0.812196
        </DataArray>
        <DataArray type="Float32" Name="p_gas" NumberOfComponents="1" format="ascii">
          250000 250000 250000 250000 250000 250000 249999 249999 249999 249999 249999 249999
          249999 249999 249999 249999 249998 249998 249998 249998 249998 249998 249998 249998
          249998 249998 249997 249997 249997 249997 249997 249997 249997 249997 249997 249997
          249996 249996 249996 249996 249996 249996 250000 250000 250000 249999 249999 249999
          249999 249999 249998 249998 249998 249998 249998 249997 249997 249997 249997 249997
          249996 249996 249996 250000 250000 250000 249999 249999 249999 249999 249999 249998
          249998 249998 249998 249998 249997 249997 249997 249997 249997 249996 249996 249996
          250000 250000 250000 249999 249999 249999 249999 249999 249998 249998 249998 249998
          249998 249997 249997 249997 249997 249997 249996 249996 249996 250000 250000 250000
          249999 249999 249999 249999 249999 249998 249998 249998 249998 249998 249997 249997
          249997 249997 249997 249996 249996 249996 250000 250000 250000 249999 249999 249999
          249999 249999 249998 249998 249998 249998 249998 249997 249997 249997 249997 249997
          249996 249996 249996 250000 250000 250000 249999 249999 249999 249999 249999 249998
          249998 249998 249998 249998 249997 249997 249997 249997 249997 249996 249996 249996
          250000 250000 250000 249999 249999 249999 249999 249999 249998 249998 249998 249998
          249998 249997 249997 249997 249997 249997 249996 249996 249996 250000 250000 250000
          249999 249999 249999 249999 249999 249998 249998 249998 249998 249998 249997 249997
          249997 249997 249997 249996 249996 249996 250000 250000 250000 249999 249999 249999
          249999 249999 249998 249998 249998 249998 249998 249997 249997 249997 249997 249997
          249996 249996 249996
        </DataArray>
        <DataArray type="Float32" Name="rho_gas" NumberOfComponents="1" format="ascii">
          2.90954 2.9066 2.90954 2.9066 2.9066 2.9066 2.90659 2.90659 2.90659 2.90659 2.90659 2.90659
          2.90659 2.90659 2.90658 2.90658 2.90658 2.90658 2.90658 2.90658 2.90658 2.90658 2.90658 2.90658
          2.90657 2.90657 2.90657 2.90657 2.90657 2.90657 2.90657 2.90657 2.90656 2.90656 2.90656 2.90656
          2.90657 2.90657 2.90727 2.90727 2.95555 2.95555 2.90954 2.9066 2.9066 2.90659 2.90659 2.90659
          2.90659 2.90658 2.90658 2.90658 2.90658 2.90658 2.90657 2.90657 2.90657 2.90657 2.90656 2.90656
          2.90657 2.90727 2.95555 2.90954 2.9066 2.9066 2.90659 2.90659 2.90659 2.90659 2.90658 2.90658
          2.90658 2.90658 2.90658 2.90657 2.90657 2.90657 2.90657 2.90656 2.90656 2.90657 2.90727 2.95555
          2.90954 2.9066 2.9066 2.90659 2.90659 2.90659 2.90659 2.90658 2.90658 2.90658 2.90658 2.90658
          2.90657 2.90657 2.90657 2.90657 2.90656 2.90656 2.90657 2.90727 2.95555 2.90954 2.9066 2.9066
          2.90659 2.90659 2.90659 2.90659 2.90658 2.90658 2.90658 2.90658 2.90658 2.90657 2.90657 2.90657
          2.90657 2.90656 2.90656 2.90657 2.90727 2.95555 2.90954 2.9066 2.9066 2.90659 2.90659 2.90659
          2.90659 2.90658 2.90658 2.90658 2.90658 2.90658 2.90657 2.90657 2.90657 2.90657 2.90656 2.90656
          2.90657 2.90727 2.95555 2.90954 2.9066 2.9066 2.90659 2.90659 2.90659 2.90659 2.90658 2.90658
          2.90658 2.90658 2.90658 2.90657 2.90657 2.90657 2.90657 2.90656 2.90656 2.90657 2.90727 2.95555
          2.90954 2.9066 2.9066 2.90659 2.90659 2.90659 2.90659 2.90658 2.90658 2.90658 2.90658 2.90658
          2.90657 2.90657 2.90657 2.90657 2.90656 2.90656 2.90657 2.90727 2.95555 2.90954 2.9066 2.9066
          2.90659 2.90659 2.90659 2.90659 2.90658 2.90658 2.90658 2.90658 2.90658 2.90657 2.90657 2.90657
          2.90657 2.90656 2.90656 2.90657 2.90727 2.95555 2.90954 2.9066 2.9066 2.90659 2.90659 2.90659
          2.90659 2.90658 2.90658 2.90658 2.90658 2.90658 2.90657 2.90657 2.90657 2.90657 2.90656 2.90656
          2.90657 2.90727 2.95555
        </DataArray>
        <DataArray type="Float32" Name="mob_gas" NumberOfComponents="1" format="ascii">
          54216.3 54216.5 54216.3 54216.5 54216.6 54216.6 54216.6 54216.6 54216.6 54216.6 54216.6 54216.6
          54216.6 54216.6 54216.6 54216.6 54216.6 54216.6 54216.6 54216.6 54216.6 54216.6 54216.6 54216.6
          54216.6 54216.6 54216.6 54216.6 54216.6 54216.6 54216.6 54216.6 54216.6 54216.6 54216.6 54216.6
          54216.7 54216.7 54226.1 54226.1 54883.3 54883.3 54216.3 54216.5 54216.6 54216.6 54216.6 54216.6
          54216.6 54216.6 54216.6 54216.6 54216.6 54216.6 54216.6 54216.6 54216.6 54216.6 54216.6 54216.6
          54216.7 54226.1 54883.3 54216.3 54216.5 54216.6 54216.6 54216.6 54216.6 54216.6 54216.6 54216.6
          54216.6 54216.6 54216.6 54216.6 54216.6 54216.6 54216.6 54216.6 54216.6 54216.7 54226.1 54883.3
          54216.3 54216.5 54216.6 54216.6 54216.6 54216.6 54216.6 54216.6 54216.6 54216.6 54216.6 54216.6
          54216.6 54216.6 54216.6 54216.6 54216.6 54216.6 54216.7 54226.1 54883.3 54216.3 54216.5 54216.6
          54216.6 54216.6 54216.6 54216.6 54216.6 54216.6 54216.6 54216.6 54216.6 54216.6 54216.6 54216.6
          54216.6 54216.6 54216.6 54216.7 54226.1 54883.3 54216.3 54216.5 54216.6 54216.6 54216.6 54216.6
          54216.6 54216.6 54216.6 54216.6 54216.6 54216.6 54216.6 54216.6 54216.6 54216.6 54216.6 54216.6
          54216.7 54226.1 54883.3 54216.3 54216.5 54216.6 54216.6 54216.6 54216.6 54216.6 54216.6 54216.6
          54216.6 54216.6 54216.6 54216.6 54216.6 54216.6 54216.6 54216.6 54216.6 54216.7 54226.1 54883.3
          54216.3 54216.5 54216.6 54216.6 54216.6 54216.6 54216.6 54216.6 54216.6 54216.6 54216.6 54216.6
          54216.6 54216.6 54216.6 54216.6 54216.6 54216.6 54216.7 54226.1 54883.3 54216.3 54216.5 54216.6
          54216.6 54216.6 54216.6 54216.6 54216.6 54216.6 54216.6 54216.6 54216.6 54216.6 54216.6 54216.6
          54216.6 54216.6 54216.6 54216.7 54226.1 54883.3 54216.3 54216.5 54216.6 54216.6 54216.6 54216.6
          54216.6 54216.6 54216.6 54216.6 54216.6 54216.6 54216.6 54216.6 54216.6 54216.6 54216.6 54216.6
          54216.7 54226.1 54883.3
        </DataArray>
        <DataArray type="Float32" Name="pc" NumberOfComponents="1" format="ascii">
          150000 150708 150000 150708 150702 150702 150702 150702 150702 150702 150702 150702
          150702 150702 150702 150702 150702 150702 150702 150702 150702 150702 150702 150702
          150702 150702 150702 150702 150702 150702 150702 150702 150702 150702 150702 150702
          150703 150703 150730 150730 237113 237113 150000 150708 150702 150702 150702 150702
          150702 150702 150702 150702 150702 150702 150702 150702 150702 150702 150702 150702
          150703 150730 237113 150000 150708 150702 150702 150702 150702 150702 150702 150702
          150702 150702 150702 150702 150702 150702 150702 150702 150702 150703 150730 237113
          150000 150708 150702 150702 150702 150702 150702 150702 150702 150702 150702 150702
          150702 150702 150702 150702 150702 150702 150703 150730 237113 150000 150708 150702
          150702 150702 150702 150702 150702 150702 150702 150702 150702 150702 150702 150702
          150702 150702 150702 150703 150730 237113 150000 150708 150702 150702 150702 150702
          150702 150702 150702 150702 150702 150702 150702 150702 150702 150702 150702 150702
          150703 150730 237113 150000 150708 150702 150702 150702 150702 150702 150702 150702
          150702 150702 150702 150702 150702 150702 150702 150702 150702 150703 150730 237113
          150000 150708 150702 150702 150702 150702 150702 150702 150702 150702 150702 150702
          150702 150702 150702 150702 150702 150702 150703 150730 237113 150000 150708 150702
          150702 150702 150702 150702 150702 150702 150702 150702 150702 150702 150702 150702
          150702 150702 150702 150703 150730 237113 150000 150708 150702 150702 150702 150702
          150702 150702 150702 150702 150702 150702 150702 150702 150702 150702 150702 150702
          150703 150730 237113
        </DataArray>
        <DataArray type="Float32" Name="porosity" NumberOfComponents="1" format="ascii">
          0.4 0.4 0.4 0.4 0.4 0.4 0.4 0.4 0.4 0.4 0.4 0.4
          0.4 0.4 0.4 0.4 0.4 0.4 0.4 0.4 0.4 0.4 0.4 0.4
          0.4 0.4 0.4 0.4 0.4 0.4 0.4 0.4 0.4 0.4 0.4 0.4
          0.4 0.4 0.4 0.4 0.4 0.4 0.4 0.4 0.4 0.4 0.4 0.4
          0.4 0.4 0.4 0.4 0.4 0.4 0.4 0.4 0.4 0.4 0.4 0.4
          0.4 0.4 0.4 0.4 0.4 0.4 0.4 0.4 0.4 0.4 0.4 0.4
          0.4 0.4 0.4 0.4 0.4 0.4 0.4 0.4 0.4 0.4 0.4 0.4
          0.4 0.4 0.4 0.4 0.4 0.4 0.4 0.4 0.4 0.4 0.4 0.4
          0.4 0.4 0.4 0.4 0.4 0.4 0.4 0.4 0.4 0.4 0.4 0.4
          0.4 0.4 0.4 0.4 0.4 0.4 0.4 0.4 0.4 0.4 0.4 0.4
          0.4 0.4 0.4 0.4 0.4 0.4 0.4 0.4 0.4 0.4 0.4 0.4
          0.4 0.4 0.4 0.4 0.4 0.4 0.4 0.4 0.4 0.4 0.4 0.4
          0.4 0.4 0.4 0.4 0.4 0.4 0.4 0.4 0.4 0.4 0.4 0.4
          0.4 0.4 0.4 0.4 0.4 0.4 0.4 0.4 0.4 0.4 0.4 0.4
          0.4 0.4 0.4 0.4 0.4 0.4 0.4 0.4 0.4 0.4 0.4 0.4
          0.4 0.4 0.4 0.4 0.4 0.4 0.4 0.4 0.4 0.4 0.4 0.4
          0.4 0.4 0.4 0.4 0.4 0.4 0.4 0.4 0.4 0.4 0.4 0.4
          0.4 0.4 0.4 0.4 0.4 0.4 0.4 0.4 0.4 0.4 0.4 0.4
          0.4 0.4 0.4 0.4 0.4 0.4 0.4 0.4 0.4 0.4 0.4 0.4
          0.4 0.4 0.4
        </DataArray>
        <DataArray type="Float32" Name="x^H2O_liq" NumberOfComponents="1" format="ascii">
          0.9995 0.999966 0.9995 0.999966 0.999966 0.999966 0.999966 0.999966 0.999966 0.999966 0.999966 0.999966
          0.999966 0.999966 0.999966 0.999966 0.999966 0.999966 0.999966 0.999966 0.999966 0.999966 0.999966 0.999966
          0.999966 0.999966 0.999966 0.999966 0.999966 0.999966 0.999966 0.999966 0.999966 0.999966 0.999966 0.999966
          0.999966 0.999966 0.999966 0.999966 0.999963 0.999963 0.9995 0.999966 0.999966 0.999966 0.999966 0.999966
          0.999966 0.999966 0.999966 0.999966 0.999966 0.999966 0.999966 0.999966 0.999966 0.999966 0.999966 0.999966
          0.999966 0.999966 0.999963 0.9995 0.999966 0.999966 0.999966 0.999966 0.999966 0.999966 0.999966 0.999966
          0.999966 0.999966 0.999966 0.999966 0.999966 0.999966 0.999966 0.999966 0.999966 0.999966 0.999966 0.999963
          0.9995 0.999966 0.999966 0.999966 0.999966 0.999966 0.999966 0.999966 0.999966 0.999966 0.999966 0.999966
          0.999966 0.999966 0.999966 0.999966 0.999966 0.999966 0.999966 0.999966 0.999963 0.9995 0.999966 0.999966
          0.999966 0.999966 0.999966 0.999966 0.999966 0.999966 0.999966 0.999966 0.999966 0.999966 0.999966 0.999966
          0.999966 0.999966 0.999966 0.999966 0.999966 0.999963 0.9995 0.999966 0.999966 0.999966 0.999966 0.999966
          0.999966 0.999966 0.999966 0.999966 0.999966 0.999966 0.999966 0.999966 0.999966 0.999966 0.999966 0.999966
          0.999966 0.999966 0.999963 0.9995 0.999966 0.999966 0.999966 0.999966 0.999966 0.999966 0.999966 0.999966
          0.999966 0.999966 0.999966 0.999966 0.999966 0.999966 0.999966 0.999966 0.999966 0.999966 0.999966 0.999963
          0.9995 0.999966 0.999966 0.999966 0.999966 0.999966 0.999966 0.999966 0.999966 0.999966 0.999966 0.999966
          0.999966 0.999966 0.999966 0.999966 0.999966 0.999966 0.999966 0.999966 0.999963 0.9995 0.999966 0.999966
          0.999966 0.999966 0.999966 0.999966 0.999966 0.999966 0.999966 0.999966 0.999966 0.999966 0.999966 0.999966
          0.999966 0.999966 0.999966 0.999966 0.999966 0.999963 0.9995 0.999966 0.999966 0.999966 0.999966 0.999966
          0.999966 0.999966 0.999966 0.999966 0.999966 0.999966 0.999966 0.999966 0.999966 0.999966 0.999966 0.999966
          0.999966 0.999966 0.999963
        </DataArray>
        <DataArray type="Float32" Name="X^H2O_liq" NumberOfComponents="1" format="ascii">
          0.999196 0.999945 0.999196 0.999945 0.999945 0.999945 0.999945 0.999945 0.999945 0.999945 0.999945 0.999945
          0.999945 0.999945 0.999945 0.999945 0.999945 0.999945 0.999945 0.999945 0.999945 0.999945 0.999945 0.999945
          0.999945 0.999945 0.999945 0.999945 0.999945 0.999945 0.999945 0.999945 0.999945 0.999945 0.999945 0.999945
          0.999945 0.999945 0.999945 0.999945 0.999941 0.999941 0.999196 0.999945 0.999945 0.999945 0.999945 0.999945
          0.999945 0.999945 0.999945 0.999945 0.999945 0.999945 0.999945 0.999945 0.999945 0.999945 0.999945 0.999945
          0.999945 0.999945 0.999941 0.999196 0.999945 0.999945 0.999945 0.999945 0.999945 0.999945 0.999945 0.999945
          0.999945 0.999945 0.999945 0.999945 0.999945 0.999945 0.999945 0.999945 0.999945 0.999945 0.999945 0.999941
          0.999196 0.999945 0.999945 0.999945 0.999945 0.999945 0.999945 0.999945 0.999945 0.999945 0.999945 0.999945
          0.999945 0.999945 0.999945 0.999945 0.999945 0.999945 0.999945 0.999945 0.999941 0.999196 0.999945 0.999945
          0.999945 0.999945 0.999945 0.999945 0.999945 0.999945 0.999945 0.999945 0.999945 0.999945 0.999945 0.999945
          0.999945 0.999945 0.999945 0.999945 0.999945 0.999941 0.999196 0.999945 0.999945 0.999945 0.999945 0.999945
          0.999945 0.999945 0.999945 0.999945 0.999945 0.999945 0.999945 0.999945 0.999945 0.999945 0.999945 0.999945
          0.999945 0.999945 0.999941 0.999196 0.999945 0.999945 0.999945 0.999945 0.999945 0.999945 0.999945 0.999945
          0.999945 0.999945 0.999945 0.999945 0.999945 0.999945 0.999945 0.999945 0.999945 0.999945 0.999945 0.999941
          0.999196 0.999945 0.999945 0.999945 0.999945 0.999945 0.999945 0.999945 0.999945 0.999945 0.999945 0.999945
          0.999945 0.999945 0.999945 0.999945 0.999945 0.999945 0.999945 0.999945 0.999941 0.999196 0.999945 0.999945
          0.999945 0.999945 0.999945 0.999945 0.999945 0.999945 0.999945 0.999945 0.999945 0.999945 0.999945 0.999945
          0.999945 0.999945 0.999945 0.999945 0.999945 0.999941 0.999196 0.999945 0.999945 0.999945 0.999945 0.999945
          0.999945 0.999945 0.999945 0.999945 0.999945 0.999945 0.999945 0.999945 0.999945 0.999945 0.999945 0.999945
          0.999945 0.999945 0.999941
        </DataArray>
        <DataArray type="Float32" Name="x^Air_liq" NumberOfComponents="1" format="ascii">
          0.0005 3.41684e-05 0.0005 3.41684e-05 3.41684e-05 3.41684e-05 3.41683e-05 3.41683e-05 3.41683e-05 3.41683e-05 3.41683e-05 3.41683e-05
          3.41683e-05 3.41683e-05 3.41682e-05 3.41682e-05 3.41682e-05 3.41682e-05 3.41682e-05 3.41682e-05 3.41682e-05 3.41682e-05 3.41681e-05 3.41681e-05
          3.41681e-05 3.41681e-05 3.41681e-05 3.41681e-05 3.4168e-05 3.4168e-05 3.4168e-05 3.4168e-05 3.4168e-05 3.4168e-05 3.4168e-05 3.4168e-05
          3.41683e-05 3.41683e-05 3.42054e-05 3.42054e-05 3.6992e-05 3.6992e-05 0.0005 3.41684e-05 3.41684e-05 3.41683e-05 3.41683e-05 3.41683e-05
          3.41683e-05 3.41682e-05 3.41682e-05 3.41682e-05 3.41682e-05 3.41681e-05 3.41681e-05 3.41681e-05 3.4168e-05 3.4168e-05 3.4168e-05 3.4168e-05
          3.41683e-05 3.42054e-05 3.6992e-05 0.0005 3.41684e-05 3.41684e-05 3.41683e-05 3.41683e-05 3.41683e-05 3.41683e-05 3.41682e-05 3.41682e-05
          3.41682e-05 3.41682e-05 3.41681e-05 3.41681e-05 3.41681e-05 3.4168e-05 3.4168e-05 3.4168e-05 3.4168e-05 3.41683e-05 3.42054e-05 3.6992e-05
          0.0005 3.41684e-05 3.41684e-05 3.41683e-05 3.41683e-05 3.41683e-05 3.41683e-05 3.41682e-05 3.41682e-05 3.41682e-05 3.41682e-05 3.41681e-05
          3.41681e-05 3.41681e-05 3.4168e-05 3.4168e-05 3.4168e-05 3.4168e-05 3.41683e-05 3.42054e-05 3.6992e-05 0.0005 3.41684e-05 3.41684e-05
          3.41683e-05 3.41683e-05 3.41683e-05 3.41683e-05 3.41682e-05 3.41682e-05 3.41682e-05 3.41682e-05 3.41681e-05 3.41681e-05 3.41681e-05 3.4168e-05
          3.4168e-05 3.4168e-05 3.4168e-05 3.41683e-05 3.42054e-05 3.6992e-05 0.0005 3.41684e-05 3.41684e-05 3.41683e-05 3.41683e-05 3.41683e-05
          3.41683e-05 3.41682e-05 3.41682e-05 3.41682e-05 3.41682e-05 3.41681e-05 3.41681e-05 3.41681e-05 3.4168e-05 3.4168e-05 3.4168e-05 3.4168e-05
          3.41683e-05 3.42054e-05 3.6992e-05 0.0005 3.41684e-05 3.41684e-05 3.41683e-05 3.41683e-05 3.41683e-05 3.41683e-05 3.41682e-05 3.41682e-05
          3.41682e-05 3.41682e-05 3.41681e-05 3.41681e-05 3.41681e-05 3.4168e-05 3.4168e-05 3.4168e-05 3.4168e-05 3.41683e-05 3.42054e-05 3.6992e-05
          0.0005 3.41684e-05 3.41684e-05 3.41683e-05 3.41683e-05 3.41683e-05 3.41683e-05 3.41682e-05 3.41682e-05 3.41682e-05 3.41682e-05 3.41681e-05
          3.41681e-05 3.41681e-05 3.4168e-05 3.4168e-05 3.4168e-05 3.4168e-05 3.41683e-05 3.42054e-05 3.6992e-05 0.0005 3.41684e-05 3.41684e-05
          3.41683e-05 3.41683e-05 3.41683e-05 3.41683e-05 3.41682e-05 3.41682e-05 3.41682e-05 3.41682e-05 3.41681e-05 3.41681e-05 3.41681e-05 3.4168e-05
          3.4168e-05 3.4168e-05 3.4168e-05 3.41683e-05 3.42054e-05 3.6992e-05 0.0005 3.41684e-05 3.41684e-05 3.41683e-05 3.41683e-05 3.41683e-05
          3.41683e-05 3.41682e-05 3.41682e-05 3.41682e-05 3.41682e-05 3.41681e-05 3.41681e-05 3.41681e-05 3.4168e-05 3.4168e-05 3.4168e-05 3.4168e-05
          3.41683e-05 3.42054e-05 3.6992e-05
        </DataArray>
        <DataArray type="Float32" Name="X^Air_liq" NumberOfComponents="1" format="ascii">
          0.000803523 5.49257e-05 0.000803523 5.49257e-05 5.49257e-05 5.49257e-05 5.49256e-05 5.49256e-05 5.49256e-05 5.49256e-05 5.49255e-05 5.49255e-05
          5.49255e-05 5.49255e-05 5.49254e-05 5.49254e-05 5.49254e-05 5.49254e-05 5.49253e-05 5.49253e-05 5.49253e-05 5.49253e-05 5.49253e-05 5.49253e-05
          5.49252e-05 5.49252e-05 5.49252e-05 5.49252e-05 5.49251e-05 5.49251e-05 5.49251e-05 5.49251e-05 5.4925e-05 5.4925e-05 5.4925e-05 5.4925e-05
          5.49256e-05 5.49256e-05 5.49852e-05 5.49852e-05 5.94646e-05 5.94646e-05 0.000803523 5.49257e-05 5.49257e-05 5.49256e-05 5.49256e-05 5.49255e-05
          5.49255e-05 5.49254e-05 5.49254e-05 5.49253e-05 5.49253e-05 5.49253e-05 5.49252e-05 5.49252e-05 5.49251e-05 5.49251e-05 5.4925e-05 5.4925e-05
          5.49256e-05 5.49852e-05 5.94646e-05 0.000803523 5.49257e-05 5.49257e-05 5.49256e-05 5.49256e-05 5.49255e-05 5.49255e-05 5.49254e-05 5.49254e-05
          5.49253e-05 5.49253e-05 5.49253e-05 5.49252e-05 5.49252e-05 5.49251e-05 5.49251e-05 5.4925e-05 5.4925e-05 5.49256e-05 5.49852e-05 5.94646e-05
          0.000803523 5.49257e-05 5.49257e-05 5.49256e-05 5.49256e-05 5.49255e-05 5.49255e-05 5.49254e-05 5.49254e-05 5.49253e-05 5.49253e-05 5.49253e-05
          5.49252e-05 5.49252e-05 5.49251e-05 5.49251e-05 5.4925e-05 5.4925e-05 5.49256e-05 5.49852e-05 5.94646e-05 0.000803523 5.49257e-05 5.49257e-05
          5.49256e-05 5.49256e-05 5.49255e-05 5.49255e-05 5.49254e-05 5.49254e-05 5.49253e-05 5.49253e-05 5.49253e-05 5.49252e-05 5.49252e-05 5.49251e-05
          5.49251e-05 5.4925e-05 5.4925e-05 5.49256e-05 5.49852e-05 5.94646e-05 0.000803523 5.49257e-05 5.49257e-05 5.49256e-05 5.49256e-05 5.49255e-05
          5.49255e-05 5.49254e-05 5.49254e-05 5.49253e-05 5.49253e-05 5.49253e-05 5.49252e-05 5.49252e-05 5.49251e-05 5.49251e-05 5.4925e-05 5.4925e-05
          5.49256e-05 5.49852e-05 5.94646e-05 0.000803523 5.49257e-05 5.49257e-05 5.49256e-05 5.49256e-05 5.49255e-05 5.49255e-05 5.49254e-05 5.49254e-05
          5.49253e-05 5.49253e-05 5.49253e-05 5.49252e-05 5.49252e-05 5.49251e-05 5.49251e-05 5.4925e-05 5.4925e-05 5.49256e-05 5.49852e-05 5.94646e-05
          0.000803523 5.49257e-05 5.49257e-05 5.49256e-05 5.49256e-05 5.49255e-05 5.49255e-05 5.49254e-05 5.49254e-05 5.49253e-05 5.49253e-05 5.49253e-05
          5.49252e-05 5.49252e-05 5.49251e-05 5.49251e-05 5.4925e-05 5.4925e-05 5.49256e-05 5.49852e-05 5.94646e-05 0.000803523 5.49257e-05 5.49257e-05
          5.49256e-05 5.49256e-05 5.49255e-05 5.49255e-05 5.49254e-05 5.49254e-05 5.49253e-05 5.49253e-05 5.49253e-05 5.49252e-05 5.49252e-05 5.49251e-05
          5.49251e-05 5.4925e-05 5.4925e-05 5.49256e-05 5.49852e-05 5.94646e-05 0.000803523 5.49257e-05 5.49257e-05 5.49256e-05 5.49256e-05 5.49255e-05
          5.49255e-05 5.49254e-05 5.49254e-05 5.49253e-05 5.49253e-05 5.49253e-05 5.49252e-05 5.49252e-05 5.49251e-05 5.49251e-05 5.4925e-05 5.4925e-05