<?xml version="1.0"?>
<VTKFile type="PolyData" version="0.1" byte_order="LittleEndian">
  <PolyData>
    <Piece NumberOfLines="44" NumberOfPoints="45">
      <CellData Scalars="p">
        <DataArray type="Float32" Name="p" NumberOfComponents="1" format="ascii">
          -261451 -260421 -259416 -258436 -257560 -256758 -255971 -255201 -254453 -253716 -252998 -252298
          -251625 -250965 -250324 -249704 -249190 -248757 -248337 -247930 -247544 -247168 -246808 -246463
          -246207 -246031 -245869 -245723 -245606 -245504 -245423 -245369 -249226 -248892 -248631 -248456
          -257799 -257493 -257249 -257084 -246176 -245953 -245774 -245652
        </DataArray>
        <DataArray type="Float32" Name="process rank" NumberOfComponents="1" format="ascii">
          0 0 0 0 0 0 0 0 0 0 0 0
          0 0 0 0 0 0 0 0 0 0 0 0
          0 0 0 0 0 0 0 0 0 0 0 0
          0 0 0 0 0 0 0 0
        </DataArray>
        <DataArray type="Float32" Name="radius" NumberOfComponents="1" format="ascii">
          0.0026 0.0026 0.0026 0.0026 0.0023 0.0023 0.0023 0.0023 0.0022 0.0022 0.0022 0.0022
          0.0021 0.0021 0.0021 0.0021 0.0017 0.0017 0.0017 0.0017 0.0015 0.0015 0.0015 0.0015
          0.0014 0.0014 0.0014 0.0014 0.0012 0.0012 0.0012 0.0012 0.0014 0.0014 0.0014 0.0014
          0.0016 0.0016 0.0016 0.0016 0.0014 0.0014 0.0014 0.0014
        </DataArray>
      </CellData>
      <Points>
        <DataArray type="Float32" Name="Coordinates" NumberOfComponents="3" format="ascii">
          0 0 0 0 0 -0.0025 0 0 -0.005 0 0 -0.0075
          0 0 -0.01 0 0 -0.0125 0 0 -0.015 0 0 -0.0175
          0 0 -0.02 0 0 -0.0225 0 0 -0.025 0 0 -0.0275
          0 0 -0.03 0 0 -0.0325 0 0 -0.035 0 0 -0.0375
          0 0 -0.04 0 0 -0.0425 0 0 -0.045 0 0 -0.0475
          0 0 -0.05 0 0 -0.0525 0 0 -0.055 0 0 -0.0575
          0 0 -0.06 0 0 -0.0625 0 0 -0.065 0 0 -0.0675
          0 0 -0.07 0 0 -0.0725 0 0 -0.075 0 0 -0.0775
          0 0 -0.08 0.0025 0.0025 -0.045 0.005 0.005 -0.05 0.0075 0.0075 -0.055
          0.01 0.01 -0.06 -0.0025 -0.0025 -0.015 -0.005 -0.005 -0.02 -0.0075 -0.0075 -0.025
          -0.01 -0.01 -0.03 -0.0025 0.0025 -0.0625 -0.005 0.005 -0.065 -0.0075 0.0075 -0.0675
          -0.01 0.01 -0.07
        </DataArray>
      </Points>
      <Lines>
        <DataArray type="Int32" Name="connectivity" NumberOfComponents="1" format="ascii">
          0 1 1 2 2 3 3 4 4 5 5 6
          6 7 7 8 8 9 9 10 10 11 11 12
          12 13 13 14 14 15 15 16 16 17 17 18
          18 19 19 20 20 21 21 22 22 23 23 24
          24 25 25 26 26 27 27 28 28 29 29 30
          30 31 31 32 16 33 33 34 34 35 35 36
          4 37 37 38 38 39 39 40 24 41 41 42
          42 43 43 44
        </DataArray>
        <DataArray type="Int32" Name="offsets" NumberOfComponents="1" format="ascii">
          2 4 6 8 10 12 14 16 18 20 22 24
          26 28 30 32 34 36 38 40 42 44 46 48
          50 52 54 56 58 60 62 64 66 68 70 72
          74 76 78 80 82 84 86 88
        </DataArray>
      </Lines>
    </Piece>
  </PolyData>
</VTKFile>
