<?xml version="1.0"?>
<VTKFile type="PolyData" version="0.1" byte_order="LittleEndian">
  <PolyData>
    <Piece NumberOfLines="32" NumberOfPoints="33">
      <CellData Scalars="p">
        <DataArray type="Float32" Name="p" NumberOfComponents="1" format="ascii">
          1.96875 1.81039 1.74788 1.68538 1.62288 1.56038 1.49789 1.43542 1.37299 1.31061 1.2483 1.18611
          1.12406 1.06219 1.00058 0.939263 0.878327 0.817848 0.757919 0.698646 0.640142 0.582539 0.525978 0.470617
          0.416626 0.364194 0.313523 0.264835 0.218367 0.174376 0.133136 0.03125
        </DataArray>
        <DataArray type="Float32" Name="rho" NumberOfComponents="1" format="ascii">
          1 1 1 1 1 1 1 1 1 1 1 1
          1 1 1 1 1 1 1 1 1 1 1 1
          1 1 1 1 1 1 1 1
        </DataArray>
        <DataArray type="Float32" Name="velocity_liq (m/s)" NumberOfComponents="1" format="ascii">
          0.000771803 0.0017496 0.0025278 0.00422152 0.00719699 0.0118204 0.018458 0.0274759 0.0392404 0.0541178 0.0724741 0.0946756
          0.121089 0.152079 0.188014 0.229258 0.276179 0.329142 0.388514 0.454661 0.527949 0.608744 0.697413 0.794322
          0.899836 1.01432 1.13815 1.27168 1.41528 1.56932 1.73416 1.90966
        </DataArray>
        <DataArray type="Float32" Name="process rank" NumberOfComponents="1" format="ascii">
          0 0 0 0 0 0 0 0 0 0 0 0
          0 0 0 0 0 0 0 0 0 0 0 0
          0 0 0 0 0 0 0 0
        </DataArray>
        <DataArray type="Float32" Name="pressureExact" NumberOfComponents="1" format="ascii">
          1.96875 1.90625 1.84375 1.78125 1.71875 1.65625 1.59375 1.53125 1.46875 1.40625 1.34375 1.28125
          1.21875 1.15625 1.09375 1.03125 0.96875 0.90625 0.84375 0.78125 0.71875 0.65625 0.59375 0.53125
          0.46875 0.40625 0.34375 0.28125 0.21875 0.15625 0.09375 0.03125
        </DataArray>
        <DataArray type="Float32" Name="velocityExact" NumberOfComponents="1" format="ascii">
          7.62939e-06 0.000205994 0.000953674 0.00261688 0.00556183 0.0101547 0.0167618 0.0257492 0.0374832 0.05233 0.0706558 0.0928268
          0.119209 0.150169 0.186073 0.227287 0.274178 0.32711 0.386452 0.452568 0.525826 0.60659 0.695229 0.792107
          0.897591 1.01205 1.13584 1.26934 1.41291 1.56692 1.73173 1.90771
        </DataArray>
      </CellData>
      <Points>
        <DataArray type="Float32" Name="Coordinates" NumberOfComponents="3" format="ascii">
          0 0 0 0.03125 0 0 0.0625 0 0 0.09375 0 0
          0.125 0 0 0.15625 0 0 0.1875 0 0 0.21875 0 0
          0.25 0 0 0.28125 0 0 0.3125 0 0 0.34375 0 0
          0.375 0 0 0.40625 0 0 0.4375 0 0 0.46875 0 0
          0.5 0 0 0.53125 0 0 0.5625 0 0 0.59375 0 0
          0.625 0 0 0.65625 0 0 0.6875 0 0 0.71875 0 0
          0.75 0 0 0.78125 0 0 0.8125 0 0 0.84375 0 0
          0.875 0 0 0.90625 0 0 0.9375 0 0 0.96875 0 0
          1 0 0
        </DataArray>
      </Points>
      <Lines>
        <DataArray type="Int32" Name="connectivity" NumberOfComponents="1" format="ascii">
          0 1 1 2 2 3 3 4 4 5 5 6
          6 7 7 8 8 9 9 10 10 11 11 12
          12 13 13 14 14 15 15 16 16 17 17 18
          18 19 19 20 20 21 21 22 22 23 23 24
          24 25 25 26 26 27 27 28 28 29 29 30
          30 31 31 32
        </DataArray>
        <DataArray type="Int32" Name="offsets" NumberOfComponents="1" format="ascii">
          2 4 6 8 10 12 14 16 18 20 22 24
          26 28 30 32 34 36 38 40 42 44 46 48
          50 52 54 56 58 60 62 64
        </DataArray>
      </Lines>
    </Piece>
  </PolyData>
</VTKFile>
