<?xml version="1.0"?>
<VTKFile type="UnstructuredGrid" version="0.1" byte_order="LittleEndian">
  <UnstructuredGrid>
    <Piece NumberOfCells="3198" NumberOfPoints="4179">
      <CellData Scalars="S_liq">
        <DataArray type="Float32" Name="S_liq" NumberOfComponents="1" format="ascii">
          0.289504 0.289472 0.289421 0.289377 0.289363 0.289389 0.289448 0.289521 0.289585 0.289622 0.289489 0.28945
          0.289385 0.289332 0.289313 0.289345 0.289414 0.2895 0.289573 0.289614 0.289472 0.289421 0.289334 0.289234
          0.289276 0.289362 0.28947 0.289559 0.289608 0.28947 0.289412 0.289315 0.289177 0.289327 0.289455 0.289558
          0.289614 0.289499 0.289451 0.28935 0.289256 0.289211 0.289233 0.289353 0.289482 0.289586 0.289642 0.289559
          0.289515 0.28931 0.28943 0.289547 0.289642 0.289695 0.289641 0.289607 0.28954 0.289483 0.289444 0.289472
          0.289541 0.289637 0.289719 0.289764 0.289729 0.2897 0.289651 0.289605 0.289582 0.289606 0.289659 0.289734
          0.289799 0.289836 0.289803 0.28978 0.289744 0.289709 0.289694 0.289712 0.289755 0.289814 0.289866 0.289896
          0.289844 0.289825 0.289795 0.289767 0.289756 0.289771 0.289809 0.289859 0.289904 0.28993 0.289204 0.289165
          0.289101 0.289045 0.289026 0.289054 0.28912 0.289204 0.289276 0.289318 0.289185 0.289134 0.289042 0.288942
          0.288983 0.28907 0.289174 0.28926 0.289308 0.289159 0.289087 0.288972 0.289127 0.289238 0.289297 0.289148
          0.289057 0.289092 0.28923 0.289299 0.289172 0.288733 0.28912 0.289257 0.289327 0.289231 0.289194 0.289318
          0.289383 0.289321 0.289027 0.289159 0.289298 0.289403 0.289459 0.289427 0.289383 0.289318 0.289254 0.289212
          0.289311 0.289412 0.289494 0.289539 0.289511 0.289482 0.289435 0.289389 0.289364 0.289385 0.289436 0.289508
          0.28957 0.289605 0.289557 0.289534 0.289497 0.289462 0.289445 0.28946 0.289504 0.289561 0.289613 0.289643
          0.288833 0.288785 0.288706 0.288635 0.288597 0.28862 0.288698 0.288799 0.288887 0.288937 0.288809 0.288747
          0.288642 0.288498 0.288524 0.288626 0.288756 0.288863 0.288922 0.288774 0.288689 0.288486 0.288684 0.288828
          0.288903 0.288754 0.28864 0.288619 0.288808 0.288898 0.288777 0.288833 0.288926 0.288843 0.288901 0.288989
          0.288945 0.288853 0.289003 0.289077 0.289062 0.289006 0.28891 0.288799 0.289 0.289114 0.289172 0.289158
          0.28912 0.289055 0.288985 0.288932 0.289026 0.289127 0.289208 0.289252 0.289211 0.289181 0.289132 0.289082
          0.289054 0.28907 0.289124 0.289197 0.28926 0.289296 0.288406 0.288343 0.288238 0.288132 0.288074 0.288099
          0.288194 0.28832 0.28843 0.288493 0.288375 0.288295 0.288153 0.288001 0.287954 0.288093 0.288259 0.288395
          0.288471 0.28833 0.288219 0.288002 0.287902 0.288159 0.288344 0.288441 0.288302 0.288157 0.28807 0.288309
          0.288428 0.288324 0.288057 0.288328 0.288455 0.288399 0.288165 0.288409 0.288528 0.288516 0.288352 0.288539
          0.288635 0.288648 0.288575 0.28844 0.288274 0.288541 0.288678 0.288752 0.288759 0.288708 0.28862 0.288523
          0.28846 0.288582 0.288697 0.288795 0.288849 0.288822 0.288782 0.288717 0.28865 0.288613 0.288637 0.288697
          0.288783 0.28886 0.288903 0.287943 0.287861 0.287723 0.287581 0.287501 0.287518 0.287631 0.287785 0.287924
          0.288004 0.287904 0.287801 0.287611 0.287322 0.28749 0.287699 0.287874 0.287972 0.287848 0.287708 0.287234
          0.28756 0.287801 0.287928 0.287812 0.287637 0.287425 0.287747 0.287904 0.287833 0.287773 0.287934 0.287902
          0.287699 0.287864 0.288019 0.288036 0.28787 0.287589 0.287785 0.288026 0.288151 0.288196 0.288093 0.287906
          0.287672 0.287776 0.288024 0.288201 0.288294 0.28833 0.288263 0.288146 0.288018 0.287942 0.287955 0.288081
          0.288227 0.288347 0.288414 0.288405 0.288355 0.28827 0.288184 0.288136 0.288153 0.288232 0.288336 0.288428
          0.288481 0.287468 0.287366 0.287189 0.286998 0.286894 0.286902 0.287032 0.28722 0.287395 0.287497 0.28742
          0.287291 0.287049 0.286748 0.286823 0.28709 0.287323 0.287451 0.287354 0.287188 0.287217 0.287389 0.287307
          0.287101 0.287135 0.287353 0.287318 0.287075 0.287387 0.28741 0.287194 0.287286 0.287489 0.287563 0.287381
          0.287485 0.287648 0.287744 0.287616 0.287362 0.287482 0.287706 0.287822 0.287898 0.287815 0.287668 0.287508
          0.287423 0.287456 0.28758 0.287745 0.287888 0.287968 0.287984 0.287923 0.28782 0.287714 0.287656 0.287675
          0.287761 0.28788 0.287987 0.288049 0.287009 0.286886 0.286671 0.286444 0.286314 0.286316 0.286446 0.286664
          0.286878 0.287002 0.286951 0.286791 0.286776 0.286942 0.286871 0.286861 0.286818 0.286814 0.286831 0.28655
          0.286531 0.286842 0.286937 0.28669 0.286717 0.28697 0.287112 0.286911 0.286961 0.287158 0.287313 0.28717
          0.286887 0.286966 0.287228 0.287365 0.287484 0.28739 0.287224 0.287041 0.286936 0.286963 0.287096 0.287279
          0.287442 0.287534 0.28758 0.287511 0.287393 0.287271 0.287201 0.287216 0.287307 0.287438 0.287559 0.287629
          0.286595 0.28646 0.286222 0.285967 0.285929 0.286173 0.286416 0.286557 0.286529 0.286351 0.286007 0.285924
          0.286293 0.286487 0.286435 0.286176 0.286093 0.286389 0.286383 0.286346 0.286396 0.286376 0.286509 0.286506
          0.286702 0.286481 0.28648 0.286715 0.286922 0.286771 0.286482 0.286496 0.286792 0.286947 0.287107 0.287006
          0.286828 0.286625 0.286645 0.286853 0.287035 0.287137 0.28721 0.287135 0.287006 0.286871 0.286792 0.286799
          0.286891 0.287033 0.287165 0.287242 0.286248 0.28611 0.285868 0.285593 0.285385 0.285362 0.285545 0.285796
          0.286042 0.286187 0.28618 0.286005 0.285681 0.285282 0.285924 0.286116 0.28608 0.285837 0.285356 0.286023
          0.286007 0.285694 0.285969 0.286016 0.285668 0.285605 0.285983 0.286137 0.285819 0.286132 0.286349 0.286116
          0.285636 0.28611 0.286349 0.286584 0.286428 0.286131 0.285749 0.286124 0.286431 0.286592 0.286779 0.286674
          0.286489 0.286275 0.286121 0.28612 0.286285 0.286497 0.286687 0.286794 0.286887 0.286808 0.286673 0.286528
          0.286432 0.286435 0.286537 0.286686 0.286825 0.286905 0.285971 0.285835 0.285597 0.285327 0.285126 0.285101
          0.285257 0.285507 0.285753 0.285897 0.285904 0.285735 0.285429 0.28506 0.284762 0.284727 0.284946 0.285292
          0.285637 0.285826 0.285803 0.285577 0.285143 0.284569 0.28409 0.285464 0.285727 0.285727 0.285437 0.284849
          0.285355 0.285668 0.285734 0.285411 0.28473 0.285372 0.285696 0.285857 0.285558 0.284931 0.285519 0.285833
          0.286072 0.285845 0.285395 0.284762 0.284182 0.28532 0.285816 0.286058 0.286311 0.286155 0.285866 0.285502
          0.285198 0.285195 0.285455 0.285837 0.286144 0.286308 0.286508 0.286403 0.286217 0.286005 0.28585 0.285848
          0.285996 0.286213 0.286406 0.286515 0.286618 0.286538 0.286401 0.286252 0.286153 0.286154 0.286254 0.286406
          0.286547 0.286629 0.289304 0.289287 0.289259 0.289279 0.289177 0.289158 0.289104 0.289121 0.289261 0.289237
          0.28924 0.289263 0.289096 0.289077 0.2891 0.289125 0.289242 0.289268 0.289255 0.289229 0.289102 0.28913
          0.289101 0.289072 0.289455 0.289422 0.289459 0.289488 0.289336 0.289286 0.28932 0.28937 0.289383 0.28936
          0.289399 0.289425 0.289245 0.289233 0.289275 0.289286 0.28934 0.28936 0.289402 0.289381 0.289203 0.289226
          0.289275 0.28925 0.289034 0.289018 0.288979 0.288999 0.288894 0.288875 0.288802 0.288827 0.289027 0.28898
          0.288923 0.289 0.288879 0.288796 0.288693 0.288827 0.288934 0.288908 0.288805 0.28881 0.288696 0.288656
          0.288394 0.288439 0.288881 0.288889 0.288837 0.288816 0.28867 0.288691 0.288597 0.288546 0.288916 0.288939
          0.288898 0.288866 0.288722 0.288766 0.288682 0.288631 0.288979 0.288894 0.28892 0.288988 0.288795 0.288651
          0.288684 0.288799 0.288756 0.288767 0.288809 0.288848 0.288393 0.288353 0.288498 0.28856 0.28877 0.288784
          0.288747 0.288765 0.288482 0.288527 0.28851 0.288513 0.288809 0.288845 0.288737 0.288688 0.288538 0.288554
          0.28831 0.28845 0.288911 0.288977 0.288963 0.28887 0.288679 0.288793 0.288752 0.288588 0.289138 0.289098
          0.289119 0.28916 0.288992 0.288925 0.288931 0.289002 0.289021 0.288954 0.288989 0.289052 0.288819 0.288722
          0.288754 0.288842 0.288886 0.288841 0.288885 0.288929 0.288639 0.288598 0.288659 0.288692 0.288766 0.288797
          0.288849 0.288817 0.288513 0.288493 0.288553 0.288558 0.288889 0.288976 0.289 0.288922 0.288614 0.288759
          0.288778 0.288639 0.289198 0.289159 0.289196 0.289232 0.289035 0.288962 0.289003 0.289074 0.289107 0.289041
          0.289059 0.289144 0.288875 0.288776 0.288713 0.288904 0.288999 0.288968 0.289027 0.289036 0.288742 0.288716
          0.288784 0.288784 0.288918 0.288897 0.288955 0.288973 0.288696 0.288661 0.288737 0.288763 0.288898 0.288928
          0.289011 0.288966 0.288573 0.288569 0.288735 0.288709 0.288983 0.289054 0.289101 0.28905 0.288707 0.288843
          0.288925 0.288826 0.289288 0.289252 0.2893 0.289326 0.289133 0.289069 0.289145 0.289191 0.289198 0.289144
          0.289212 0.289251 0.288994 0.288912 0.289033 0.289085 0.289111 0.289092 0.289146 0.289173 0.288891 0.288887
          0.288977 0.288993 0.289051 0.28908 0.28914 0.289111 0.288814 0.288851 0.28892 0.288868 0.289217 0.289238
          0.2893 0.289283 0.28901 0.289044 0.289146 0.289122 0.28866 0.288635 0.288572 0.288605 0.288495 0.288471
          0.28839 0.288423 0.288648 0.288577 0.288491 0.288603 0.288481 0.288398 0.288304 0.288421 0.288489 0.288431
          0.288223 0.288323 0.288272 0.288201 0.288027 0.288135 0.288409 0.288419 0.288319 0.288283 0.288167 0.288162
          0.288017 0.288015 0.288443 0.288473 0.288385 0.288346 0.288182 0.288234 0.288107 0.288038 0.288554 0.288411
          0.288423 0.288547 0.288339 0.28819 0.28815 0.28831 0.288126 0.287853 0.288125 0.288262 0.287999 0.28781
          0.287681 0.287962 0.288151 0.288217 0.288166 0.288165 0.28787 0.287881 0.287787 0.287798 0.288225 0.288234
          0.287929 0.28811 0.287872 0.287909 0.287561 0.287699 0.28837 0.28849 0.288454 0.288267 0.288089 0.288248
          0.288183 0.287948 0.28875 0.288684 0.288701 0.288773 0.28856 0.288462 0.288461 0.288568 0.288571 0.288448
          0.288469 0.288591 0.288304 0.288131 0.288094 0.288307 0.288341 0.288254 0.288336 0.288397 0.288011 0.287886
          0.287988 0.288057 0.288203 0.288176 0.288232 0.288268 0.287852 0.28781 0.287887 0.287934 0.288155 0.288136
          0.288178 0.288211 0.287751 0.287748 0.287741 0.287834 0.28828 0.288463 0.288444 0.28823 0.287937 0.288172
          0.28816 0.287841 0.288633 0.288724 0.288748 0.288645 0.288432 0.288558 0.288566 0.288428 0.288811 0.288736
          0.288783 0.288853 0.288608 0.288499 0.288556 0.288656 0.288625 0.288498 0.288439 0.288659 0.288356 0.288191
          0.288162 0.288408 0.288454 0.288415 0.288494 0.288506 0.288132 0.288082 0.288178 0.288205 0.288372 0.288331
          0.28842 0.288457 0.288034 0.287991 0.288089 0.288132 0.288277 0.288163 0.288412 0.288395 0.287956 0.287936
          0.28811 0.288067 0.288345 0.288545 0.288644 0.288515 0.287985 0.288255 0.288374 0.288212 0.288702 0.288795
          0.288829 0.288759 0.288488 0.288616 0.288668 0.288566 0.288917 0.288855 0.288925 0.288967 0.288728 0.288641
          0.288733 0.288796 0.288765 0.288662 0.288787 0.288854 0.288531 0.288407 0.288564 0.288647 0.288627 0.288591
          0.288683 0.288729 0.288349 0.288294 0.288422 0.288486 0.288529 0.288479 0.288527 0.288608 0.288227 0.288158
          0.288209 0.288331 0.288452 0.28852 0.288546 0.288369 0.288102 0.288209 0.288262 0.287934 0.288616 0.288711
          0.288778 0.288692 0.288337 0.288477 0.288566 0.288436 0.288725 0.288685 0.288804 0.288811 0.288486 0.288401
          0.288578 0.288615 0.288668 0.288741 0.288881 0.288841 0.288329 0.288458 0.288636 0.28858 0.288817 0.288883
          0.28895 0.288911 0.288574 0.288683 0.28878 0.288708 0.288957 0.288979 0.289031 0.289016 0.28876 0.288787
          0.288875 0.288856 0.288023 0.288014 0.287947 0.28796 0.28781 0.287797 0.287678 0.287698 0.287951 0.287888
          0.287747 0.287853 0.287709 0.287605 0.287428 0.287581 0.287846 0.287823 0.287655 0.28769 0.287516 0.287469
          0.287207 0.287314 0.287827 0.287869 0.287743 0.287669 0.287497 0.287576 0.287401 0.287268 0.288034 0.287907
          0.287848 0.288011 0.287802 0.287641 0.287542 0.287747 0.287739 0.287563 0.287288 0.287638 0.287437 0.287232
          0.286916 0.2873 0.28753 0.287487 0.287335 0.287401 0.287136 0.287037 0.286845 0.286975 0.287448 0.287556
          0.287303 0.287081 0.286988 0.287163 0.286885 0.286497 0.287735 0.28789 0.287838 0.287618 0.287404 0.287607
          0.287528 0.287251 0.288276 0.28818 0.288193 0.288302 0.288066 0.287937 0.287933 0.288076 0.288009 0.287807
          0.287694 0.288001 0.287717 0.287468 0.287316 0.287696 0.287656 0.287493 0.287601 0.287683 0.287272 0.287047
          0.287156 0.287281 0.287447 0.287372 0.287486 0.28754 0.286988 0.286895 0.287042 0.287081 0.287224 0.287327
          0.287365 0.287425 0.286741 0.286698 0.287043 0.287007 0.287595 0.287824 0.287851 0.287627 0.287204 0.287512
          0.287561 0.287308 0.288354 0.288247 0.288316 0.288409 0.288147 0.288016 0.288093 0.288206 0.288073 0.287867
          0.287894 0.28815 0.287784 0.287543 0.287688 0.287889 0.287774 0.28771 0.287828 0.287867 0.287349 0.287283
          0.287441 0.287486 0.287656 0.287616 0.287729 0.287773 0.287232 0.287202 0.287334 0.287376 0.287598 0.287628
          0.28779 0.28772 0.287208 0.287282 0.287443 0.287344 0.287765 0.287947 0.288055 0.287915 0.287454 0.287664
          0.287774 0.287597 0.288487 0.288409 0.288489 0.288543 0.288298 0.288203 0.288296 0.288367 0.288284 0.288142
          0.288288 0.288387 0.288051 0.287906 0.28806 0.288168 0.288041 0.287963 0.288092 0.288175 0.287717 0.287605
          0.287772 0.287887 0.287885 0.287808 0.287869 0.288003 0.287502 0.287418 0.287477 0.287638 0.287755 0.287889
          0.287956 0.287595 0.287385 0.287551 0.287631 0.287208 0.288038 0.288175 0.28828 0.288153 0.287727 0.287902
          0.288022 0.28786 0.288166 0.288087 0.28828 0.288303 0.287864 0.28776 0.288007 0.288052 0.288013 0.288171
          0.288371 0.288301 0.287718 0.287881 0.288105 0.288025 0.288312 0.288417 0.288511 0.288447 0.288075 0.288205
          0.288318 0.288231 0.288502 0.288535 0.288618 0.288596 0.288306 0.288338 0.288444 0.288423 0.287547 0.287502
          0.287406 0.287482 0.287347 0.287269 0.287128 0.287243 0.287462 0.287433 0.287305 0.287339 0.287171 0.287156
          0.286974 0.286995 0.287564 0.287475 0.287391 0.287517 0.28735 0.28721 0.287082 0.287268 0.287371 0.287247
          0.287055 0.287234 0.287045 0.286881 0.286636 0.286877 0.287132 0.28706 0.286696 0.286871 0.28672 0.286646
          0.286151 0.286302 0.287077 0.287153 0.286965 0.286812 0.286707 0.286832 0.286581 0.286353 0.287471 0.287303
          0.287211 0.287424 0.287194 0.286975 0.286881 0.287141 0.287096 0.286877 0.286675 0.286958 0.286731 0.286475
          0.286324 0.286587 0.286694 0.286522 0.286297 0.286528 0.286193 0.285896 0.285678 0.286044 0.286476 0.286709
          0.286357 0.285823 0.285964 0.286276 0.285984 0.285317 0.286981 0.287189 0.287125 0.286833 0.286604 0.286866
          0.28676 0.286423 0.287766 0.287645 0.287649 0.287775 0.287576 0.287434 0.287442 0.287584 0.287408 0.287123
          0.286973 0.287389 0.287119 0.286796 0.286757 0.287121 0.286843 0.286423 0.286609 0.286877 0.286368 0.286198
          0.286278 0.286518 0.286444 0.286347 0.286543 0.286494 0.285898 0.285699 0.286042 0.28604 0.286167 0.286428
          0.28668 0.286549 0.285762 0.286045 0.286215 0.286081 0.286826 0.287132 0.287187 0.286927 0.286396 0.286729
          0.286769 0.28645 0.287377 0.287528 0.287559 0.287402 0.287047 0.287277 0.287286 0.28704 0.287455 0.287218
          0.287372 0.287537 0.287191 0.28693 0.287087 0.28729 0.287001 0.286776 0.287032 0.287184 0.286679 0.28645
          0.286623 0.286836 0.286756 0.286748 0.286898 0.286937 0.28631 0.286276 0.286427 0.286468 0.286779 0.286882
          0.287062 0.286937 0.286314 0.286378 0.286645 0.286506 0.287073 0.287295 0.287423 0.287236 0.286608 0.286902
          0.287068 0.286841 0.287486 0.28763 0.287692 0.28758 0.287145 0.287362 0.287462 0.287291 0.287344 0.287197
          0.287353 0.287483 0.28698 0.286755 0.286943 0.287166 0.287058 0.286969 0.28693 0.287176 0.286528 0.286475
          0.286375 0.286576 0.287 0.287193 0.287298 0.286849 0.286632 0.28683 0.287014 0.28674 0.287381 0.287552
          0.287662 0.287518 0.287027 0.287242 0.2874 0.287227 0.287465 0.287373 0.287658 0.287685 0.287088 0.287003
          0.287368 0.287406 0.287386 0.287549 0.287748 0.28768 0.28711 0.287283 0.287506 0.287413 0.286775 0.286755
          0.286559 0.286605 0.286489 0.286442 0.286187 0.286261 0.286736 0.286764 0.286631 0.286565 0.286448 0.286512
          0.28631 0.286205 0.287015 0.286861 0.286739 0.28694 0.286771 0.286562 0.286393 0.286663 0.286652 0.286472
          0.286249 0.286496 0.2863 0.286078 0.285821 0.286085 0.286326 0.28623 0.285708 0.28598 0.285912 0.285826
          0.285332 0.28555 0.28628 0.286404 0.286109 0.285867 0.28587 0.286002 0.285647 0.285435 0.286533 0.286678
          0.286546 0.286338 0.28618 0.286362 0.286143 0.285895 0.286884 0.287019 0.286952 0.286778 0.286586 0.28678
          0.286666 0.286411 0.286857 0.286624 0.286539 0.286802 0.286567 0.286257 0.286177 0.28651 0.28634 0.286053
          0.285929 0.286224 0.285874 0.285582 0.285464 0.285776 0.285706 0.285382 0.285212 0.285605 0.285113 0.28488
          0.28464 0.285095 0.285423 0.285778 0.285446 0.284597 0.284908 0.285258 0.284908 0.284127 0.286118 0.286411
          0.286284 0.285923 0.285616 0.285946 0.28574 0.285361 0.28667 0.28687 0.28684 0.286602 0.286274 0.286571
          0.286523 0.286176 0.286776 0.286493 0.286508 0.286793 0.28649 0.286166 0.286203 0.286516 0.286138 0.285865
          0.285817 0.286156 0.285799 0.285463 0.285497 0.285849 0.285608 0.285377 0.285585 0.285694 0.285173 0.284897
          0.285015 0.285248 0.285226 0.285445 0.28562 0.285565 0.284748 0.285023 0.285252 0.285017 0.285866 0.286232
          0.286269 0.285895 0.285264 0.285619 0.285877 0.285537 0.286587 0.28689 0.286912 0.286556 0.28616 0.286544
          0.286597 0.286249 0.287146 0.287264 0.287287 0.287171 0.286915 0.287075 0.287098 0.286945 0.286868 0.286609
          0.286723 0.286955 0.286592 0.286286 0.286393 0.286684 0.286305 0.285997 0.286159 0.286425 0.285926 0.285455
          0.285705 0.286035 0.285834 0.285778 0.285905 0.285946 0.28524 0.285206 0.285315 0.285469 0.285826 0.285951
          0.286218 0.286043 0.285315 0.285526 0.285775 0.285558 0.286199 0.286487 0.286676 0.286427 0.285786 0.286087
          0.286269 0.285985 0.286756 0.287001 0.287106 0.286914 0.286397 0.286691 0.286804 0.286552 0.287055 0.286831
          0.286998 0.287158 0.286811 0.286507 0.286734 0.286956 0.286456 0.286223 0.286457 0.286757 0.285987 0.28567
          0.286027 0.286402 0.285802 0.285882 0.286107 0.285909 0.285412 0.285468 0.285904 0.285654 0.286209 0.28643
          0.286673 0.286422 0.285805 0.286007 0.286322 0.286129 0.286604 0.286855 0.287051 0.286863 0.286078 0.286458
          0.286718 0.28649 0.287065 0.287223 0.28732 0.287207 0.286728 0.286954 0.287099 0.286932 0.287023 0.286845
          0.28712 0.287212 0.28675 0.286515 0.286871 0.287004 0.286658 0.286671 0.287037 0.287045 0.286353 0.286388
          0.286774 0.286778 0.286798 0.286952 0.287185 0.287096 0.2865 0.286639 0.286921 0.286833 0.287097 0.287227
          0.287358 0.287278 0.286789 0.286966 0.287154 0.287036 0.286626 0.286507 0.286387 0.286558 0.286461 0.286318
          0.286156 0.286361 0.286311 0.286187 0.285946 0.28614 0.28609 0.285939 0.285617 0.285857 0.286109 0.286072
          0.285791 0.285831 0.285826 0.28578 0.285416 0.285453 0.286083 0.28614 0.285906 0.285815 0.285785 0.285846
          0.285534 0.285435 0.286227 0.286336 0.286187 0.286036 0.285952 0.286084 0.285862 0.28568 0.286512 0.286622
          0.28655 0.286393 0.286298 0.286436 0.286325 0.286127 0.28677 0.286664 0.286593 0.28673 0.28661 0.286473
          0.286375 0.286549 0.286462 0.286203 0.286015 0.286345 0.286196 0.285896 0.285655 0.286054 0.28586 0.285514
          0.285344 0.285587 0.285496 0.285081 0.284872 0.285132 0.285391 0.285388 0.284925 0.285101 0.284784 0.28492
          0.284313 0.284573 0.285435 0.285566 0.285143 0.284946 0.284985 0.28512 0.284603 0.284417 0.285749 0.285954
          0.285664 0.285406 0.285314 0.285525 0.285009 0.284867 0.286202 0.28644 0.286305 0.28598 0.285822 0.286127
          0.285942 0.285428 0.286643 0.286753 0.286711 0.286565 0.286426 0.286575 0.286508 0.286313 0.286672 0.28652
          0.286492 0.286642 0.286474 0.28627 0.286254 0.286457 0.286244 0.285872 0.285774 0.286183 0.285942 0.285477
          0.285442 0.285889 0.285426 0.285128 0.284902 0.285132 0.284997 0.284691 0.284443 0.284896 0.284785 0.284432
          0.284115 0.284536 0.284363 0.283993 0.283746 0.284177 0.284281 0.284647 0.284191 0.283385 0.283851 0.283999
          0.283748 0.283114 0.285078 0.285452 0.285235 0.284795 0.284509 0.284917 0.284769 0.28436 0.285832 0.286201
          0.286143 0.285718 0.285332 0.285832 0.285775 0.285133 0.286488 0.286652 0.286624 0.286463 0.286201 0.286429
          0.286417 0.286192 0.286152 0.2858 0.285857 0.286183 0.285869 0.285452 0.285489 0.285898 0.285363 0.28494
          0.285114 0.285478 0.284987 0.284549 0.28467 0.285057 0.284689 0.284393 0.284577 0.284828 0.284222 0.283881
          0.284064 0.284337 0.284159 0.284481 0.284749 0.284319 0.283587 0.28389 0.284249 0.283897 0.284836 0.285209
          0.285474 0.285108 0.284451 0.284888 0.285078 0.284669 0.28575 0.286139 0.286204 0.28587 0.285364 0.285821
          0.285895 0.285495 0.28627 0.285955 0.286089 0.286379 0.285997 0.285601 0.285785 0.286131 0.285588 0.28523
          0.285403 0.285737 0.285165 0.284813 0.285023 0.285388 0.284967 0.284805 0.28503 0.285159 0.284504 0.284293
          0.28451 0.284725 0.284719 0.285041 0.285315 0.285068 0.284289 0.284554 0.284833 0.284601 0.285343 0.285665
          0.285821 0.285539 0.284879 0.285216 0.285225 0.285067 0.286012 0.286318 0.286442 0.286163 0.285618 0.286008
          0.286133 0.285744 0.286529 0.28625 0.286454 0.28667 0.286307 0.286002 0.286242 0.286476 0.285883 0.285525
          0.285573 0.286119 0.28564 0.285264 0.285439 0.285905 0.285323 0.285285 0.285636 0.285563 0.284957 0.284797
          0.285147 0.285069 0.285421 0.285597 0.285959 0.285786 0.284945 0.285176 0.285567 0.285352 0.285664 0.286062
          0.286374 0.286132 0.285406 0.285693 0.286055 0.285799 0.286372 0.286616 0.286768 0.286596 0.28603 0.286336
          0.286528 0.286315 0.286459 0.286206 0.286584 0.286715 0.286254 0.285982 0.286376 0.286528 0.286087 0.28609
          0.286472 0.286488 0.285786 0.285742 0.286219 0.286257 0.286179 0.286312 0.28661 0.286522 0.285828 0.285982
          0.286352 0.28626 0.286469 0.286645 0.286843 0.286732 0.286166 0.286379 0.28662 0.286482 0.285893 0.285862
          0.285759 0.285807 0.28573 0.285679 0.285568 0.285636 0.285856 0.285877 0.285788 0.28575 0.285669 0.285708
          0.285607 0.285552 0.285812 0.285683 0.285391 0.285606 0.285659 0.285524 0.285251 0.285466 0.28557 0.285495
          0.285076 0.285209 0.285366 0.285269 0.284859 0.285019 0.285479 0.285546 0.28518 0.285038 0.285226 0.285304
          0.284901 0.284692 0.28564 0.285757 0.285532 0.285344 0.285423 0.285567 0.285316 0.285089 0.285894 0.285634
          0.285395 0.285775 0.285735 0.285499 0.285276 0.285611 0.285265 0.284943 0.284375 0.284743 0.28513 0.284802
          0.284243 0.284771 0.284704 0.284596 0.28395 0.284132 0.284523 0.284342 0.283667 0.2838 0.284544 0.284678
          0.284032 0.283758 0.28417 0.284365 0.283621 0.283548 0.284906 0.285149 0.284496 0.284319 0.28459 0.284909
          0.284323 0.283777 0.285485 0.285772 0.285611 0.285138 0.285285 0.285593 0.285424 0.284959 0.286213 0.286024
          0.285979 0.286196 0.286059 0.285863 0.285794 0.286028 0.285683 0.285249 0.285126 0.285606 0.285468 0.285027
          0.284729 0.285346 0.284745 0.284301 0.284162 0.284628 0.284514 0.283873 0.283743 0.284236 0.28392 0.283516
          0.28316 0.283713 0.283455 0.282771 0.282361 0.283161 0.28326 0.283269 0.282891 0.282346 0.282777 0.282798
          0.282659 0.281751 0.28379 0.284387 0.28446 0.28385 0.283488 0.284222 0.284224 0.283534 0.284808 0.285502
          0.285491 0.284918 0.284757 0.285314 0.285285 0.284775 0.285918 0.286141 0.286135 0.285896 0.285729 0.285966
          0.285944 0.285687 0.286176 0.285963 0.285986 0.286196 0.286016 0.28577 0.285791 0.286038 0.285575 0.285084
          0.285033 0.285588 0.285303 0.284715 0.284552 0.285299 0.284565 0.284103 0.284112 0.284512 0.284035 0.283531
          0.283403 0.283806 0.283658 0.283233 0.28336 0.283693 0.28294 0.282314 0.282391 0.282802 0.282983 0.283392
          0.283693 0.28319 0.282109 0.282854 0.28308 0.2823 0.284023 0.28457 0.284686 0.28421 0.283624 0.284268
          0.284324 0.283757 0.285058 0.285536 0.285591 0.285107 0.284811 0.285298 0.285333 0.284829 0.285918 0.286134
          0.286166 0.28596 0.28572 0.285964 0.285996 0.285757 0.286274 0.286075 0.286186 0.286342 0.286121 0.28589
          0.286022 0.286206 0.285697 0.285177 0.285462 0.285869 0.285441 0.284868 0.285216 0.285642 0.284505 0.28425
          0.284509 0.284935 0.284065 0.283669 0.284213 0.284685 0.283848 0.283547 0.283576 0.284156 0.282899 0.282551
          0.283219 0.283705 0.283632 0.28399 0.284246 0.283924 0.282811 0.283385 0.283537 0.28316 0.284389 0.284789
          0.284835 0.28448 0.283942 0.284372 0.284634 0.28416 0.285198 0.28568 0.285804 0.285253 0.284746 0.285396
          0.285549 0.284932 0.286046 0.28625 0.286323 0.286151 0.285816 0.28607 0.286165 0.285948 0.286058 0.285753
          0.28601 0.286226 0.28589 0.285584 0.285856 0.286068 0.285362 0.284961 0.285324 0.2857 0.285144 0.284739
          0.285196 0.285518 0.284528 0.283903 0.284246 0.284816 0.284334 0.283977 0.284557 0.284854 0.284282 0.284668
          0.285097 0.284797 0.283956 0.284167 0.284446 0.284432 0.285001 0.285341 0.285732 0.285428 0.284639 0.285062
          0.285454 0.285047 0.285685 0.286022 0.28622 0.286002 0.285424 0.2858 0.286025 0.285774 0.286042 0.285794
          0.286159 0.286294 0.28591 0.285682 0.286018 0.286152 0.28554 0.285343 0.285964 0.286042 0.285421 0.285252
          0.285784 0.285872 0.285416 0.28563 0.286081 0.285987 0.285221 0.285316 0.285848 0.285777 0.285851 0.286076
          0.286326 0.286196 0.285572 0.285846 0.286134 0.285978 0.286421 0.286377 0.286579 0.286596 0.286277 0.286216
          0.28644 0.28647 0.286386 0.286439 0.286609 0.286587 0.286218 0.28628 0.286478 0.286443 0.285141 0.285063
          0.284719 0.284871 0.285035 0.284962 0.284673 0.284804 0.285025 0.285088 0.284738 0.284615 0.284931 0.284978
          0.284675 0.284608 0.285224 0.285374 0.28514 0.284921 0.285116 0.285253 0.285039 0.284844 0.285563 0.285691
          0.285596 0.285401 0.285456 0.285595 0.285487 0.285288 0.284941 0.284684 0.284271 0.284677 0.284857 0.284637
          0.284301 0.284635 0.284432 0.284199 0.283597 0.283894 0.28438 0.28419 0.28366 0.283941 0.283871 0.284188
          0.28351 0.283281 0.28405 0.284147 0.283411 0.283381 0.284457 0.284754 0.284173 0.28387 0.284379 0.284683
          0.284266 0.283755 0.28512 0.28544 0.285269 0.284785 0.285018 0.285314 0.285158 0.284762 0.285711 0.285849
          0.285804 0.28562 0.285602 0.285753 0.285696 0.285504 0.285238 0.284888 0.284684 0.28514 0.285133 0.284831
          0.284656 0.285042 0.28439 0.283784 0.283455 0.284102 0.284337 0.283847 0.283429 0.284063 0.283279 0.282838
          0.281913 0.282708 0.283355 0.282935 0.282159 0.282676 0.282484 0.282647 0.282194 0.280882 0.282441 0.282849
          0.28248 0.281654 0.283502 0.284117 0.284048 0.283314 0.283535 0.284107 0.283967 0.283299 0.284608 0.285153
          0.285107 0.284616 0.284603 0.285042 0.284977 0.284514 0.28554 0.285764 0.285732 0.285511 0.285427 0.28564
          0.285618 0.28541 0.285075 0.284547 0.284501 0.28508 0.284973 0.284528 0.284506 0.28498 0.283744 0.282919
          0.282457 0.283564 0.283817 0.283012 0.282742 0.283705 0.282126 0.281257 0.280969 0.281439 0.281956 0.28123
          0.279639 0.281611 0.280406 0.282208 0.282446 0.28133 0.280753 0.282033 0.281784 0.280688 0.283266 0.284011
          0.28399 0.283316 0.283078 0.283855 0.283766 0.282844 0.284602 0.285066 0.285092 0.28461 0.284458 0.284923
          0.284947 0.284458 0.285212 0.284716 0.285015 0.285378 0.285106 0.284668 0.284925 0.285253 0.28399 0.283137
          0.283927 0.284492 0.28392 0.282914 0.283766 0.284362 0.282234 0.281902 0.282944 0.283363 0.281889 0.281419
          0.282679 0.28316 0.282155 0.282901 0.283298 0.282598 0.281597 0.282526 0.283063 0.282059 0.283551 0.283872
          0.284403 0.283929 0.283305 0.283836 0.284304 0.283766 0.284649 0.285212 0.285378 0.284854 0.284561 0.28508
          0.285253 0.284816 0.285643 0.285866 0.285957 0.285757 0.285545 0.285759 0.28584 0.285649 0.284934 0.284546
          0.285016 0.285267 0.284827 0.28446 0.28491 0.285137 0.284158 0.283851 0.284536 0.284756 0.284057 0.283764
          0.284457 0.284641 0.283682 0.283713 0.284295 0.284406 0.283525 0.283726 0.28444 0.284356 0.284354 0.284842
          0.285224 0.284703 0.284257 0.284719 0.285107 0.28475 0.285249 0.285603 0.285806 0.285565 0.285169 0.285492
          0.285682 0.285457 0.285291 0.285146 0.285585 0.285651 0.285212 0.285084 0.285472 0.285535 0.285093 0.285137
          0.285622 0.285569 0.285041 0.285102 0.285506 0.285457 0.285358 0.285631 0.285913 0.285764 0.285302 0.285532
          0.285793 0.285655 0.284062 0.284142 0.283693 0.283617 0.284053 0.284125 0.283751 0.283677 0.28435 0.284605