<?xml version="1.0"?>
<VTKFile type="UnstructuredGrid" version="0.1" byte_order="LittleEndian">
  <UnstructuredGrid>
    <Piece NumberOfCells="1928" NumberOfPoints="5784">
      <PointData Scalars="S_aq">
        <DataArray type="Float32" Name="S_aq" NumberOfComponents="1" format="ascii">
          0.5 0.699514 0.859394 0.5 0.5 0.699514 0.859394 0.699514 0.949162 0.998974 0.859394 0.999132
          0.859394 0.949162 0.999132 0.949162 0.999978 0.999132 1 0.999132 0.999978 0.5 0.719894 0.699514
          0.949162 0.699514 0.719894 0.5 0.5 0.719894 0.800605 0.972746 0.719894 0.949162 0.719894 0.972746
          0.949162 0.972746 0.999978 0.999996 0.999978 0.972746 1 0.998974 1 0.998974 0.999132 1
          1 1 1 1 1 0.999132 1 1 1 1 1 1
          1 1 1 1 1 1 1 1 1 1 1 1
          1 1 1 1 1 1 1 1 1 1 0.999978 1
          1 1 1 0.999996 1 0.999978 1 1 1 1 1 1
          1 1 1 1 1 1 1 1 1 0.5 0.800605 0.719894
          0.5 0.714997 0.800605 0.5 0.5 0.714997 0.800605 0.714997 0.969298 0.800605 0.995997 0.972746
          0.999996 0.972746 0.995997 0.999996 0.995997 1 0.800605 0.969298 0.995997 0.995997 0.969298 0.999945
          0.995997 0.999945 1 0.5 0.677475 0.714997 0.5 0.5 0.677475 0.934061 0.714997 0.677475
          0.934061 0.969298 0.714997 0.5 0.752263 0.677475 0.934061 0.677475 0.752263 0.934061 0.999945 0.969298
          0.934061 0.990649 0.999945 0.934061 0.752263 0.990649 1 0.999945 0.990649 0.999996 1 1
          1 1 1 1 1 1 0.995997 1 1 1 1 1
          1 1 1 1 1 1 1 1 1 1 1 0.999945
          1 1 1 1 1 1 1 1 1 1 1 1
          1 1 1 1 1 1 1 1 1 1 1 1
          1 1 1 1 1 1 1 1 1 1 1 1
          1 1 1 1 1 1 1 1 1 1 1 1
          1 1 1 1 1 1 1 1 1 1 1 1
          1 1 1 1 1 1 1 1 1 1 1 1
          1 1 1 1 1 1 1 1 1 1 1 1
          1 1 1 1 1 1 1 1 1 1 1 1
          1 1 1 1 1 1 1 1 1 1 1 1
          1 1 1 1 1 1 1 1 1 1 1 1
          1 1 1 1 1 1 1 1 1 1 1 1
          1 1 1 1 1 1 1 1 1 1 1 1
          1 1 1 1 1 1 1 1 1 1 1 1
          1 1 1 1 1 1 1 1 1 1 1 1
          1 1 1 1 1 1 1 1 1 1 1 1
          1 1 1 1 1 1 1 1 1 1 1 1
          1 1 1 1 1 1 1 1 1 1 1 1
          1 1 1 1 1 1 1 1 1 1 1 1
          1 1 1 1 1 1 1 1 1 1 1 1
          1 1 1 1 1 1 1 1 1 1 1 1
          1 1 1 1 1 1 1 1 1 1 1 1
          1 1 1 1 1 1 1 1 1 1 1 1
          1 1 1 1 1 1 1 1 1 1 1 1
          1 1 1 1 1 1 1 1 1 1 1 1
          1 1 1 1 1 1 1 1 1 1 1 1
          1 1 1 1 1 1 1 1 1 1 1 1
          1 1 1 1 1 1 1 1 1 1 1 1
          1 1 1 1 1 1 1 1 1 1 1 1
          1 1 1 1 1 1 1 1 1 1 1 1
          1 1 1 1 1 1 1 1 1 1 1 1
          1 1 1 1 1 1 1 1 1 1 1 1
          1 1 1 1 1 1 1 1 1 1 1 1
          1 1 1 1 1 1 1 1 1 1 1 1
          1 1 1 1 1 1 1 1 1 1 1 1
          1 1 1 1 1 1 1 1 1 1 1 1
          1 1 1 1 1 1 1 1 1 1 1 1
          1 1 1 1 1 1 1 1 1 1 1 1
          1 1 1 1 1 1 1 1 1 1 1 1
          1 1 1 1 1 1 1 1 1 1 1 1
          1 1 1 1 1 1 1 1 1 1 1 1
          1 1 1 1 1 1 1 1 1 1 1 1
          1 1 1 1 1 1 1 1 1 1 1 1
          1 1 1 1 1 1 1 1 1 1 1 1
          1 1 1 1 1 1 1 1 1 1 1 1
          1 1 1 1 1 1 1 1 1 1 1 1
          1 1 1 1 1 1 1 1 1 1 1 1
          1 1 1 1 1 1 1 1 1 1 1 1
          1 1 1 1 1 1 1 1 1 1 1 1
          1 1 1 1 1 1 1 1 1 1 1 1
          1 1 1 1 1 1 1 1 1 1 1 1
          1 1 1 1 1 1 1 1 1 1 1 1
          1 1 1 1 1 1 1 1 1 1 1 1
          1 1 1 1 1 1 1 1 1 1 1 1
          1 1 1 1 1 1 1 1 1 1 1 1
          1 1 1 1 1 1 1 1 1 1 1 1
          1 1 1 1 1 1 1 1 1 1 1 1
          1 1 1 1 1 1 1 1 1 1 1 1
          1 1 1 1 1 1 1 1 1 1 1 1
          1 1 1 1 1 1 1 1 1 1 1 1
          1 1 1 1 1 1 1 1 1 1 1 1
          1 1 1 1 1 1 1 1 1 1 1 1
          1 1 1 0.5 0.5 0.752263 0.5 0.701814 0.752263 0.969641 0.752263 0.701814
          0.5 0.5 0.701814 0.5 0.774184 0.701814 0.969641 0.701814 0.774184 0.969641 0.990649 0.752263
          1 0.990649 0.999997 0.969641 0.999997 0.990649 0.969641 0.774184 0.984364 0.969641 0.984364 0.999998
          0.969641 0.999998 0.999997 0.5 0.666436 0.774184 0.5 0.5 0.666436 0.774184 0.666436 0.894428
          0.774184 0.894428 0.994284 0.5 0.656117 0.666436 0.5 0.5 0.656117 0.840499 0.894428 0.666436
          0.840499 0.997117 0.894428 0.840499 0.666436 0.656117 0.840499 0.871685 0.997117 0.774184 0.994284 0.984364
          0.999998 0.984364 0.994284 0.999998 1 1 0.999998 0.994284 1 0.994284 0.894428 0.997117
          1 0.994284 0.997117 1 0.997117 0.999114 1 1 0.994284 1 1 1
          1 0.999997 1 1 1 0.999997 0.999998 1 0.999997 1 0.999997 1
          1 1 1 1 1 1 1 1 1 1 1 1
          1 1 1 1 1 1 1 1 1 1 1 1
          1 1 1 1 1 1 1 1 1 1 1 1
          1 1 1 1 1 1 1 1 1 1 1 1
          1 1 1 1 1 1 1 1 1 1 1 1
          1 1 1 1 1 1 1 1 1 1 1 1
          1 1 1 1 1 1 0.5 0.66208 0.656117 0.5 0.5 0.66208
          0.840499 0.656117 0.871685 0.66208 0.871685 0.656117 0.93238 0.871685 0.66208 0.5 0.61854 0.66208
          0.66208 0.61854 0.764757 0.5 0.5 0.61854 0.5 0.597721 0.61854 0.743049 0.61854 0.597721
          0.93238 0.66208 0.764757 0.743049 0.764757 0.61854 0.743049 0.977855 0.764757 0.93238 0.764757 0.977855
          0.999114 0.997117 0.871685 0.93238 0.999114 0.871685 0.93238 0.999928 0.999114 0.999114 0.999928 1
          1 0.999114 1 1 1 1 1 1 0.999928 1 1 1
          0.93238 0.977855 0.999928 0.999996 0.999928 0.977855 0.999996 1 0.999928 1 0.999928 1
          1 1 1 1 1 1 1 1 1 0.5 0.5 0.597721
          0.743049 0.597721 0.662189 0.5 0.662189 0.597721 1 0.662189 0.5 0.743049 0.866413 0.974291
          0.743049 0.974291 0.977855 0.743049 0.662189 0.866413 1 0.866413 0.662189 0.974291 0.866413 0.998648
          1 0.998648 0.866413 1 1 0.5 1 0.669011 1 1 1 0.662189
          1 0.800547 1 1 0.5 0.669011 1 0.669011 0.800547 0.711642 0.800547 0.669011
          1 1 0.866413 1 0.800547 0.961939 1 0.961939 1 0.711642 0.961939 0.800547
          1 0.961939 0.999982 0.962163 0.999982 0.961939 0.999996 0.977855 0.974291 0.999996 0.974291 0.998648
          1 0.999996 0.998648 0.999996 1 1 0.999996 1 1 1 1 0.998648
          1 1 0.998648 1 1 1 1 1 1 1 1 1
          1 1 1 1 1 1 1 1 1 1 1 1
          1 1 1 1 0.999982 1 1 0.999982 1 1 1 1
          1 1 1 1 1 1 1 1 0.999982 1 1 1
          1 1 1 1 1 1 1 1 1 1 1 1
          1 1 1 1 1 1 1 1 1 1 1 1
          1 1 1 1 1 1 1 1 1 1 1 1
          1 1 1 1 1 1 1 1 1 1 1 1
          1 1 1 1 1 1 1 1 1 1 1 1
          1 1 1 1 1 1 1 1 1 1 1 1
          1 1 1 1 1 1 1 1 1 1 1 1
          1 1 1 1 1 1 1 1 1 1 1 1
          1 1 1 1 1 1 1 1 1 1 1 1
          1 1 1 1 1 1 1 1 1 1 1 1
          1 1 1 1 1 1 1 1 1 1 1 1
          1 1 1 1 1 1 1 1 1 1 1 1
          1 1 1 1 1 1 1 1 1 1 1 1
          1 1 1 1 1 1 1 1 1 1 1 1
          1 1 1 1 1 1 1 1 1 1 1 1
          1 1 1 1 1 1 1 1 1 1 1 1
          1 1 1 1 1 1 1 1 1 1 1 1
          1 1 1 1 1 1 1 1 1 1 1 1
          1 1 1 1 1 1 1 1 1 1 1 1
          1 1 1 1 1 1 1 1 1 1 1 1
          1 1 1 1 1 1 1 1 1 1 1 1
          1 1 1 1 1 1 1 1 1 1 1 1
          1 1 1 1 1 1 1 1 1 1 1 1
          1 1 1 1 1 1 1 1 1 1 1 1
          1 1 1 1 1 1 1 1 1 1 1 1
          1 1 1 1 1 1 1 1 1 1 1 1
          1 1 1 1 1 1 1 1 1 1 1 1
          1 1 1 1 1 1 1 1 1 1 1 1
          1 1 1 1 1 1 1 1 1 1 1 1
          1 1 1 1 1 1 1 1 1 1 1 1
          1 1 1 1 1 1 1 1 1 1 1 1
          1 1 1 1 1 1 1 1 1 1 1 1
          1 1 1 1 1 1 1 1 1 1 1 1
          1 1 1 1 1 1 1 1 1 1 1 1
          1 1 1 1 1 1 1 1 1 1 1 1
          1 1 1 1 1 1 1 1 1 1 1 1
          1 1 1 1 1 1 1 1 1 1 1 1
          1 1 1 1 1 1 1 1 1 1 1 1
          1 1 1 1 1 1 1 1 1 1 1 1
          1 1 1 1 1 1 1 1 1 1 1 1
          1 1 1 1 1 1 1 1 1 1 1 1
          1 1 1 1 1 1 1 1 1 1 1 1
          1 1 1 1 1 1 1 1 1 1 1 1
          1 1 1 1 1 1 1 1 1 1 1 1
          1 1 1 1 1 1 1 1 1 1 1 1
          1 1 1 1 1 1 1 1 1 1 1 1
          1 1 1 1 1 1 1 1 1 1 1 1
          1 1 1 1 1 1 1 1 1 1 1 1
          1 1 1 1 1 1 1 1 1 1 1 1
          1 1 1 1 1 1 1 1 1 1 1 1
          1 1 1 1 1 1 1 1 1 1 1 1
          1 1 1 1 1 1 1 1 1 1 1 1
          1 1 1 1 1 1 1 1 1 1 1 1
          1 1 1 1 1 1 1 1 1 1 1 1
          1 1 1 1 1 1 1 1 1 1 1 1
          1 1 1 1 1 1 1 1 1 1 1 1
          1 1 1 1 1 1 1 1 1 1 1 1
          1 1 1 1 1 1 1 1 1 1 1 1
          1 1 1 1 1 1 1 1 1 1 1 1
          1 1 1 1 1 1 1 1 1 1 1 1
          1 1 1 1 1 1 1 1 1 1 1 1
          1 1 1 1 1 1 1 1 1 1 1 1
          1 1 1 1 1 1 1 1 1 1 1 1
          1 1 1 1 1 1 1 1 1 1 1 1
          1 1 1 1 1 1 1 1 1 1 1 1
          1 1 1 1 1 1 1 1 1 1 1 1
          1 1 1 1 1 1 1 1 1 1 1 1
          1 1 1 1 1 1 1 1 1 1 1 1
          1 1 1 1 1 1 1 1 1 1 1 1
          1 1 1 1 1 1 1 1 1 1 1 1
          1 1 1 1 1 1 1 1 1 1 1 1
          1 1 1 1 1 1 1 1 1 1 1 1
          1 1 1 1 1 1 1 1 1 1 1 1
          1 1 1 1 1 1 1 1 1 1 1 1
          1 1 1 1 1 1 1 1 1 1 1 1
          1 1 1 1 1 1 1 1 1 1 1 1
          1 1 1 1 1 1 1 1 1 1 1 1
          1 1 1 1 1 1 1 1 1 1 1 1
          1 1 1 1 1 1 1 1 1 1 1 1
          1 1 1 1 1 1 1 1 1 1 1 1
          1 1 1 1 1 1 1 1 1 1 1 1
          1 1 1 1 1 1 1 1 1 1 1 1
          1 1 1 1 1 1 1 1 1 1 1 1
          1 1 1 1 1 1 1 1 1 1 1 1
          1 1 1 1 1 1 1 1 1 1 1 1
          1 1 1 1 1 1 1 1 1 1 1 1
          1 1 1 1 1 1 1 1 1 1 1 1
          1 1 1 1 1 1 1 1 1 1 1 1
          1 1 1 1 1 1 1 1 1 1 1 1
          1 1 1 1 1 1 1 1 1 1 1 1
          1 1 1 1 1 1 1 1 1 1 1 1
          1 1 1 1 1 1 1 1 1 1 1 1
          1 1 1 1 1 1 1 1 1 1 1 1
          1 1 1 1 1 1 1 1 1 1 1 1
          1 1 1 1 1 1 1 1 1 1 1 1
          1 1 1 1 1 1 1 1 1 1 1 1
          1 1 1 1 1 1 1 1 1 1 1 1
          1 1 1 1 1 1 1 1 1 1 1 1
          1 1 1 1 1 1 1 1 1 1 1 1
          1 1 1 1 1 1 1 1 1 1 1 1
          1 1 1 1 1 1 1 1 1 1 1 1
          1 1 1 1 1 1 1 1 1 1 1 1
          1 1 1 1 1 1 1 1 1 1 1 1
          1 1 1 1 1 1 1 1 1 1 1 1
          1 1 1 1 1 1 1 1 1 1 1 1
          1 1 1 1 1 1 1 1 1 1 1 1
          1 1 1 1 1 1 1 1 1 1 1 1
          1 1 1 1 1 1 1 1 1 1 1 1
          1 1 1 1 1 1 1 1 1 1 1 1
          1 1 1 1 1 1 1 1 1 1 1 1
          1 1 1 1 1 1 1 1 1 1 1 1
          1 1 1 1 1 1 1 1 1 1 1 1
          1 1 1 1 1 1 1 1 1 1 1 1
          1 1 1 1 1 1 1 1 1 1 1 1
          1 1 1 1 1 1 1 1 1 1 1 1
          1 1 1 1 1 1 1 1 1 1 1 1
          1 1 1 1 1 1 1 1 1 1 1 1
          1 1 1 1 1 1 1 1 1 1 1 1
          1 1 1 1 1 1 1 1 1 1 1 1
          1 1 1 1 1 1 1 1 1 1 1 1
          1 1 1 1 1 1 1 1 1 1 1 1
          1 1 1 1 1 1 1 1 1 1 1 1
          1 1 1 1 1 1 1 1 1 1 1 1
          1 1 1 1 1 1 1 1 1 1 1 1
          1 1 1 1 1 1 1 1 1 1 1 1
          1 1 1 1 1 1 1 1 1 1 1 1
          1 1 1 1 1 1 1 1 1 1 1 1
          1 1 1 1 1 1 1 1 1 1 1 1
          1 1 1 1 1 1 1 1 1 1 1 1
          1 1 1 1 1 1 1 1 1 1 1 1
          1 1 1 1 1 1 1 1 1 1 1 1
          1 1 1 1 1 1 1 1 1 1 1 1
          1 1 1 1 1 1 1 1 1 1 1 1
          1 1 1 1 1 1 1 1 1 1 1 1
          1 1 1 1 1 1 1 1 1 1 1 1
          1 1 1 1 1 1 1 1 1 1 1 1
          1 1 1 1 1 1 1 1 1 1 1 1
          1 1 1 1 1 1 1 1 1 1 1 1
          1 1 1 1 1 1 1 1 1 1 1 1
          1 1 1 1 1 1 1 1 1 1 1 1
          1 1 1 1 1 1 1 1 1 1 1 1
          1 1 1 1 1 1 1 1 1 1 1 1
          1 1 1 1 1 1 1 1 1 1 1 1
          1 1 1 1 1 1 1 1 1 1 1 1
          1 1 1 1 1 1 1 1 1 1 1 1
          1 1 1 1 1 1 1 1 1 1 1 1
          1 1 1 1 1 1 1 1 1 1 1 1
          1 1 1 1 1 1 1 1 1 1 1 1
          1 1 1 1 1 1 1 1 1 1 1 1
          1 1 0.999987 1 0.999987 0.998897 1 1 1 1 1 1
          1 1 1 1 1 1 1 1 1 1 1 1
          1 1 1 1 1 1 1 1 1 1 1 1
          1 1 0.984705 1 1 1 1 1 0.998897 1 0.984705 1
          1 0.978877 0.984705 1 0.998897 0.978877 0.811554 0.978877 0.998897 1 0.984705 0.999998
          0.679021 0.984705 0.978877 0.679021 0.970016 0.984705 0.999998 0.984705 0.970016 1 0.999998 1
          1 1 1 1 1 0.999998 1 1 1 1 1 1
          1 1 1 1 1 1 1 1 1 1 1 1
          1 1 1 1 1 1 1 1 1 1 1 1
          1 1 1 1 1 1 1 1 1 1 1 1
          1 1 1 1 1 1 1 1 1 1 1 1
          1 1 1 1 1 1 1 1 1 1 1 1
          1 1 1 1 1 1 1 1 1 1 1 1
          1 1 1 1 1 1 1 1 1 1 1 1
          1 1 1 1 1 1 1 1 1 1 1 1
          1 1 1 1 1 1 0.98634 0.999987 1 1 0.98634 1
          0.98634 0.915533 0.999987 0.915533 0.998897 0.999987 1 1 0.98634 0.98634 1 0.999967
          0.98634 0.999967 0.915533 1 1 1 1 1 1 1 1 1
          1 1 1 1 1 1 1 1 1 1 1 1
          1 1 1 1 0.999967 1 1 0.998765 0.999967 1 1 1
          1 1 1 1 1 1 1 1 1 1 1 1
          1 1 1 1 1 1 1 1 1 1 1 1
          1 1 1 1 1 1 1 1 1 1 1 1
          1 1 1 1 1 1 1 1 1 1 1 1
          1 1 1 1 1 1 1 1 1 1 1 1
          1 1 1 1 1 1 1 1 1 1 1 1
          1 1 1 1 1 1 1 1 1 1 1 1
          1 1 1 1 1 1 1 1 1 1 1 1
          1 1 1 1 1 1 1 1 1 1 1 1
          1 1 1 1 1 1 1 1 1 1 1 1
          1 1 1 1 1 1 1 1 1 1 1 1
          1 1 1 1 1 1 1 1 1 1 1 1
          0.915533 0.811554 0.998897 0.915533 0.998765 0.811554 0.679021 0.978877 0.811554 0.679021 0.811554 0.949073
          0.915533 0.999967 0.998765 0.811554 0.998765 0.949073 0.998765 0.999985 0.949073 0.970016 0.679021 0.949073
          0.999985 0.970016 0.949073 0.999999 0.970016 0.999985 1 1 0.998765 0.998765 1 0.999985
          1 1 1 1 1 1 1 0.999999 0.999985 1 0.999985 1
          0.999999 0.999998 0.970016 1 0.999998 0.999999 1 1 0.999999 1 1 0.999999
          1 1 1 1 1 1 1 1 1 1 1 1
          1 1 1 1 1 1 1 1 1 1 1 1
          1 0.999999 1 1 1 1 0.5 0.583309 0.669011 0.5 0.5 0.583309
          0.711642 0.669011 0.583309 0.711642 0.583309 0.621561 0.711642 0.621561 0.762313 0.5 0.621561 0.583309
          0.5 0.593318 0.621561 0.701447 0.762313 0.621561 0.962163 0.961939 0.711642 0.962163 0.711642 0.762313
          0.962163 0.762313 0.95746 0.701447 0.95746 0.762313 0.962163 0.95746 0.999982 0.5 0.5 0.593318
          0.701447 0.621561 0.593318 0.701447 0.593318 0.647213 0.5 0.647213 0.593318 0.5 0.620749 0.647213
          0.701447 0.866673 0.95746 0.999175 0.95746 0.866673 0.701447 0.647213 0.866673 0.768191 0.866673 0.647213
          0.999175 0.866673 0.986627 0.768191 0.986627 0.866673 0.962163 0.999982 0.999982 1 0.999982 0.999982
          0.999175 0.999982 0.95746 1 0.999982 1 1 0.999982 1 1 1 1
          1 1 1 1 1 1 1 1 1 0.999175 1 0.999982
          0.999175 0.986627 0.999945 0.999175 0.999945 1 1 1 1 1 1 1
          1 1 1 1 1 0.999945 1 1 1 0.5 0.5 0.620749
          0.768191 0.647213 0.620749 0.768191 0.620749 0.670866 0.5 0.670866 0.620749 0.768191 0.926144 0.986627
          0.768191 0.670866 0.926144 0.5 0.5 0.670866 0.5 0.742742 0.670866 0.742742 0.926144 0.670866
          0.742742 0.980227 0.926144 0.999945 0.986627 0.926144 0.999905 0.999945 0.926144 1 0.999945 1
          1 1 1 0.999905 1 0.999945 0.999905 1 1 1 1 1
          0.999905 0.926144 0.980227 0.999905 0.980227 0.999999 0.999905 0.999999 1 1 1 0.999999
          1 1 1 1 1 1 1 1 1 1 1 1
          1 1 1 1 1 1 1 1 1 1 1 1
          1 1 1 1 1 1 1 1 1 1 1 1
          1 1 1 1 1 1 1 1 1 1 1 1
          1 1 1 1 1 1 1 1 1 1 1 1
          1 1 1 1 1 1 1 1 1 1 1 1
          1 1 1 1 1 1 1 1 1 1 1 1
          1 1 1 1 1 1 1 1 1 1 1 1
          1 1 1 1 1 1 1 1 1 1 1 1
          1 1 1 1 1 1 1 1 1 1 1 1
          1 1 1 1 1 1 1 1 1 1 1 1
          1 1 1 1 1 1 1 1 1 1 1 1
          1 1 1 1 1 1 1 1 1 1 1 1
          1 1 1 1 1 1 1 1 1 1 1 1
          1 1 1 1 1 1 1 1 1 1 1 1
          1 1 1 1 1 1 1 1 1 1 1 1
          1 1 1 1 1 1 1 1 1 1 1 1
          1 1 1 1 1 1 1 1 1 1 1 1
          1 1 1 1 1 1 1 1 1 1 1 1
          1 1 1 1 1 1 1 1 1 1 1 1
          1 1 1 1 1 1 1 1 1 1 1 1
          1 1 1 0.5 0.675505 0.742742 0.742742 0.937253 0.980227 0.742742 0.675505 0.937253
          0.5 0.5 0.675505 0.5 0.788217 0.675505 0.788217 0.937253 0.675505 0.999934 0.999999 0.980227
          0.999934 0.980227 0.937253 1 0.999999 1 0.999934 1 0.999999 0.999934 0.937253 0.994388
          0.937253 0.788217 0.994388 0.999934 1 1 0.999934 0.994388 1 0.5 0.68102 0.788217
          0.5 0.68102 0.5 0.885191 0.788217 0.68102 0.5 0.885191 0.68102 0.885191 0.994388 0.788217
          0.994388 1 1 0.885191 0.999532 0.994388 0.999532 1 0.994388 1 1 1
          1 1 1 1 1 1 1 1 1 1 1 1
          1 1 1 1 1 1 1 1 1 1 1 1
          1 1 1 1 1 1 1 1 1 1 1 1
          1 1 1 1 1 1 1 1 1 1 1 1
          1 1 1 1 1 1 1 1 1 1 1 1
          1 1 1 1 1 1 1 1 1 1 1 1
          1 1 1 1 1 1 1 1 1 1 1 1
          1 1 1 1 1 1 1 1 1 1 1 1
          1 1 1 1 1 1 1 1 1 1 1 1
          1 1 1 1 1 1 0.999532 1 1 0.999532 1 1
          1 1 1 1 1 1 1 1 1 1 1 1
          1 1 1 1 1 1 1 1 1 1 1 1
          1 1 1 1 1 1 1 1 1 1 1 1
          1 1 1 1 1 1 1 1 1 1 1 1
          1 1 1 1 1 1 1 1 1 1 1 1
          1 1 1 1 1 1 1 1 1 1 1 1
          1 1 1 1 1 1 1 1 1 1 1 1
          1 1 1 1 1 1 1 1 1 1 1 1
          1 1 1 1 1 1 1 1 1 1 1 1
          1 1 1 1 1 1 1 1 1 1 1 1
          1 1 1 1 1 1 1 1 1 1 1 1
          1 1 1 1 1 1 1 1 1 1 1 1
          1 1 1 1 1 1 1 1 1 1 1 1
          1 1 1 1 1 1 1 1 1 1 1 1
          1 1 1 1 1 1 1 1 1 1 1 1
          1 1 1 1 1 1 1 1 1 1 1 1
          1 1 1 1 1 1 1 1 1 1 1 1
          1 1 1 1 1 1 1 1 1 1 1 1
          1 1 1 1 1 1 1 1 1 1 1 1
          1 1 1 1 1 1 1 1 1 1 1 1
          1 1 1 1 1 1 1 1 1 1 1 1
          1 1 1 1 1 1 1 1 1 1 1 1
          1 1 1 1 1 1 1 1 1 1 1 1
          1 1 1 1 1 1 1 1 1 1 1 1
          1 1 1 1 1 1 1 1 1 1 1 1
          1 1 1 1 1 1 1 1 1 1 1 1
          1 1 1 1 1 1 1 1 1 1 1 1
          1 1 1 1 1 1 1 1 1 1 1 1
          1 1 1 1 1 1 1 1 1 1 1 1
          1 1 1 1 1 1 1 1 1 1 1 1
          1 1 1 1 1 1 1 1 1 1 1 1
          1 1 1 1 1 1 1 1 1 1 1 1
          1 1 1 1 1 1 1 1 1 1 1 1
          1 1 1 1 1 1 1 1 1 1 1 1
          1 1 1 1 1 1 1 1 1 1 1 1
          1 1 1 1 1 1 1 1 1 1 1 1
          1 1 1 1 1 1 1 1 1 1 1 1
          1 1 1 1 1 1 1 1 1 1 1 1
          1 1 1 1 1 1 1 1 1 1 1 1
          1 1 1 1 1 1 1 1 1 1 1 1
          1 1 1 1 1 1 1 1 1 1 1 1
          1 1 1 1 1 1 1 1 1 1 1 1
          1 1 1 1 1 1 1 1 1 1 1 1
          1 1 1 1 1 1 1 1 1 1 1 1
          1 1 1 1 1 1 1 1 1 1 1 1
          1 1 1 1 1 1 1 1 1 1 1 1
          1 1 1 1 1 1 1 1 1 1 1 1
          1 1 1 1 1 1 1 1 1 1 1 1
          1 1 1 1 1 1 1 1 1 1 1 1
          1 1 1 1 1 1 1 1 1 1 1 1
          1 1 1 1 1 1 1 1 1 1 1 1
          1 1 1 1 1 1 1 1 1 1 1 1
          1 1 1 1 1 1 1 1 1 1 1 1
          1 1 1 1 1 1 1 1 1 1 1 1
          1 1 1 1 1 1 1 1 1 1 1 1
          1 1 1 1 1 1 1 1 1 1 1 1
          1 1 1 1 1 1 1 1 1 1 1 1
          1 1 1 1 1 1 1 1 1 1 1 1
          1 1 1 1 1 1 1 1 1 1 1 1
          1 1 1 1 1 1 1 1 1 1 1 1
          1 1 1 1 1 1 1 1 1 1 1 1
          1 1 1 1 1 1 1 1 1 1 1 1
          1 1 1 1 1 1 1 1 1 1 1 1
          1 1 1 1 1 1 1 1 1 1 1 1
          1 1 1 1 1 1 1 1 1 1 1 1
          1 1 1 1 1 1 1 1 1 1 1 1
          1 1 1 1 1 1 1 1 1 1 1 1
          1 1 1 1 1 1 1 1 1 1 1 1
          1 1 1 1 1 1 1 1 1 1 1 1
          1 1 1 1 1 1 1 1 1 1 1 1
          1 1 1 1 1 1 1 1 1 1 1 1
          1 1 1 1 1 1 1 1 1 1 1 1
          1 1 1 1 1 1 1 1 1 1 1 1
          1 1 1 1 1 1 1 1 1 1 1 1
          1 1 1 1 1 1 1 1 1 1 1 1
          1 1 1 1 1 1 1 1 1 1 1 1
          1 1 1 1 1 1 1 1 1 1 1 1
          1 1 1 1 1 1 1 1 1 1 1 1
          1 1 1 1 1 1 1 1 1 1 1 1
          1 1 1 1 1 1 1 1 1 1 1 1
          1 1 1 1 1 1 1 1 1 1 1 1
          1 1 1 1 1 1 1 1 1 1 1 1
          1 1 1 1 1 1 1 1 1 1 1 1
          1 1 1 1 1 1 1 1 1 1 1 1
          1 1 1 1 1 1 1 1 1 1 1 1
          1 1 1 1 1 1 1 1 1 1 1 1
          1 1 1 1 1 1 1 1 1 1 1 1
          1 1 1 1 1 1 1 1 1 1 1 1
          1 1 1 1 1 1 1 1 1 1 1 1
          1 1 1 1 1 1 1 1 1 1 1 1
          1 1 1 1 1 1 1 1 1 1 1 1
          1 1 1 1 1 1 1 1 1 1 1 1
          1 1 1 1 1 1 1 1 1 1 1 1
          1 1 1 1 1 1 1 1 1 1 1 1
          1 1 1 1 1 1 1 1 1 1 1 1
          1 1 1 1 1 1 1 1 1 1 1 1
          1 1 1 1 1 1 1 1 1 1 1 1
          1 1 1 1 1 1 1 1 1 1 1 1
          1 1 1 1 1 1 1 1 1 1 1 1
          1 1 1 1 1 1 1 1 1 1 1 1
          1 1 1 1 1 1 1 1 1 1 1 1
          1 1 1 1 1 1 1 1 1 1 1 1
          1 1 1 1 1 1 0.975852 1 1 1 1 1
          1 1 1 1 1 1 1 1 1 1 1 1
          1 1 1 1 1 1 0.975852 1 1 0.975852 1 1
          1 1 1 1 1 1 0.975852 1 0.999999 1 1 1
          1 0.999999 1 0.999999 1 1 1 1 0.999999 1 0.999999 1
          0.975852 0.999999 1 1 1 1 1 1 1 1 0.999999 1
          1 1 1 1 1 1 0.975852 0.999996 0.999999 0.975852 0.999999 0.999996
          1 0.999999 0.999996 1 0.999996 0.999999 1 1 0.999999 1 1 1
          1 1 1 1 1 1 1 1 1 1 1 1
          1 1 1 1 1 1 1 1 1 1 1 1
          1 1 1 1 1 1 1 1 1 1 1 1
          1 1 1 1 1 1 1 1 1 1 1 1
          1 1 1 1 1 1 1 1 0.999999 1 0.999999 1
          1 1 1 1 1 1 1 1 1 1 1 1
          1 1 1 1 1 1 1 1 1 1 1 1
          1 1 1 1 1 1 1 1 1 1 1 1
          1 1 1 1 1 1 1 1 1 1 1 1
          1 1 1 1 1 1 1 1 1 1 1 1
          1 1 1 1 1 1 1 1 1 1 1 1
          1 1 1 1 1 1 1 1 1 1 1 1
          1 1 1 1 1 1 1 1 1 1 1 1
          1 1 1 1 1 1 1 1 1 1 1 1
          1 1 1 1 1 1 1 1 1 1 1 1
          1 1 1 1 1 1 1 1 1 1 1 1
          1 1 1 1 1 1 1 1 1 1 1 1
          1 1 1 1 1 1 1 1 1 1 1 1
          1 1 1 1 1 1 1 1 1 1 1 1
          1 1 1 1 1 1 1 1 1 1 1 1
        </DataArray>
        <DataArray type="Float32" Name="p_aq" NumberOfComponents="1" format="ascii">
          200000 195784 186318 200000 200000 195784 186318 195784 181809 173526 186318 175885
          186318 181809 175885 181809 174899 175885 170334 175885 174899 200000 194533 195784
          181809 195784 194533 200000 200000 194533 188288 179955 194533 181809 194533 179955
          181809 179955 174899 174303 174899 179955 167381 173526 170304 173526 175885 170304
          167381 170304 164886 170334 170304 175885 170334 164886 170304 164562 164886 170334
          161938 167381 164886 160201 161938 164886 157262 161938 160201 157262 160201 156707
          160240 160201 164886 164562 160240 164886 160240 156707 160201 170334 174899 169426
          164562 170334 169426 174303 169426 174899 155548 160240 157571 164562 157571 160240
          164562 162317 157571 164562 169426 162317 155117 157571 162317 200000 188288 194533
          200000 196093 188288 200000 200000 196093 188288 196093 181246 188288 175903 179955
          174303 179955 175903 174303 175903 171605 188288 181246 175903 175903 181246 176641
          175903 176641 171908 200000 197368 196093 200000 200000 197368 183225 196093 197368
          183225 181246 196093 200000 194839 197368 183225 197368 194839 183225 176641 181246
          183225 178248 176641 183225 194839 178248 172692 176641 178248 174303 171605 169426
          167107 162317 169426 167107 169426 171605 175903 171908 171605 167107 171605 171908
          167107 161716 162317 155117 162317 161716 155117 161716 155647 172692 171908 176641
          172692 167581 171908 167107 171908 167581 172692 169339 167581 164692 167581 169339
          167107 167581 161716 164692 161716 167581 155647 161716 159752 164692 159752 161716
          153259 157262 156707 153259 156707 153073 149793 153259 150848 153259 153073 150848
          149796 150848 153073 155548 153073 156707 155548 156707 160240 149796 153073 151868
          155548 151868 153073 149793 150848 147643 146748 149793 147643 146748 147643 145415
          149796 147643 150848 143974 146748 145415 141231 143974 143361 143974 145415 143361
          144996 143361 145415 144996 145415 147643 144996 142529 143361 149796 147154 147643
          144996 147643 147154 148862 147154 149796 148862 149796 151868 148862 145611 147154
          144996 147154 145611 144996 142860 142529 144996 145611 142860 143751 142860 145611
          155548 157571 152643 155548 152643 151868 148862 151868 152643 152643 157571 152622
          155117 152622 157571 148652 152643 152622 148862 145987 145611 148862 152643 148652
          148862 148652 145987 143751 145611 145987 143751 145987 143568 144896 143568 145987
          144896 145987 148652 144896 141717 143568 144896 148652 145122 144896 145122 142906
          141019 139735 141231 141231 143361 141019 141019 139017 139735 141019 143361 142529
          141019 142529 140703 141019 140703 139017 140703 139166 139017 137726 139735 139017
          137726 139017 137046 135269 137726 137046 137614 137046 139017 137614 139017 139166
          137614 135591 137046 140703 142529 142860 140703 142860 140330 140703 140330 139166
          140330 142860 141774 143751 141774 142860 140330 141774 139925 137614 139166 138167
          140330 138167 139166 136022 135591 137614 136022 137614 138167 140330 139925 138167
          139925 137901 138167 136022 138167 136438 137901 136438 138167 135269 137046 135591
          135269 135591 133424 132343 135269 133424 135591 133786 133424 131796 133424 133786
          132343 133424 130635 128882 132343 130635 131796 130635 133424 128882 130635 128831
          131796 128831 130635 136022 133786 135591 136022 134090 133786 136022 136438 134090
          131306 133786 134090 131796 133786 131306 131796 131306 128831 131796 131306 134090
          128831 131306 128883 143751 141493 141774 143751 143568 141493 139925 141774 141493
          139925 141493 139501 141717 141493 143568 139501 141493 141717 139501 141717 139068
          139925 139501 137901 135990 136438 137901 135990 137901 137767 139501 137767 137901
          139501 139068 137767 135990 137767 136813 144896 142906 141717 141717 142906 140597
          139068 141717 140597 142175 140597 142906 142175 139990 140597 139068 140597 138631
          139068 136813 137767 139068 138631 136813 138631 140597 139990 138631 139990 138196
          138631 136950 136813 138631 138196 136950 135990 134090 136438 135990 134275 134090
          131796 134090 134275 135990 136813 134275 131796 128883 131306 131796 129534 128883
          131796 134275 131860 131796 131860 129534 136813 135487 134275 136813 136950 135487
          133842 131860 134275 133842 134275 135487 135289 135487 136950 133842 135487 135289
          133842 135289 133481 131860 133842 130908 130908 129534 131860 130908 133842 133481
          149704 148652 152622 155117 149704 152622 155117 155647 149704 149704 145122 148652
          145059 145122 149704 145059 142478 145122 145059 149704 147316 149704 155647 151658
          155647 155558 151658 155647 159752 155558 157870 155558 159752 152845 151658 155558
          149704 151658 147316 145059 147316 143298 144881 143298 147316 149760 147316 151658
          149760 151658 152845 149760 149316 147068 149760 147068 147316 144881 147316 147068
          144881 147068 144399 142175 142906 145122 142175 140122 139990 142175 145122 142478
          142175 142478 140122 139937 140122 142478 138196 139990 140122 138196 140122 137764
          138196 136812 136950 138196 137764 136812 137764 140122 139937 137764 136476 136812
          137764 137337 136476 141426 139937 142478 141426 142478 145059 137764 139937 137337
          137337 139937 138852 141426 138852 139937 138635 138852 141426 137337 138852 136916
          136916 138852 138635 135289 136950 136812 134838 135289 136812 134838 133481 135289
          134838 136812 136476 134838 136476 135551 130908 133481 131852 134838 131852 133481
          130908 131852 129132 134838 133413 131852 131537 131852 133413 131537 129132 131852
          137337 135551 136476 137337 136916 135551 134838 135551 133413 133787 133413 135551
          136916 135046 135551 133787 135551 135046 131503 131537 133413 133787 131503 133413
          131537 131503 129132 133787 132481 131503 133787 135046 132481 129423 131503 132481
          141426 145059 143298 141426 143298 140632 140632 143298 142511 138635 141426 140632
          136502 138635 138295 139725 138295 140632 138635 140632 138295 144881 142511 143298
          144881 144399 142511 142217 142511 144399 142217 140402 142511 139725 140632 142511
          139725 137510 138295 139725 138333 137510 139725 142511 140402 139725 140402 138333
          136502 136916 138635 136502 135046 136916 136502 134538 135046 136502 138295 136109
          136109 138295 137510 136109 134538 136502 136109 134351 134538 134538 132481 135046
          132129 132481 134538 129423 132481 130072 132129 130072 132481 132129 134538 134351
          136109 137510 135724 135724 137510 136690 136109 135724 134351 138333 136690 137510
          138333 136830 136690 135724 136690 135350 135724 135350 133257 132129 134351 133257
          135724 133257 134351 132129 133257 130952 135350 133537 133257 131523 130952 133257
          131523 133257 133537 200000 200000 194839 200000 197084 194839 180772 194839 197084
          200000 200000 197084 200000 191327 197084 180772 197084 191327 180772 178248 194839
          172692 178248 174356 180772 174356 178248 180772 191327 181527 180772 181527 177374
          180772 177374 174356 200000 196422 191327 200000 200000 196422 191327 196422 188402
          191327 188402 181909 200000 197457 196422 200000 200000 197457 188835 188402 196422
          188835 182507 188402 188835 196422 197457 188835 188089 182507 191327 181909 181527
          177374 181527 181909 177374 176371 173610 177374 181909 176371 181909 188402 182507
          179294 181909 182507 179294 182507 182178 179294 176371 181909 179294 176161 176371
          172692 174356 169339 170214 169339 174356 177374 173610 174356 170214 174356 173610
          170214 165927 169339 164692 169339 165927 164692 165927 162323 164692 162323 159752
          157870 159752 162323 170214 166425 165927 162559 165927 166425 162559 162323 165927
          162323 162559 157870 172889 173610 176371 172889 170296 173610 170214 173610 170296
          170214 170296 166425 169495 166425 170296 172889 176371 173321 176161 173321 176371
          172889 169495 170296 172889 173321 169495 171945 169495 173321 162559 166425 161653
          162559 161653 157904 163636 161653 166425 163636 166425 169495 163636 169495 167150
          163636 160478 161653 163636 160797 160478 200000 196713 197457 200000 200000 196713
          188835 197457 188089 196713 188089 197457 186519 188089 196713 200000 198025 196713
          196713 198025 192763 200000 200000 198025 200000 198196 198025 193271 198025 198196
          186519 196713 192763 193271 192763 198025 193271 185419 192763 186519 192763 185419