<?xml version="1.0"?>
<VTKFile type="UnstructuredGrid" version="0.1" byte_order="LittleEndian">
  <UnstructuredGrid>
    <Piece NumberOfCells="324" NumberOfPoints="1296">
      <PointData Scalars="S_aq">
        <DataArray type="Float32" Name="S_aq" NumberOfComponents="1" format="ascii">
          0.926341 0.5 0.926348 0.5 0.999929 0.926341 0.999929 0.926348 0.926318 0.5 0.926341 0.5
          0.999929 0.926318 0.999929 0.926341 1 0.999929 1 0.999929 1 1 1 1
          1 1 1 1 1 0.999929 1 0.999929 1 1 1 1
          1 1 1 1 0.926272 0.5 0.926318 0.5 0.999929 0.926272 0.999929 0.926318
          0.926187 0.5 0.926272 0.5 0.92603 0.5 0.926187 0.5 0.999929 0.926187 0.999929 0.926272
          0.999928 0.92603 0.999929 0.926187 1 0.999929 1 0.999929 1 1 1 1
          1 1 1 1 1 0.999929 1 0.999929 1 0.999928 1 0.999929
          1 1 1 1 1 1 1 1 1 1 1 1
          1 1 1 1 1 1 1 1 1 1 1 1
          1 1 1 1 1 1 1 1 1 1 1 1
          1 1 1 1 1 1 1 1 1 1 1 1
          1 1 1 1 1 1 1 1 1 1 1 1
          1 1 1 1 1 1 1 1 1 1 1 1
          1 1 1 1 1 1 1 1 1 1 1 1
          1 1 1 1 1 1 1 1 1 1 1 1
          0.925709 0.5 0.92603 0.5 0.999927 0.925709 0.999928 0.92603 0.92483 0.5 0.925709 0.5
          0.999925 0.92483 0.999927 0.925709 1 0.999927 1 0.999928 1 1 1 1
          1 1 1 1 1 0.999925 1 0.999927 1 1 1 1
          1 1 1 1 0.92753 0.5 0.92483 0.5 0.999937 0.92753 0.999925 0.92483
          1 1 0.92753 0.5 1 1 0.999937 0.92753 1 0.999937 1 0.999925
          1 1 1 1 1 1 1 1 1 1 1 0.999937
          1 1 1 1 1 1 1 1 1 1 1 1
          1 1 1 1 1 1 1 1 1 1 1 1
          1 1 1 1 1 1 1 1 1 1 1 1
          1 1 1 1 1 1 1 1 1 1 1 1
          1 1 1 1 1 1 1 1 1 1 1 1
          1 1 1 1 1 1 1 1 1 1 1 1
          1 1 1 1 1 1 1 1 1 1 1 1
          1 1 1 1 1 1 1 1 1 1 1 1
          1 1 1 1 1 1 1 1 1 1 1 1
          1 1 1 1 1 1 1 1 1 1 1 1
          1 1 1 1 1 1 1 1 1 1 1 1
          1 1 1 1 1 1 1 1 1 1 1 1
          1 1 1 1 1 1 1 1 1 1 1 1
          1 1 1 1 1 1 1 1 1 1 1 1
          1 1 1 1 1 1 1 1 1 1 1 1
          1 1 1 1 1 1 1 1 1 1 1 1
          1 1 1 1 1 1 1 1 1 1 1 1
          1 1 1 1 1 1 1 1 1 1 1 1
          1 1 1 1 1 1 1 1 1 1 1 1
          1 1 1 1 1 1 1 1 1 1 1 1
          1 1 1 1 1 1 1 1 1 1 1 1
          1 1 1 1 1 1 1 1 1 1 1 1
          1 1 1 1 1 1 1 1 1 1 1 1
          1 1 1 1 1 1 1 1 1 1 1 1
          1 1 1 1 1 1 1 1 1 1 1 1
          1 1 1 1 1 1 1 1 1 1 1 1
          1 1 1 1 1 1 1 1 1 1 1 1
          1 1 1 1 1 1 1 1 1 1 1 1
          1 1 1 1 1 1 1 1 1 1 1 1
          1 1 1 1 1 1 1 1 1 1 1 1
          1 1 1 1 1 1 1 1 1 1 1 1
          1 1 1 1 1 1 1 1 1 1 1 1
          1 1 1 1 1 1 1 1 1 1 1 1
          0.5 1 0.92753 1 0.92753 1 0.999937 1 0.5 0.5 0.92483 0.92753
          0.92483 0.92753 0.999925 0.999937 0.999937 1 1 1 1 1 1 1
          1 1 1 1 0.999925 0.999937 1 1 1 1 1 1
          1 1 1 1 0.5 0.5 0.925709 0.92483 0.925709 0.92483 0.999927 0.999925
          0.5 0.5 0.92603 0.925709 0.92603 0.925709 0.999928 0.999927 0.999927 0.999925 1 1
          1 1 1 1 1 1 1 1 0.999928 0.999927 1 1
          1 1 1 1 1 1 1 1 1 1 1 1
          1 1 1 1 1 1 1 1 1 1 1 1
          1 1 1 1 1 1 1 1 1 1 1 1
          1 1 1 1 1 1 1 1 1 1 1 1
          1 1 1 1 1 1 1 1 1 1 1 1
          1 1 1 1 1 1 1 1 1 1 1 1
          0.5 0.5 0.926187 0.92603 0.5 0.5 0.926272 0.926187 0.926187 0.92603 0.999929 0.999928
          0.926272 0.926187 0.999929 0.999929 0.5 0.5 0.926318 0.926272 0.926318 0.926272 0.999929 0.999929
          0.999929 0.999928 1 1 0.999929 0.999929 1 1 1 1 1 1
          1 1 1 1 1 1 1 1 1 1 1 1
          0.999929 0.999929 1 1 1 1 1 1 1 1 1 1
          0.5 0.5 0.926341 0.926318 0.926341 0.926318 0.999929 0.999929 0.5 0.5 0.926348 0.926341
          0.926348 0.926341 0.999929 0.999929 0.999929 0.999929 1 1 1 1 1 1
          1 1 1 1 0.999929 0.999929 1 1 1 1 1 1
          1 1 1 1 1 1 1 1 1 1 1 1
          1 1 1 1 1 1 1 1 1 1 1 1
          1 1 1 1 1 1 1 1 1 1 1 1
          1 1 1 1 1 1 1 1 1 1 1 1
          1 1 1 1 1 1 1 1 1 1 1 1
          1 1 1 1 1 1 1 1 1 1 1 1
          1 1 1 1 1 1 1 1 1 1 1 1
          1 1 1 1 1 1 1 1 1 1 1 1
          1 1 1 1 1 1 1 1 1 1 1 1
          1 1 1 1 1 1 1 1 1 1 1 1
          1 1 1 1 1 1 1 1 1 1 1 1
          1 1 1 1 1 1 1 1 1 1 1 1
          1 1 1 1 1 1 1 1 1 1 1 1
          1 1 1 1 1 1 1 1 1 1 1 1
          1 1 1 1 1 1 1 1 1 1 1 1
          1 1 1 1 1 1 1 1 1 1 1 1
          1 1 1 1 1 1 1 1 1 1 1 1
          1 1 1 1 1 1 1 1 1 1 1 1
          1 1 1 1 1 1 1 1 1 1 1 1
          1 1 1 1 1 1 1 1 1 1 1 1
          1 1 1 1 1 1 1 1 1 1 1 1
          1 1 1 1 1 1 1 1 1 1 1 1
          1 1 1 1 1 1 1 1 1 1 1 1
          1 1 1 1 1 1 1 1 1 1 1 1
          1 1 1 1 1 1 1 1 1 1 1 1
          1 1 1 1 1 1 1 1 1 1 1 1
          1 1 1 1 1 1 1 1 1 1 1 1
          1 1 1 1 1 1 1 1 1 1 1 1
          1 1 1 1 1 1 1 1 1 1 1 1
          1 1 1 1 1 1 1 1 1 1 1 1
          1 1 1 1 1 1 1 1 1 1 1 1
          1 1 1 1 1 1 1 1 1 1 1 1
          1 1 1 1 1 1 1 1 1 1 1 1
          1 1 1 1 1 1 1 1 1 1 1 1
        </DataArray>
        <DataArray type="Float32" Name="p_aq" NumberOfComponents="1" format="ascii">
          195818 200000 195817 200000 187883 195818 187883 195817 195818 200000 195818 200000
          187884 195818 187883 195818 182415 187883 182414 187883 176948 182415 176946 182414
          171478 176948 171476 176946 182417 187884 182415 187883 176951 182417 176948 182415
          171483 176951 171478 176948 195819 200000 195818 200000 187885 195819 187884 195818
          195820 200000 195819 200000 195818 200000 195820 200000 187885 195820 187885 195819
          187881 195818 187885 195820 182420 187885 182417 187884 176957 182420 176951 182417
          171491 176957 171483 176951 182424 187885 182420 187885 182428 187881 182424 187885
          176965 182424 176957 182420 171503 176965 171491 176957 176976 182428 176965 182424
          171519 176976 171503 176965 166005 171478 166003 171476 160528 166005 160525 166003
          166011 171483 166005 171478 160535 166011 160528 166005 155046 160528 155043 160525
          149559 155046 149556 155043 155054 160535 155046 160528 149567 155054 149559 155046
          166021 171491 166011 171483 160547 166021 160535 166011 166037 171503 166021 171491
          166057 171519 166037 171503 160565 166037 160547 166021 160590 166057 160565 166037
          155067 160547 155054 160535 149580 155067 149567 155054 155087 160565 155067 160547
          155115 160590 155087 160565 149601 155087 149580 155067 149630 155115 149601 155087
          195806 200000 195818 200000 187869 195806 187881 195818 195745 200000 195806 200000
          187840 195745 187869 195806 182433 187869 182428 187881 176992 182433 176976 182428
          171541 176992 171519 176976 182452 187840 182433 187869 177020 182452 176992 182433
          171569 177020 171541 176992 195374 200000 195745 200000 187874 195374 187840 195745
          194364 200000 195374 200000 188438 194364 187874 195374 182528 187874 182452 187840
          177058 182528 177020 182452 171600 177058 171569 177020 182594 188438 182528 187874
          177082 182594 177058 182528 171622 177082 171600 177058 166084 171541 166057 171519
          160621 166084 160590 166057 166114 171569 166084 171541 160658 166114 160621 166084
          155152 160621 155115 160590 149671 155152 149630 155115 155201 160658 155152 160621
          149731 155201 149671 155152 166147 171600 166114 171569 160689 166147 160658 166114
          166186 171622 166147 171600 160741 166186 160689 166147 155260 160689 155201 160658
          149835 155260 149731 155201 155151 160741 155260 160689 150238 155151 149835 155260
          149559 149556 144067 144064 144067 144064 138569 138567 149567 149559 144074 144067
          144074 144067 138576 138569 138569 138567 133068 133066 133068 133066 127562 127560
          138576 138569 133073 133068 133073 133068 127567 127562 149580 149567 144087 144074
          144087 144074 138588 138576 149601 149580 144107 144087 149630 149601 144134 144107
          144107 144087 138605 138588 144134 144107 138629 138605 138588 138576 133083 133073
          133083 133073 127574 127567 138605 138588 133098 133083 138629 138605 133116 133098
          133098 133083 127585 127574 133116 133098 127599 127585 127562 127560 122053 122052
          122053 122052 116542 116541 116542 116541 111029 111028 127567 127562 122057 122053
          122057 122053 116544 116542 116544 116542 111030 111029 111029 111028 105515 105514
          105515 105514 100000 100000 111030 111029 105515 105515 105515 105515 100000 100000
          127574 127567 122062 122057 122062 122057 116548 116544 116548 116544 111033 111030
          127585 127574 122070 122062 122070 122062 116554 116548 127599 127585 122080 122070
          122080 122070 116560 116554 116554 116548 111036 111033 116560 116554 111040 111036
          111033 111030 105517 105515 105517 105515 100000 100000 111036 111033 105518 105517
          111040 111036 105520 105518 105518 105517 100000 100000 105520 105518 100000 100000
          149671 149630 144173 144134 144173 144134 138660 138629 149731 149671 144227 144173
          144227 144173 138698 138660 138660 138629 133138 133116 133138 133116 127614 127599
          138698 138660 133162 133138 133162 133138 127629 127614 149835 149731 144312 144227
          144312 144227 138736 138698 150238 149835 144365 144312 144365 144312 138753 138736
          138736 138698 133182 133162 133182 133162 127640 127629 138753 138736 133190 133182
          133190 133182 127644 127640 127614 127599 122090 122080 122090 122080 116567 116560
          116567 116560 111044 111040 127629 127614 122099 122090 122099 122090 116573 116567
          116573 116567 111047 111044 111044 111040 105522 105520 105522 105520 100000 100000
          111047 111044 105523 105522 105523 105522 100000 100000 127640 127629 122106 122099
          122106 122099 116577 116573 116577 116573 111050 111047 127644 127640 122109 122106
          122109 122106 116578 116577 116578 116577 111051 111050 111050 111047 105525 105523
          105525 105523 100000 100000 111051 111050 105525 105525 105525 105525 100000 100000
          200000 200000 195374 194364 195374 194364 187874 188438 200000 200000 195745 195374
          195745 195374 187840 187874 187874 188438 182528 182594 182528 182594 177058 177082
          177058 177082 171600 171622 187840 187874 182452 182528 182452 182528 177020 177058
          177020 177058 171569 171600 200000 200000 195806 195745 195806 195745 187869 187840
          200000 200000 195818 195806 195818 195806 187881 187869 187869 187840 182433 182452
          182433 182452 176992 177020 176992 177020 171541 171569 187881 187869 182428 182433
          182428 182433 176976 176992 176976 176992 171519 171541 171600 171622 166147 166186
          166147 166186 160689 160741 171569 171600 166114 166147 166114 166147 160658 160689
          160689 160741 155260 155151 155260 155151 149835 150238 160658 160689 155201 155260
          155201 155260 149731 149835 171541 171569 166084 166114 166084 166114 160621 160658
          171519 171541 166057 166084 166057 166084 160590 160621 160621 160658 155152 155201
          155152 155201 149671 149731 160590 160621 155115 155152 155115 155152 149630 149671
          200000 200000 195820 195818 200000 200000 195819 195820 195820 195818 187885 187881
          195819 195820 187885 187885 200000 200000 195818 195819 195818 195819 187884 187885
          187885 187881 182424 182428 187885 187885 182420 182424 182424 182428 176965 176976
          176965 176976 171503 171519 182420 182424 176957 176965 176957 176965 171491 171503
          187884 187885 182417 182420 182417 182420 176951 176957 176951 176957 171483 171491
          200000 200000 195818 195818 195818 195818 187883 187884 200000 200000 195817 195818
          195817 195818 187883 187883 187883 187884 182415 182417 182415 182417 176948 176951
          176948 176951 171478 171483 187883 187883 182414 182415 182414 182415 176946 176948
          176946 176948 171476 171478 171503 171519 166037 166057 171491 171503 166021 166037
          166037 166057 160565 160590 166021 166037 160547 160565 171483 171491 166011 166021
          166011 166021 160535 160547 160565 160590 155087 155115 160547 160565 155067 155087
          155087 155115 149601 149630 155067 155087 149580 149601 160535 160547 155054 155067
          155054 155067 149567 149580 171478 171483 166005 166011 166005 166011 160528 160535
          171476 171478 166003 166005 166003 166005 160525 160528 160528 160535 155046 155054
          155046 155054 149559 149567 160525 160528 155043 155046 155043 155046 149556 149559
          149835 150238 144312 144365 144312 144365 138736 138753 149731 149835 144227 144312
          144227 144312 138698 138736 138736 138753 133182 133190 133182 133190 127640 127644
          138698 138736 133162 133182 133162 133182 127629 127640 149671 149731 144173 144227
          144173 144227 138660 138698 149630 149671 144134 144173 144134 144173 138629 138660
          138660 138698 133138 133162 133138 133162 127614 127629 138629 138660 133116 133138
          133116 133138 127599 127614 127640 127644 122106 122109 122106 122109 116577 116578
          116577 116578 111050 111051 127629 127640 122099 122106 122099 122106 116573 116577
          116573 116577 111047 111050 111050 111051 105525 105525 105525 105525 100000 100000
          111047 111050 105523 105525 105523 105525 100000 100000 127614 127629 122090 122099
          122090 122099 116567 116573 116567 116573 111044 111047 127599 127614 122080 122090
          122080 122090 116560 116567 116560 116567 111040 111044 111044 111047 105522 105523
          105522 105523 100000 100000 111040 111044 105520 105522 105520 105522 100000 100000
          149601 149630 144107 144134 149580 149601 144087 144107 144107 144134 138605 138629
          144087 144107 138588 138605 149567 149580 144074 144087 144074 144087 138576 138588
          138605 138629 133098 133116 138588 138605 133083 133098 133098 133116 127585 127599
          133083 133098 127574 127585 138576 138588 133073 133083 133073 133083 127567 127574
          127567 127574 122057 122062 149559 149567 144067 144074 144067 144074 138569 138576
          149556 149559 144064 144067 144064 144067 138567 138569 138569 138576 133068 133073
          133068 133073 127562 127567 127562 127567 122053 122057 138567 138569 133066 133068
          133066 133068 127560 127562 127560 127562 122052 122053 127585 127599 122070 122080
          122070 122080 116554 116560 127574 127585 122062 122070 122062 122070 116548 116554
          116554 116560 111036 111040 116548 116554 111033 111036 122057 122062 116544 116548
          116544 116548 111030 111033 111036 111040 105518 105520 111033 111036 105517 105518
          105518 105520 100000 100000 105517 105518 100000 100000 111030 111033 105515 105517
          105515 105517 100000 100000 122053 122057 116542 116544 116542 116544 111029 111030
          122052 122053 116541 116542 116541 116542 111028 111029 111029 111030 105515 105515
          105515 105515 100000 100000 111028 111029 105514 105515 105514 105515 100000 100000
        </DataArray>
        <DataArray type="Float32" Name="rho_aq" NumberOfComponents="1" format="ascii">
          1000 1000 1000 1000 1000 1000 1000 1000 1000 1000 1000 1000
          1000 1000 1000 1000 1000 1000 1000 1000 1000 1000 1000 1000
          1000 1000 1000 1000 1000 1000 1000 1000 1000 1000 1000 1000
          1000 1000 1000 1000 1000 1000 1000 1000 1000 1000 1000 1000
          1000 1000 1000 1000 1000 1000 1000 1000 1000 1000 1000 1000
          1000 1000 1000 1000 1000 1000 1000 1000 1000 1000 1000 1000
          1000 1000 1000 1000 1000 1000 1000 1000 1000 1000 1000 1000
          1000 1000 1000 1000 1000 1000 1000 1000 1000 1000 1000 1000
          1000 1000 1000 1000 1000 1000 1000 1000 1000 1000 1000 1000
          1000 1000 1000 1000 1000 1000 1000 1000 1000 1000 1000 1000
          1000 1000 1000 1000 1000 1000 1000 1000 1000 1000 1000 1000
          1000 1000 1000 1000 1000 1000 1000 1000 1000 1000 1000 1000
          1000 1000 1000 1000 1000 1000 1000 1000 1000 1000 1000 1000
          1000 1000 1000 1000 1000 1000 1000 1000 1000 1000 1000 1000
          1000 1000 1000 1000 1000 1000 1000 1000 1000 1000 1000 1000
          1000 1000 1000 1000 1000 1000 1000 1000 1000 1000 1000 1000
          1000 1000 1000 1000 1000 1000 1000 1000 1000 1000 1000 1000
          1000 1000 1000 1000 1000 1000 1000 1000 1000 1000 1000 1000
          1000 1000 1000 1000 1000 1000 1000 1000 1000 1000 1000 1000
          1000 1000 1000 1000 1000 1000 1000 1000 1000 1000 1000 1000
          1000 1000 1000 1000 1000 1000 1000 1000 1000 1000 1000 1000
          1000 1000 1000 1000 1000 1000 1000 1000 1000 1000 1000 1000
          1000 1000 1000 1000 1000 1000 1000 1000 1000 1000 1000 1000
          1000 1000 1000 1000 1000 1000 1000 1000 1000 1000 1000 1000
          1000 1000 1000 1000 1000 1000 1000 1000 1000 1000 1000 1000
          1000 1000 1000 1000 1000 1000 1000 1000 1000 1000 1000 1000
          1000 1000 1000 1000 1000 1000 1000 1000 1000 1000 1000 1000
          1000 1000 1000 1000 1000 1000 1000 1000 1000 1000 1000 1000
          1000 1000 1000 1000 1000 1000 1000 1000 1000 1000 1000 1000
          1000 1000 1000 1000 1000 1000 1000 1000 1000 1000 1000 1000
          1000 1000 1000 1000 1000 1000 1000 1000 1000 1000 1000 1000
          1000 1000 1000 1000 1000 1000 1000 1000 1000 1000 1000 1000
          1000 1000 1000 1000 1000 1000 1000 1000 1000 1000 1000 1000
          1000 1000 1000 1000 1000 1000 1000 1000 1000 1000 1000 1000
          1000 1000 1000 1000 1000 1000 1000 1000 1000 1000 1000 1000
          1000 1000 1000 1000 1000 1000 1000 1000 1000 1000 1000 1000
          1000 1000 1000 1000 1000 1000 1000 1000 1000 1000 1000 1000
          1000 1000 1000 1000 1000 1000 1000 1000 1000 1000 1000 1000
          1000 1000 1000 1000 1000 1000 1000 1000 1000 1000 1000 1000
          1000 1000 1000 1000 1000 1000 1000 1000 1000 1000 1000 1000
          1000 1000 1000 1000 1000 1000 1000 1000 1000 1000 1000 1000
          1000 1000 1000 1000 1000 1000 1000 1000 1000 1000 1000 1000
          1000 1000 1000 1000 1000 1000 1000 1000 1000 1000 1000 1000
          1000 1000 1000 1000 1000 1000 1000 1000 1000 1000 1000 1000
          1000 1000 1000 1000 1000 1000 1000 1000 1000 1000 1000 1000
          1000 1000 1000 1000 1000 1000 1000 1000 1000 1000 1000 1000
          1000 1000 1000 1000 1000 1000 1000 1000 1000 1000 1000 1000
          1000 1000 1000 1000 1000 1000 1000 1000 1000 1000 1000 1000
          1000 1000 1000 1000 1000 1000 1000 1000 1000 1000 1000 1000
          1000 1000 1000 1000 1000 1000 1000 1000 1000 1000 1000 1000
          1000 1000 1000 1000 1000 1000 1000 1000 1000 1000 1000 1000
          1000 1000 1000 1000 1000 1000 1000 1000 1000 1000 1000 1000
          1000 1000 1000 1000 1000 1000 1000 1000 1000 1000 1000 1000
          1000 1000 1000 1000 1000 1000 1000 1000 1000 1000 1000 1000
          1000 1000 1000 1000 1000 1000 1000 1000 1000 1000 1000 1000
          1000 1000 1000 1000 1000 1000 1000 1000 1000 1000 1000 1000
          1000 1000 1000 1000 1000 1000 1000 1000 1000 1000 1000 1000
          1000 1000 1000 1000 1000 1000 1000 1000 1000 1000 1000 1000
          1000 1000 1000 1000 1000 1000 1000 1000 1000 1000 1000 1000
          1000 1000 1000 1000 1000 1000 1000 1000 1000 1000 1000 1000
          1000 1000 1000 1000 1000 1000 1000 1000 1000 1000 1000 1000
          1000 1000 1000 1000 1000 1000 1000 1000 1000 1000 1000 1000
          1000 1000 1000 1000 1000 1000 1000 1000 1000 1000 1000 1000
          1000 1000 1000 1000 1000 1000 1000 1000 1000 1000 1000 1000
          1000 1000 1000 1000 1000 1000 1000 1000 1000 1000 1000 1000
          1000 1000 1000 1000 1000 1000 1000 1000 1000 1000 1000 1000
          1000 1000 1000 1000 1000 1000 1000 1000 1000 1000 1000 1000
          1000 1000 1000 1000 1000 1000 1000 1000 1000 1000 1000 1000
          1000 1000 1000 1000 1000 1000 1000 1000 1000 1000 1000 1000
          1000 1000 1000 1000 1000 1000 1000 1000 1000 1000 1000 1000
          1000 1000 1000 1000 1000 1000 1000 1000 1000 1000 1000 1000
          1000 1000 1000 1000 1000 1000 1000 1000 1000 1000 1000 1000
          1000 1000 1000 1000 1000 1000 1000 1000 1000 1000 1000 1000
          1000 1000 1000 1000 1000 1000 1000 1000 1000 1000 1000 1000
          1000 1000 1000 1000 1000 1000 1000 1000 1000 1000 1000 1000
          1000 1000 1000 1000 1000 1000 1000 1000 1000 1000 1000 1000
          1000 1000 1000 1000 1000 1000 1000 1000 1000 1000 1000 1000
          1000 1000 1000 1000 1000 1000 1000 1000 1000 1000 1000 1000
          1000 1000 1000 1000 1000 1000 1000 1000 1000 1000 1000 1000
          1000 1000 1000 1000 1000 1000 1000 1000 1000 1000 1000 1000
          1000 1000 1000 1000 1000 1000 1000 1000 1000 1000 1000 1000
          1000 1000 1000 1000 1000 1000 1000 1000 1000 1000 1000 1000
          1000 1000 1000 1000 1000 1000 1000 1000 1000 1000 1000 1000
          1000 1000 1000 1000 1000 1000 1000 1000 1000 1000 1000 1000
          1000 1000 1000 1000 1000 1000 1000 1000 1000 1000 1000 1000
          1000 1000 1000 1000 1000 1000 1000 1000 1000 1000 1000 1000
          1000 1000 1000 1000 1000 1000 1000 1000 1000 1000 1000 1000
          1000 1000 1000 1000 1000 1000 1000 1000 1000 1000 1000 1000
          1000 1000 1000 1000 1000 1000 1000 1000 1000 1000 1000 1000
          1000 1000 1000 1000 1000 1000 1000 1000 1000 1000 1000 1000
          1000 1000 1000 1000 1000 1000 1000 1000 1000 1000 1000 1000
          1000 1000 1000 1000 1000 1000 1000 1000 1000 1000 1000 1000
          1000 1000 1000 1000 1000 1000 1000 1000 1000 1000 1000 1000
          1000 1000 1000 1000 1000 1000 1000 1000 1000 1000 1000 1000
          1000 1000 1000 1000 1000 1000 1000 1000 1000 1000 1000 1000
          1000 1000 1000 1000 1000 1000 1000 1000 1000 1000 1000 1000
          1000 1000 1000 1000 1000 1000 1000 1000 1000 1000 1000 1000
          1000 1000 1000 1000 1000 1000 1000 1000 1000 1000 1000 1000
          1000 1000 1000 1000 1000 1000 1000 1000 1000 1000 1000 1000
          1000 1000 1000 1000 1000 1000 1000 1000 1000 1000 1000 1000
          1000 1000 1000 1000 1000 1000 1000 1000 1000 1000 1000 1000
          1000 1000 1000 1000 1000 1000 1000 1000 1000 1000 1000 1000
          1000 1000 1000 1000 1000 1000 1000 1000 1000 1000 1000 1000
          1000 1000 1000 1000 1000 1000 1000 1000 1000 1000 1000 1000
          1000 1000 1000 1000 1000 1000 1000 1000 1000 1000 1000 1000
          1000 1000 1000 1000 1000 1000 1000 1000 1000 1000 1000 1000
          1000 1000 1000 1000 1000 1000 1000 1000 1000 1000 1000 1000
          1000 1000 1000 1000 1000 1000 1000 1000 1000 1000 1000 1000
        </DataArray>
        <DataArray type="Float32" Name="mob_aq" NumberOfComponents="1" format="ascii">
          686.268 23.1923 686.293 23.1923 999.655 686.268 999.655 686.293 686.183 23.1923 686.268 23.1923
          999.654 686.183 999.655 686.268 1000 999.655 1000 999.655 1000 1000 1000 1000
          1000 1000 1000 1000 1000 999.654 1000 999.655 1000 1000 1000 1000
          1000 1000 1000 1000 686.013 23.1923 686.183 23.1923 999.654 686.013 999.654 686.183
          685.703 23.1923 686.013 23.1923 685.127 23.1923 685.703 23.1923 999.652 685.703 999.654 686.013
          999.649 685.127 999.652 685.703 1000 999.654 1000 999.654 1000 1000 1000 1000
          1000 1000 1000 1000 1000 999.652 1000 999.654 1000 999.649 1000 999.652
          1000 1000 1000 1000 1000 1000 1000 1000 1000 1000 1000 1000
          1000 1000 1000 1000 1000 1000 1000 1000 1000 1000 1000 1000
          1000 1000 1000 1000 1000 1000 1000 1000 1000 1000 1000 1000
          1000 1000 1000 1000 1000 1000 1000 1000 1000 1000 1000 1000
          1000 1000 1000 1000 1000 1000 1000 1000 1000 1000 1000 1000
          1000 1000 1000 1000 1000 1000 1000 1000 1000 1000 1000 1000
          1000 1000 1000 1000 1000 1000 1000 1000 1000 1000 1000 1000
          1000 1000 1000 1000 1000 1000 1000 1000 1000 1000 1000 1000
          683.946 23.1923 685.127 23.1923 999.644 683.946 999.649 685.127 680.727 23.1923 683.946 23.1923
          999.633 680.727 999.644 683.946 1000 999.644 1000 999.649 1000 1000 1000 1000
          1000 1000 1000 1000 1000 999.633 1000 999.644 1000 1000 1000 1000
          1000 1000 1000 1000 690.651 23.1923 680.727 23.1923 999.693 690.651 999.633 680.727
          1000 1000 690.651 23.1923 1000 1000 999.693 690.651 1000 999.693 1000 999.633
          1000 1000 1000 1000 1000 1000 1000 1000 1000 1000 1000 999.693
          1000 1000 1000 1000 1000 1000 1000 1000 1000 1000 1000 1000
          1000 1000 1000 1000 1000 1000 1000 1000 1000 1000 1000 1000
          1000 1000 1000 1000 1000 1000 1000 1000 1000 1000 1000 1000
          1000 1000 1000 1000 1000 1000 1000 1000 1000 1000 1000 1000
          1000 1000 1000 1000 1000 1000 1000 1000 1000 1000 1000 1000
          1000 1000 1000 1000 1000 1000 1000 1000 1000 1000 1000 1000
          1000 1000 1000 1000 1000 1000 1000 1000 1000 1000 1000 1000
          1000 1000 1000 1000 1000 1000 1000 1000 1000 1000 1000 1000
          1000 1000 1000 1000 1000 1000 1000 1000 1000 1000 1000 1000
          1000 1000 1000 1000 1000 1000 1000 1000 1000 1000 1000 1000
          1000 1000 1000 1000 1000 1000 1000 1000 1000 1000 1000 1000
          1000 1000 1000 1000 1000 1000 1000 1000 1000 1000 1000 1000
          1000 1000 1000 1000 1000 1000 1000 1000 1000 1000 1000 1000
          1000 1000 1000 1000 1000 1000 1000 1000 1000 1000 1000 1000
          1000 1000 1000 1000 1000 1000 1000 1000 1000 1000 1000 1000
          1000 1000 1000 1000 1000 1000 1000 1000 1000 1000 1000 1000
          1000 1000 1000 1000 1000 1000 1000 1000 1000 1000 1000 1000
          1000 1000 1000 1000 1000 1000 1000 1000 1000 1000 1000 1000
          1000 1000 1000 1000 1000 1000 1000 1000 1000 1000 1000 1000
          1000 1000 1000 1000 1000 1000 1000 1000 1000 1000 1000 1000
          1000 1000 1000 1000 1000 1000 1000 1000 1000 1000 1000 1000
          1000 1000 1000 1000 1000 1000 1000 1000 1000 1000 1000 1000
          1000 1000 1000 1000 1000 1000 1000 1000 1000 1000 1000 1000
          1000 1000 1000 1000 1000 1000 1000 1000 1000 1000 1000 1000
          1000 1000 1000 1000 1000 1000 1000 1000 1000 1000 1000 1000
          1000 1000 1000 1000 1000 1000 1000 1000 1000 1000 1000 1000
          1000 1000 1000 1000 1000 1000 1000 1000 1000 1000 1000 1000
          1000 1000 1000 1000 1000 1000 1000 1000 1000 1000 1000 1000
          1000 1000 1000 1000 1000 1000 1000 1000 1000 1000 1000 1000
          1000 1000 1000 1000 1000 1000 1000 1000 1000 1000 1000 1000
          1000 1000 1000 1000 1000 1000 1000 1000 1000 1000 1000 1000
          1000 1000 1000 1000 1000 1000 1000 1000 1000 1000 1000 1000
          1000 1000 1000 1000 1000 1000 1000 1000 1000 1000 1000 1000
          23.1923 1000 690.651 1000 690.651 1000 999.693 1000 23.1923 23.1923 680.727 690.651
          680.727 690.651 999.633 999.693 999.693 1000 1000 1000 1000 1000 1000 1000
          1000 1000 1000 1000 999.633 999.693 1000 1000 1000 1000 1000 1000
          1000 1000 1000 1000 23.1923 23.1923 683.946 680.727 683.946 680.727 999.644 999.633
          23.1923 23.1923 685.127 683.946 685.127 683.946 999.649 999.644 999.644 999.633 1000 1000
          1000 1000 1000 1000 1000 1000 1000 1000 999.649 999.644 1000 1000
          1000 1000 1000 1000 1000 1000 1000 1000 1000 1000 1000 1000
          1000 1000 1000 1000 1000 1000 1000 1000 1000 1000 1000 1000
          1000 1000 1000 1000 1000 1000 1000 1000 1000 1000 1000 1000
          1000 1000 1000 1000 1000 1000 1000 1000 1000 1000 1000 1000
          1000 1000 1000 1000 1000 1000 1000 1000 1000 1000 1000 1000
          1000 1000 1000 1000 1000 1000 1000 1000 1000 1000 1000 1000
          23.1923 23.1923 685.703 685.127 23.1923 23.1923 686.013 685.703 685.703 685.127 999.652 999.649
          686.013 685.703 999.654 999.652 23.1923 23.1923 686.183 686.013 686.183 686.013 999.654 999.654
          999.652 999.649 1000 1000 999.654 999.652 1000 1000 1000 1000 1000 1000
          1000 1000 1000 1000 1000 1000 1000 1000 1000 1000 1000 1000
          999.654 999.654 1000 1000 1000 1000 1000 1000 1000 1000 1000 1000
          23.1923 23.1923 686.268 686.183 686.268 686.183 999.655 999.654 23.1923 23.1923 686.293 686.268
          686.293 686.268 999.655 999.655 999.655 999.654 1000 1000 1000 1000 1000 1000
          1000 1000 1000 1000 999.655 999.655 1000 1000 1000 1000 1000 1000
          1000 1000 1000 1000 1000 1000 1000 1000 1000 1000 1000 1000
          1000 1000 1000 1000 1000 1000 1000 1000 1000 1000 1000 1000
          1000 1000 1000 1000 1000 1000 1000 1000 1000 1000 1000 1000
          1000 1000 1000 1000 1000 1000 1000 1000 1000 1000 1000 1000
          1000 1000 1000 1000 1000 1000 1000 1000 1000 1000 1000 1000
          1000 1000 1000 1000 1000 1000 1000 1000 1000 1000 1000 1000
          1000 1000 1000 1000 1000 1000 1000 1000 1000 1000 1000 1000
          1000 1000 1000 1000 1000 1000 1000 1000 1000 1000 1000 1000
          1000 1000 1000 1000 1000 1000 1000 1000 1000 1000 1000 1000
          1000 1000 1000 1000 1000 1000 1000 1000 1000 1000 1000 1000
          1000 1000 1000 1000 1000 1000 1000 1000 1000 1000 1000 1000
          1000 1000 1000 1000 1000 1000 1000 1000 1000 1000 1000 1000
          1000 1000 1000 1000 1000 1000 1000 1000 1000 1000 1000 1000
          1000 1000 1000 1000 1000 1000 1000 1000 1000 1000 1000 1000
          1000 1000 1000 1000 1000 1000 1000 1000 1000 1000 1000 1000
          1000 1000 1000 1000 1000 1000 1000 1000 1000 1000 1000 1000
          1000 1000 1000 1000 1000 1000 1000 1000 1000 1000 1000 1000
          1000 1000 1000 1000 1000 1000 1000 1000 1000 1000 1000 1000