<?xml version="1.0"?>
<VTKFile type="UnstructuredGrid" version="0.1" byte_order="LittleEndian">
  <UnstructuredGrid>
    <Piece NumberOfCells="800" NumberOfPoints="861">
      <CellData Scalars="S_liq">
        <DataArray type="Float32" Name="S_liq" NumberOfComponents="1" format="ascii">
          1 1 1 1 1 1 1 1 1 1 1 1
          1 1 1 1 1 1 1 1 1 1 1 1
          1 1 1 1 1 1 1 1 1 1 1 1
          1 1 1 1 1 1 1 1 1 1 1 1
          1 1 1 1 1 1 1 1 1 1 1 1
          1 1 1 1 1 1 1 1 1 1 1 1
          1 1 1 1 1 1 1 1 1 1 1 1
          1 1 1 1 1 1 1 1 1 1 1 1
          1 1 1 1 1 1 1 1 1 1 1 1
          1 1 1 1 1 1 1 1 1 1 1 1
          1 1 1 1 1 1 1 1 1 1 1 1
          1 1 1 1 1 1 1 1 1 1 1 1
          1 1 1 1 1 1 1 1 1 1 1 1
          1 1 1 1 1 1 1 1 1 1 1 1
          1 1 1 1 1 1 1 1 1 1 1 1
          1 1 1 1 1 1 1 1 1 1 1 1
          1 1 1 1 1 1 1 1 1 1 1 1
          1 1 1 1 1 1 1 1 1 1 1 1
          1 1 1 1 0.843343 1 1 1 1 1 1 1
          1 1 1 1 1 1 1 1 1 1 1 1
          0.764019 1 1 1 1 1 1 1 1 1 1 1
          1 1 1 1 1 1 1 1 0.716562 1 1 1
          1 1 1 1 1 1 1 1 1 1 1 1
          1 1 1 1 0.710452 1 1 1 1 1 1 1
          1 1 1 1 1 1 1 1 1 1 1 1
          1 1 1 1 1 1 1 1 1 1 1 1
          1 1 1 1 1 1 1 1 1 1 1 1
          1 1 1 1 1 1 1 1 1 1 1 1
          1 1 1 1 1 1 1 1 1 1 1 1
          1 1 1 1 1 1 1 1 1 1 1 1
          1 1 1 1 1 1 1 1 1 1 1 1
          1 1 1 1 1 1 1 1 1 1 1 1
          1 1 1 1 1 1 1 1 1 1 1 1
          1 1 1 1 1 1 1 1 1 1 1 1
          1 1 1 1 1 1 1 1 1 1 1 1
          1 1 1 1 1 1 1 1 1 1 1 1
          1 1 1 1 1 1 1 1 1 1 1 1
          1 1 1 1 1 1 1 1 1 1 1 1
          1 1 1 1 1 1 1 1 1 1 1 1
          1 1 1 1 1 1 1 1 1 1 1 1
          1 1 1 1 1 1 1 1 1 1 1 1
          1 1 1 1 1 1 1 1 1 1 1 1
          1 1 1 1 1 1 1 1 1 1 1 1
          1 1 1 1 1 1 1 1 1 1 1 1
          1 1 1 1 1 1 1 1 1 1 1 1
          1 1 1 1 1 1 1 1 1 1 1 1
          1 1 1 1 1 1 1 1 1 1 1 1
          1 1 1 1 1 1 1 1 1 1 1 1
          1 1 1 1 1 1 1 1 1 1 1 1
          1 1 1 1 1 1 1 1 1 1 1 1
          1 1 1 1 1 1 1 1 1 1 1 1
          1 1 1 1 1 1 1 1 1 1 1 1
          1 1 1 1 1 1 1 1 1 1 1 1
          1 1 1 1 1 1 1 1 1 1 1 1
          1 1 1 1 1 1 1 1 1 1 1 1
          1 1 1 1 1 1 1 1 1 1 1 1
          1 1 1 1 1 1 1 1 1 1 1 1
          1 1 1 1 1 1 1 1 1 1 1 1
          1 1 1 1 1 1 1 1 1 1 1 1
          1 1 1 1 1 1 1 1 1 1 1 1
          1 1 1 1 1 1 1 1 1 1 1 1
          1 1 1 1 1 1 1 1 1 1 1 1
          1 1 1 1 1 1 1 1 1 1 1 1
          1 1 1 1 1 1 1 1 1 1 1 1
          1 1 1 1 1 1 1 1 1 1 1 1
          1 1 1 1 1 1 1 1 1 1 1 1
          1 1 1 1 1 1 1 1
        </DataArray>
        <DataArray type="Float32" Name="p_liq" NumberOfComponents="1" format="ascii">
          178887 178886 178885 178883 178881 178878 178874 178870 178865 178860 178855 178849
          178844 178838 178832 178826 178820 178814 178808 178802 176926 176926 176924 176922
          176920 176917 176913 176909 176904 176899 176894 176888 176882 176876 176870 176864
          176858 176852 176846 176840 174966 174966 174964 174962 174960 174956 174953 174948
          174943 174938 174933 174927 174921 174915 174909 174903 174897 174890 174884 174878
          173007 173006 173005 173003 173000 172997 172993 172988 172983 172978 172972 172966
          172960 172954 172948 172942 172935 172929 172922 172916 171048 171047 171046 171044
          171041 171037 171033 171028 171023 171018 171012 171006 170999 170993 170987 170980
          170974 170967 170961 170954 169089 169089 169088 169086 169083 169079 169074 169069
          169064 169058 169051 169045 169039 169032 169025 169019 169012 169006 168999 168992
          167132 167132 167131 167129 167125 167121 167116 167110 167104 167098 167091 167085
          167078 167071 167064 167058 167051 167044 167037 167030 165174 165175 165175 165173
          165169 165164 165158 165152 165145 165138 165131 165124 165117 165110 165103 165096
          165089 165082 165075 165068 163215 163220 163221 163218 163214 163208 163201 163194
          163186 163179 163171 163164 163157 163149 163142 163135 163128 163121 163114 163107
          161251 161268 161270 161266 161260 161252 161244 161236 161228 161220 161212 161204
          161196 161188 161181 161173 161166 161159 161152 161145 159320 159329 159325 159317
          159308 159298 159288 159278 159269 159260 159251 159243 159235 159227 159219 159212
          159204 159197 159190 159183 157436 157399 157384 157369 157355 157343 157331 157320
          157310 157300 157291 157282 157274 157266 157258 157250 157243 157235 157228 157221
          155534 155456 155440 155420 155402 155387 155373 155361 155350 155340 155330 155321
          155313 155304 155296 155289 155281 155273 155266 155259 153611 153505 153490 153467
          153446 153429 153414 153401 153390 153379 153369 153360 153351 153343 153334 153327
          153319 153311 153304 153297 151637 151553 151535 151510 151487 151469 151454 151440
          151428 151417 151407 151398 151389 151380 151372 151364 151357 151349 151342 151335
          149607 149598 149571 149546 149524 149506 149491 149477 149465 149455 149445 149435
          149426 149418 149410 149402 149395 149387 149380 149373 147654 147626 147599 147576
          147557 147541 147526 147513 147502 147491 147481 147472 147463 147455 147447 147440
          147432 147425 147418 147411 145657 145640 145621 145604 145587 145573 145560 145548
          145537 145527 145517 145509 145500 145492 145484 145477 145470 145463 145455 145448
          143664 143655 143642 143629 143616 143604 143592 143581 143571 143562 143553 143545
          143536 143529 143521 143514 143507 143500 143493 143486 141678 141673 141664 141655
          141644 141634 141624 141614 141605 141596 141588 141580 141572 141565 141558 141551
          141544 141537 141531 141524 139697 139694 139688 139680 139672 139664 139655 139647
          139638 139630 139623 139615 139608 139601 139594 139588 139581 139575 139568 139562
          137720 137717 137713 137707 137701 137694 137686 137679 137672 137664 137657 137650
          137644 137637 137631 137624 137618 137612 137606 137600 135744 135743 135739 135735
          135730 135724 135717 135711 135704 135698 135692 135685 135679 135673 135667 135661
          135655 135649 135644 135638 133771 133770 133767 133763 133759 133754 133749 133743
          133737 133732 133726 133720 133714 133709 133703 133697 133692 133687 133681 133676
          131799 131798 131796 131793 131789 131785 131780 131776 131770 131765 131760 131755
          131750 131744 131739 131734 131729 131724 131719 131714 129828 129827 129825 129823
          129820 129816 129812 129808 129804 129799 129794 129789 129785 129780 129775 129770
          129766 129761 129756 129751 127858 127857 127856 127854 127851 127848 127844 127841
          127837 127833 127829 127824 127820 127816 127811 127807 127802 127798 127794 127789
          125888 125888 125886 125885 125883 125880 125877 125874 125870 125867 125863 125859
          125855 125851 125847 125843 125839 125835 125831 125827 123919 123919 123918 123916
          123915 123912 123910 123907 123904 123901 123897 123894 123890 123887 123883 123880
          123876 123872 123869 123865 121951 121951 121950 121949 121947 121945 121943 121940
          121938 121935 121932 121929 121926 121922 121919 121916 121913 121909 121906 121903
          119983 119983 119982 119981 119980 119978 119976 119974 119972 119969 119967 119964
          119961 119958 119955 119952 119949 119946 119943 119940 118016 118015 118015 118014
          118013 118011 118010 118008 118006 118004 118001 117999 117997 117994 117991 117989
          117986 117984 117981 117978 116048 116048 116048 116047 116046 116045 116043 116042
          116040 116038 116036 116034 116032 116030 116028 116025 116023 116021 116018 116016
          114081 114081 114081 114080 114079 114078 114077 114076 114074 114073 114071 114069
          114068 114066 114064 114062 114060 114058 114056 114054 112115 112115 112114 112114
          112113 112112 112111 112110 112109 112108 112106 112105 112103 112102 112100 112099
          112097 112095 112094 112092 110148 110148 110148 110147 110147 110146 110145 110144
          110144 110142 110141 110140 110139 110138 110136 110135 110134 110132 110131 110130
          108182 108182 108181 108181 108181 108180 108180 108179 108178 108177 108177 108176
          108175 108174 108173 108172 108171 108170 108169 108168 106215 106215 106215 106215
          106215 106214 106214 106213 106213 106212 106212 106211 106210 106210 106209 106208
          106208 106207 106206 106205 104249 104249 104249 104249 104249 104249 104248 104248
          104248 104247 104247 104247 104246 104246 104245 104245 104245 104244 104244 104243
          102283 102283 102283 102283 102283 102283 102283 102283 102283 102282 102282 102282
          102282 102282 102282 102282 102282 102281 102281 102281
        </DataArray>
        <DataArray type="Float32" Name="rho_liq" NumberOfComponents="1" format="ascii">
          999.728 999.728 999.728 999.728 999.728 999.728 999.728 999.728 999.728 999.728 999.728 999.728
          999.728 999.728 999.728 999.728 999.728 999.728 999.728 999.728 999.727 999.727 999.727 999.727
          999.727 999.727 999.727 999.727 999.727 999.727 999.727 999.727 999.727 999.727 999.727 999.727
          999.727 999.727 999.727 999.727 999.726 999.726 999.726 999.726 999.726 999.726 999.726 999.726
          999.726 999.726 999.726 999.726 999.726 999.726 999.726 999.726 999.726 999.726 999.726 999.726
          999.725 999.725 999.725 999.725 999.725 999.725 999.725 999.725 999.725 999.725 999.725 999.725
          999.725 999.725 999.725 999.725 999.725 999.725 999.725 999.725 999.724 999.724 999.724 999.724
          999.724 999.724 999.724 999.724 999.724 999.724 999.724 999.724 999.724 999.724 999.724 999.724
          999.724 999.724 999.724 999.724 999.723 999.723 999.723 999.723 999.723 999.723 999.723 999.723
          999.723 999.723 999.723 999.723 999.723 999.723 999.723 999.723 999.723 999.723 999.723 999.723
          999.723 999.723 999.723 999.723 999.723 999.723 999.723 999.723 999.723 999.723 999.723 999.723
          999.723 999.723 999.723 999.723 999.723 999.722 999.722 999.722 999.721 999.722 999.722 999.722
          999.722 999.722 999.722 999.722 999.722 999.722 999.722 999.722 999.722 999.722 999.722 999.722
          999.722 999.722 999.722 999.722 999.714 999.72 999.721 999.721 999.721 999.721 999.721 999.721
          999.721 999.721 999.721 999.721 999.721 999.721 999.721 999.721 999.721 999.721 999.721 999.721
          999.302 999.71 999.719 999.72 999.72 999.72 999.72 999.72 999.72 999.72 999.72 999.72
          999.72 999.72 999.72 999.72 999.72 999.72 999.72 999.72 952.4 999.413 999.713 999.719
          999.719 999.719 999.719 999.719 999.719 999.719 999.719 999.719 999.719 999.719 999.719 999.719
          999.719 999.719 999.719 999.719 948.752 997.795 999.681 999.717 999.718 999.718 999.718 999.718
          999.718 999.718 999.718 999.718 999.718 999.718 999.718 999.718 999.718 999.718 999.718 999.718
          949.022 996.297 999.617 999.713 999.717 999.717 999.717 999.717 999.717 999.717 999.717 999.717
          999.717 999.717 999.717 999.717 999.717 999.717 999.717 999.717 949.302 993.071 999.434 999.703
          999.715 999.716 999.716 999.716 999.716 999.716 999.716 999.716 999.716 999.716 999.716 999.716
          999.716 999.716 999.716 999.716 949.6 988.588 998.968 999.675 999.713 999.715 999.715 999.715
          999.715 999.715 999.715 999.715 999.715 999.715 999.715 999.715 999.715 999.715 999.715 999.715
          969.048 998.255 999.609 999.708 999.714 999.714 999.714 999.714 999.714 999.714 999.714 999.714
          999.714 999.714 999.714 999.714 999.714 999.714 999.714 999.714 997.73 999.567 999.704 999.713
          999.713 999.713 999.713 999.713 999.713 999.713 999.713 999.713 999.713 999.713 999.713 999.713
          999.713 999.713 999.713 999.713 999.586 999.702 999.711 999.712 999.712 999.712 999.712 999.712
          999.712 999.712 999.712 999.712 999.712 999.712 999.712 999.712 999.712 999.712 999.712 999.712
          999.705 999.711 999.711 999.711 999.711 999.711 999.711 999.711 999.711 999.711 999.711 999.711
          999.711 999.711 999.711 999.711 999.711 999.711 999.711 999.711 999.71 999.71 999.71 999.71
          999.71 999.71 999.71 999.71 999.71 999.71 999.71 999.71 999.71 999.71 999.71 999.71
          999.71 999.71 999.71 999.71 999.709 999.709 999.709 999.709 999.709 999.709 999.709 999.709
          999.709 999.709 999.709 999.709 999.709 999.709 999.709 999.709 999.709 999.709 999.709 999.709
          999.708 999.708 999.708 999.708 999.708 999.708 999.708 999.708 999.708 999.708 999.708 999.708
          999.708 999.708 999.708 999.708 999.708 999.708 999.708 999.708 999.708 999.708 999.708 999.708
          999.708 999.708 999.708 999.708 999.708 999.708 999.708 999.708 999.708 999.708 999.708 999.708
          999.708 999.708 999.708 999.708 999.707 999.707 999.707 999.707 999.707 999.707 999.707 999.707
          999.707 999.707 999.707 999.707 999.707 999.707 999.707 999.707 999.707 999.707 999.707 999.707
          999.706 999.706 999.706 999.706 999.706 999.706 999.706 999.706 999.706 999.706 999.706 999.706
          999.706 999.706 999.706 999.706 999.706 999.706 999.706 999.706 999.705 999.705 999.705 999.705
          999.705 999.705 999.705 999.705 999.705 999.705 999.705 999.705 999.705 999.705 999.705 999.705
          999.705 999.705 999.705 999.705 999.704 999.704 999.704 999.704 999.704 999.704 999.704 999.704
          999.704 999.704 999.704 999.704 999.704 999.704 999.704 999.704 999.704 999.704 999.704 999.704
          999.703 999.703 999.703 999.703 999.703 999.703 999.703 999.703 999.703 999.703 999.703 999.703
          999.703 999.703 999.703 999.703 999.703 999.703 999.703 999.703 999.702 999.702 999.702 999.702
          999.702 999.702 999.702 999.702 999.702 999.702 999.702 999.702 999.702 999.702 999.702 999.702
          999.702 999.702 999.702 999.702 999.701 999.701 999.701 999.701 999.701 999.701 999.701 999.701
          999.701 999.701 999.701 999.701 999.701 999.701 999.701 999.701 999.701 999.701 999.701 999.701
          999.7 999.7 999.7 999.7 999.7 999.7 999.7 999.7 999.7 999.7 999.7 999.7
          999.7 999.7 999.7 999.7 999.7 999.7 999.7 999.7 999.699 999.699 999.699 999.699
          999.699 999.699 999.699 999.699 999.699 999.699 999.699 999.699 999.699 999.699 999.699 999.699
          999.699 999.699 999.699 999.699 999.698 999.698 999.698 999.698 999.698 999.698 999.698 999.698
          999.698 999.698 999.698 999.698 999.698 999.698 999.698 999.698 999.698 999.698 999.698 999.698
          999.697 999.697 999.697 999.697 999.697 999.697 999.697 999.697 999.697 999.697 999.697 999.697
          999.697 999.697 999.697 999.697 999.697 999.697 999.697 999.697 999.696 999.696 999.696 999.696
          999.696 999.696 999.696 999.696 999.696 999.696 999.696 999.696 999.696 999.696 999.696 999.696
          999.696 999.696 999.696 999.696 999.695 999.695 999.695 999.695 999.695 999.695 999.695 999.695
          999.695 999.695 999.695 999.695 999.695 999.695 999.695 999.695 999.695 999.695 999.695 999.695
          999.694 999.694 999.694 999.694 999.694 999.694 999.694 999.694 999.694 999.694 999.694 999.694
          999.694 999.694 999.694 999.694 999.694 999.694 999.694 999.694 999.693 999.693 999.693 999.693
          999.693 999.693 999.693 999.693 999.693 999.693 999.693 999.693 999.693 999.693 999.693 999.693
          999.693 999.693 999.693 999.693 999.693 999.693 999.693 999.693 999.693 999.693 999.693 999.693
          999.693 999.693 999.693 999.693 999.693 999.693 999.693 999.693 999.693 999.693 999.693 999.693
          999.692 999.692 999.692 999.692 999.692 999.692 999.692 999.692 999.692 999.692 999.692 999.692
          999.692 999.692 999.692 999.692 999.692 999.692 999.692 999.692
        </DataArray>
        <DataArray type="Float32" Name="mob_liq" NumberOfComponents="1" format="ascii">
          764.38 764.38 764.38 764.38 764.38 764.38 764.38 764.38 764.38 764.38 764.38 764.38
          764.38 764.38 764.38 764.38 764.38 764.38 764.38 764.38 764.379 764.379 764.379 764.379
          764.379 764.379 764.379 764.379 764.379 764.379 764.379 764.379 764.379 764.379 764.379 764.379
          764.379 764.379 764.379 764.379 764.378 764.378 764.378 764.378 764.378 764.378 764.378 764.378
          764.378 764.378 764.378 764.378 764.378 764.378 764.378 764.378 764.378 764.378 764.378 764.378
          764.377 764.377 764.377 764.377 764.377 764.377 764.377 764.377 764.377 764.377 764.377 764.377
          764.377 764.377 764.377 764.377 764.377 764.377 764.377 764.377 764.376 764.376 764.376 764.376
          764.376 764.376 764.376 764.376 764.376 764.376 764.376 764.376 764.376 764.376 764.376 764.376
          764.376 764.376 764.376 764.376 764.375 764.375 764.375 764.375 764.375 764.375 764.375 764.375
          764.375 764.375 764.375 764.375 764.375 764.375 764.375 764.375 764.375 764.375 764.375 764.375
          764.374 764.373 764.373 764.373 764.373 764.374 764.374 764.374 764.374 764.374 764.374 764.374
          764.374 764.374 764.374 764.374 764.374 764.374 764.374 764.374 764.409 764.374 764.372 764.372
          764.372 764.372 764.372 764.372 764.373 764.373 764.373 764.373 764.373 764.373 764.373 764.373
          764.373 764.373 764.373 764.373 766.481 764.458 764.374 764.371 764.371 764.371 764.371 764.371
          764.372 764.372 764.372 764.372 764.372 764.372 764.372 764.372 764.372 764.372 764.372 764.372
          849.274 767.647 764.465 764.372 764.37 764.37 764.37 764.37 764.37 764.371 764.371 764.371
          764.371 764.371 764.371 764.371 764.371 764.371 764.371 764.371 3854.22 827.038 766.202 764.417
          764.37 764.369 764.369 764.369 764.369 764.37 764.37 764.37 764.37 764.37 764.37 764.37
          764.37 764.37 764.37 764.37 697.994 1046.06 776.311 764.727 764.377 764.368 764.368 764.368
          764.368 764.368 764.369 764.369 764.369 764.369 764.369 764.369 764.369 764.369 764.369 764.369
          364.869 1196.94 788.72 765.548 764.412 764.369 764.367 764.367 764.367 764.367 764.367 764.367
          764.367 764.368 764.368 764.368 764.368 764.368 764.368 764.368 244.573 1466.99 822.453 768.659
          764.585 764.375 764.367 764.366 764.366 764.366 764.367 764.367 764.367 764.367 764.367 764.367
          764.367 764.367 764.367 764.366 231.289 1793 898.306 777.411 765.146 764.4 764.367 764.366
          764.365 764.365 764.365 764.365 764.365 764.365 764.365 764.365 764.365 764.365 764.365 764.365
          2979.05 991.936 789.619 766.425 764.48 764.37 764.365 764.365 764.365 764.365 764.365 764.365
          764.364 764.364 764.364 764.364 764.364 764.364 764.364 764.364 1052.22 797.024 767.484 764.571
          764.374 764.364 764.364 764.364 764.364 764.364 764.363 764.363 764.363 764.363 764.363 764.363
          764.363 764.363 764.363 764.363 793.538 767.576 764.615 764.378 764.364 764.363 764.363 764.363
          764.363 764.362 764.362 764.362 764.362 764.362 764.362 764.362 764.362 764.362 764.362 764.362
          766.556 764.573 764.378 764.363 764.362 764.362 764.362 764.362 764.362 764.362 764.361 764.361
          764.361 764.361 764.361 764.361 764.361 764.361 764.361 764.361 764.475 764.372 764.362 764.361
          764.361 764.361 764.361 764.361 764.361 764.36 764.36 764.36 764.36 764.36 764.36 764.36
          764.36 764.36 764.36 764.36 764.365 764.361 764.36 764.36 764.36 764.36 764.36 764.36
          764.36 764.359 764.359 764.359 764.359 764.359 764.359 764.359 764.359 764.359 764.359 764.359
          764.359 764.359 764.359 764.359 764.359 764.359 764.359 764.359 764.359 764.358 764.358 764.358
          764.358 764.358 764.358 764.358 764.358 764.358 764.358 764.358 764.358 764.358 764.358 764.358
          764.358 764.358 764.358 764.358 764.357 764.357 764.357 764.357 764.357 764.357 764.357 764.357
          764.357 764.357 764.357 764.357 764.357 764.357 764.357 764.357 764.357 764.357 764.357 764.356
          764.356 764.356 764.356 764.356 764.356 764.356 764.356 764.356 764.356 764.356 764.356 764.356
          764.356 764.356 764.356 764.356 764.356 764.356 764.355 764.355 764.355 764.355 764.355 764.355
          764.355 764.355 764.355 764.355 764.355 764.355 764.355 764.355 764.355 764.355 764.355 764.355
          764.354 764.354 764.354 764.354 764.354 764.354 764.354 764.354 764.354 764.354 764.354 764.354
          764.354 764.354 764.354 764.354 764.354 764.353 764.353 764.353 764.353 764.353 764.353 764.353
          764.353 764.353 764.353 764.353 764.353 764.353 764.353 764.353 764.353 764.353 764.353 764.353
          764.352 764.352 764.352 764.352 764.352 764.352 764.352 764.352 764.352 764.352 764.352 764.352
          764.352 764.352 764.352 764.352 764.352 764.352 764.352 764.352 764.351 764.351 764.351 764.351
          764.351 764.351 764.351 764.351 764.351 764.351 764.351 764.351 764.351 764.351 764.351 764.351
          764.351 764.351 764.351 764.351 764.35 764.35 764.35 764.35 764.35 764.35 764.35 764.35
          764.35 764.35 764.35 764.35 764.35 764.35 764.35 764.35 764.35 764.35 764.35 764.35
          764.349 764.349 764.349 764.349 764.349 764.349 764.349 764.349 764.349 764.349 764.349 764.349
          764.349 764.349 764.349 764.349 764.349 764.349 764.349 764.349 764.348 764.348 764.348 764.348
          764.348 764.348 764.348 764.348 764.348 764.348 764.348 764.348 764.348 764.348 764.348 764.348
          764.348 764.348 764.348 764.348 764.347 764.347 764.347 764.347 764.347 764.347 764.347 764.347
          764.347 764.347 764.347 764.347 764.347 764.347 764.347 764.347 764.347 764.347 764.347 764.347
          764.346 764.346 764.346 764.346 764.346 764.346 764.346 764.346 764.346 764.346 764.346 764.346
          764.346 764.346 764.346 764.346 764.346 764.346 764.346 764.346 764.345 764.345 764.345 764.345
          764.345 764.345 764.345 764.345 764.345 764.345 764.345 764.345 764.345 764.345 764.345 764.345
          764.345 764.345 764.345 764.345 764.344 764.344 764.344 764.344 764.344 764.344 764.344 764.344
          764.344 764.344 764.344 764.344 764.344 764.344 764.344 764.344 764.344 764.344 764.344 764.344
          764.343 764.343 764.343 764.343 764.343 764.343 764.343 764.343 764.343 764.343 764.343 764.343
          764.343 764.343 764.343 764.343 764.343 764.342 764.342 764.342 764.342 764.342 764.342 764.342
          764.342 764.342 764.342 764.342 764.342 764.342 764.342 764.342 764.342 764.342 764.341 764.341
          764.341 764.341 764.341 764.341 764.341 764.341 764.341 764.341 764.341 764.341 764.341 764.341
          764.341 764.341 764.341 764.341 764.341 764.34 764.34 764.34 764.34 764.34 764.34 764.34
          764.34 764.34 764.34 764.34 764.34 764.34 764.34 764.34 764.34 764.339 764.339 764.339
          764.339 764.339 764.339 764.339 764.339 764.339 764.339 764.339
        </DataArray>
        <DataArray type="Float32" Name="S_gas" NumberOfComponents="1" format="ascii">
          0 0 0 0 0 0 0 0 0 0 0 0
          0 0 0 0 0 0 0 0 0 0 0 0
          0 0 0 0 0 0 0 0 0 0 0 0
          0 0 0 0 0 0 0 0 0 0 0 0
          0 0 0 0 0 0 0 0 0 0 0 0
          0 0 0 0 0 0 0 0 0 0 0 0
          0 0 0 0 0 0 0 0 0 0 0 0
          0 0 0 0 0 0 0 0 0 0 0 0
          0 0 0 0 0 0 0 0 0 0 0 0
          0 0 0 0 0 0 0 0 0 0 0 0
          0 0 0 0 0 0 0 0 0 0 0 0
          0 0 0 0 0 0 0 0 0 0 0 0
          0 0 0 0 0 0 0 0 0 0 0 0
          0 0 0 0 0 0 0 0 0 0 0 0
          0 0 0 0 0 0 0 0 0 0 0 0
          0 0 0 0 0 0 0 0 0 0 0 0
          0 0 0 0 0 0 0 0 0 0 0 0
          0 0 0 0 0 0 0 0 0 0 0 0
          0 0 0 0 0.156657 0 0 0 0 0 0 0
          0 0 0 0 0 0 0 0 0 0 0 0
          0.235981 0 0 0 0 0 0 0 0 0 0 0
          0 0 0 0 0 0 0 0 0.283438 0 0 0
          0 0 0 0 0 0 0 0 0 0 0 0
          0 0 0 0 0.289548 0 0 0 0 0 0 0
          0 0 0 0 0 0 0 0 0 0 0 0
          0 0 0 0 0 0 0 0 0 0 0 0
          0 0 0 0 0 0 0 0 0 0 0 0
          0 0 0 0 0 0 0 0 0 0 0 0
          0 0 0 0 0 0 0 0 0 0 0 0
          0 0 0 0 0 0 0 0 0 0 0 0
          0 0 0 0 0 0 0 0 0 0 0 0
          0 0 0 0 0 0 0 0 0 0 0 0
          0 0 0 0 0 0 0 0 0 0 0 0
          0 0 0 0 0 0 0 0 0 0 0 0
          0 0 0 0 0 0 0 0 0 0 0 0
          0 0 0 0 0 0 0 0 0 0 0 0
          0 0 0 0 0 0 0 0 0 0 0 0
          0 0 0 0 0 0 0 0 0 0 0 0
          0 0 0 0 0 0 0 0 0 0 0 0
          0 0 0 0 0 0 0 0 0 0 0 0
          0 0 0 0 0 0 0 0 0 0 0 0
          0 0 0 0 0 0 0 0 0 0 0 0
          0 0 0 0 0 0 0 0 0 0 0 0
          0 0 0 0 0 0 0 0 0 0 0 0
          0 0 0 0 0 0 0 0 0 0 0 0
          0 0 0 0 0 0 0 0 0 0 0 0
          0 0 0 0 0 0 0 0 0 0 0 0
          0 0 0 0 0 0 0 0 0 0 0 0
          0 0 0 0 0 0 0 0 0 0 0 0
          0 0 0 0 0 0 0 0 0 0 0 0
          0 0 0 0 0 0 0 0 0 0 0 0
          0 0 0 0 0 0 0 0 0 0 0 0
          0 0 0 0 0 0 0 0 0 0 0 0
          0 0 0 0 0 0 0 0 0 0 0 0
          0 0 0 0 0 0 0 0 0 0 0 0
          0 0 0 0 0 0 0 0 0 0 0 0
          0 0 0 0 0 0 0 0 0 0 0 0
          0 0 0 0 0 0 0 0 0 0 0 0
          0 0 0 0 0 0 0 0 0 0 0 0
          0 0 0 0 0 0 0 0 0 0 0 0
          0 0 0 0 0 0 0 0 0 0 0 0
          0 0 0 0 0 0 0 0 0 0 0 0
          0 0 0 0 0 0 0 0 0 0 0 0
          0 0 0 0 0 0 0 0 0 0 0 0
          0 0 0 0 0 0 0 0 0 0 0 0
          0 0 0 0 0 0 0 0 0 0 0 0
          0 0 0 0 0 0 0 0
        </DataArray>
        <DataArray type="Float32" Name="p_gas" NumberOfComponents="1" format="ascii">
          178887 178886 178885 178883 178881 178878 178874 178870 178865 178860 178855 178849
          178844 178838 178832 178826 178820 178814 178808 178802 176926 176926 176924 176922
          176920 176917 176913 176909 176904 176899 176894 176888 176882 176876 176870 176864
          176858 176852 176846 176840 174966 174966 174964 174962 174960 174956 174953 174948
          174943 174938 174933 174927 174921 174915 174909 174903 174897 174890 174884 174878
          173007 173006 173005 173003 173000 172997 172993 172988 172983 172978 172972 172966
          172960 172954 172948 172942 172935 172929 172922 172916 171048 171047 171046 171044
          171041 171037 171033 171028 171023 171018 171012 171006 170999 170993 170987 170980
          170974 170967 170961 170954 169089 169089 169088 169086 169083 169079 169074 169069
          169064 169058 169051 169045 169039 169032 169025 169019 169012 169006 168999 168992
          167132 167132 167131 167129 167125 167121 167116 167110 167104 167098 167091 167085
          167078 167071 167064 167058 167051 167044 167037 167030 165174 165175 165175 165173
          165169 165164 165158 165152 165145 165138 165131 165124 165117 165110 165103 165096
          165089 165082 165075 165068 163215 163220 163221 163218 163214 163208 163201 163194
          163186 163179 163171 163164 163157 163149 163142 163135 163128 163121 163114 163107
          161251 161268 161270 161266 161260 161252 161244 161236 161228 161220 161212 161204
          161196 161188 161181 161173 161166 161159 161152 161145 159320 159329 159325 159317
          159308 159298 159288 159278 159269 159260 159251 159243 159235 159227 159219 159212
          159204 159197 159190 159183 157680 157399 157384 157369 157355 157343 157331 157320
          157310 157300 157291 157282 157274 157266 157258 157250 157243 157235 157228 157221
          155861 155456 155440 155420 155402 155387 155373 155361 155350 155340 155330 155321
          155313 155304 155296 155289 155281 155273 155266 155259 153991 153505 153490 153467
          153446 153429 153414 153401 153390 153379 153369 153360 153351 153343 153334 153327
          153319 153311 153304 153297 152023 151553 151535 151510 151487 151469 151454 151440
          151428 151417 151407 151398 151389 151380 151372 151364 151357 151349 151342 151335
          149607 149598 149571 149546 149524 149506 149491 149477 149465 149455 149445 149435
          149426 149418 149410 149402 149395 149387 149380 149373 147654 147626 147599 147576
          147557 147541 147526 147513 147502 147491 147481 147472 147463 147455 147447 147440
          147432 147425 147418 147411 145657 145640 145621 145604 145587 145573 145560 145548
          145537 145527 145517 145509 145500 145492 145484 145477 145470 145463 145455 145448
          143664 143655 143642 143629 143616 143604 143592 143581 143571 143562 143553 143545
          143536 143529 143521 143514 143507 143500 143493 143486 141678 141673 141664 141655
          141644 141634 141624 141614 141605 141596 141588 141580 141572 141565 141558 141551
          141544 141537 141531 141524 139697 139694 139688 139680 139672 139664 139655 139647
          139638 139630 139623 139615 139608 139601 139594 139588 139581 139575 139568 139562
          137720 137717 137713 137707 137701 137694 137686 137679 137672 137664 137657 137650
          137644 137637 137631 137624 137618 137612 137606 137600 135744 135743 135739 135735
          135730 135724 135717 135711 135704 135698 135692 135685 135679 135673 135667 135661
          135655 135649 135644 135638 133771 133770 133767 133763 133759 133754 133749 133743
          133737 133732 133726 133720 133714 133709 133703 133697 133692 133687 133681 133676
          131799 131798 131796 131793 131789 131785 131780 131776 131770 131765 131760 131755
          131750 131744 131739 131734 131729 131724 131719 131714 129828 129827 129825 129823
          129820 129816 129812 129808 129804 129799 129794 129789 129785 129780 129775 129770
          129766 129761 129756 129751 127858 127857 127856 127854 127851 127848 127844 127841
          127837 127833 127829 127824 127820 127816 127811 127807 127802 127798 127794 127789
          125888 125888 125886 125885 125883 125880 125877 125874 125870 125867 125863 125859