<?xml version="1.0"?>
<VTKFile type="UnstructuredGrid" version="0.1" byte_order="LittleEndian">
  <UnstructuredGrid>
    <Piece NumberOfCells="8000" NumberOfPoints="9261">
      <PointData Vectors="d">
        <DataArray type="Float64" Name="d" NumberOfComponents="3" format="ascii">
          -0.785313670995073 -0.785299258963235 0 -0.792647230915642 -0.788270293762301 0 -0.788294192078232 -0.792634806200989 0 -0.792315464452823 -0.792292617959102 0
          -0.782855397548921 -0.782841245415907 0.0153033136344297 -0.790195319929988 -0.786380087514795 0.0112949667650229 -0.786403108868925 -0.790183133432985 0.0112959344445721 -0.790468618918053 -0.79044666906834 0.00724655357408995
          -0.798705092906624 -0.798089172324527 0 -0.79502095211311 -0.799938105738493 0 -0.796221483743242 -0.79580593612886 0.00724375982720504 -0.793214410936992 -0.797701035887061 0.00312211041344502
          -0.802393274351619 -0.814272067420195 0 -0.795344210514097 -0.814915587496523 0 -0.799851332758359 -0.811804765578312 0.00319491877275511 -0.793599358461146 -0.812495303540698 -0.00102164567858353
          -0.80280535370722 -0.83702218418955 0 -0.792423755148973 -0.837286740791728 0 -0.800173228946622 -0.83436427045178 -0.000826265202577846 -0.790764002777833 -0.834680410229155 -0.00515339903001373
          -0.799181731417938 -0.866340565826449 0 -0.78554820762445 -0.866938933157225 0 -0.796417517489544 -0.86346186374521 -0.00479845050715965 -0.783999304484736 -0.864119189378112 -0.00925101374875338
          -0.790883129564335 -0.902099209548316 0 -0.77412518716005 -0.903651351807384 0 -0.787930618383033 -0.898973271131796 -0.00869988927709711 -0.772716667969366 -0.900595368861448 -0.0132933163505134
          -0.777374063606933 -0.944065691056677 0 -0.75766162783865 -0.947113955988287 0 -0.774155355810657 -0.940660057053292 -0.0125067280612965 -0.756426553917905 -0.943795848273023 -0.0172578016891556
          -0.758214213214277 -0.991908394728774 0 -0.735751610105568 -0.996925716013583 0 -0.75461791184707 -0.98817450706223 -0.0161929036929585 -0.734724331646894 -0.993309906779675 -0.0211207111479166
          -0.733058238847133 -1.04520224800008 0 -0.708071443670702 -1.05259177253466 0 -0.728919975501368 -1.04106038021212 -0.0197308495530225 -0.707281384937532 -1.04862464482651 -0.0248583628163438
          -0.701665720259595 -1.1034360562111 0 -0.674382889796162 -1.11352048671605 0 -0.696734882578782 -1.09874961956372 -0.0230921055808527 -0.673840005242102 -1.10911754067973 -0.0284487589589786
          -0.663924349351535 -1.16602216224027 0 -0.634546594607451 -1.17902060928762 0 -0.657806414987377 -1.16055392972404 -0.0262470198431023 -0.634210603474035 -1.17404608717903 -0.0318726629541352
          -0.619891311895715 -1.23230913114334 0 -0.588549169836885 -1.24829815055732 0 -0.611948548720595 -1.22564958574073 -0.0291631231296184 -0.58826941098464 -1.24253367382782 -0.0351137485798403
          -0.56985985618357 -1.30159905779201 0 -0.536548757513263 -1.32045311439624 0 -0.559044230289103 -1.29305218260183 -0.031802038359574 -0.535954530679554 -1.31354841825767 -0.0381577197155082
          -0.514460420745329 -1.37317717227556 0 -0.478944962301289 -1.39448352281413 0 -0.499042542908555 -1.36158256478195 -0.0341135294627803 -0.47725881827564 -1.38587524358992 -0.0409891969756313
          -0.45480846185332 -1.44610985135554 0 -0.416475826368404 -1.46905394587904 0 -0.431961362995544 -1.42969753694415 -0.0360190078346113 -0.41222078230282 -1.45795130234632 -0.0435798916227767
          -0.392651961975715 -1.51580030346494 0 -0.350324529921233 -1.53905395235937 0 -0.357898190646388 -1.4919155276404 -0.0373810265367815 -0.340928786422154 -1.52428698157395 -0.045844326697606
          -0.330528536132046 -1.57694372156108 0 -0.282225352931975 -1.59867243732965 0 -0.277097512566076 -1.54201559101665 -0.0380819188853038 -0.263574517177071 -1.57865640194703 -0.0477135936807789
          -0.271611891598251 -1.62777711906036 0 -0.214322715540527 -1.64588105608369 0 -0.189941125308479 -1.57785052172944 -0.0381740387756198 -0.180455716638295 -1.61881131088442 -0.0492601155571006
          -0.218824027311568 -1.66659440743527 0 -0.148541694087779 -1.67983693670905 0 -0.0970298898198662 -1.59945755159775 -0.0377164955579894 -0.0921019154208503 -1.64429067547624 -0.0504203009995787
          -0.1727788739152 -1.69975312155503 0 -0.0853909084707795 -1.70748334450782 0 0 -1.61113546169218 -0.0395107865566931 0 -1.65643351653909 -0.0535520269685734
          -0.798123352396759 -0.79869474651293 0 -0.799971751180757 -0.794999289372066 0 -0.795839589452921 -0.796211324398255 0.00724529720277046 -0.797734140951335 -0.793193679542735 0.00312276202512908
          -0.800438026694184 -0.800405060091231 0 -0.798218953982628 -0.798186553648791 -0.0010691548949885 -0.798492143482479 -0.814035391209873 0 -0.796304377165377 -0.811620009548678 -0.00530894511480748
          -0.793317044961977 -0.83581312948904 0 -0.791169146813534 -0.833202299420178 -0.00956479466505165 -0.784247017262167 -0.865513680601684 0 -0.782146016756501 -0.86268039403975 -0.0138117339222292
          -0.770736705971334 -0.902826157874857 0 -0.76869052477376 -0.899747353620721 -0.0180262768700095 -0.752340108095969 -0.947367854762837 0 -0.750357234193792 -0.944018392353383 -0.0221839326735477
          -0.728696005439981 -0.998676114078491 0 -0.726783820488517 -0.995024175135654 -0.026259060334229 -0.699519764677098 -1.05619768148172 0 -0.697680633011387 -1.05220060963751 -0.0302261736447426
          -0.66460182975453 -1.11927677551353 0 -0.662824309007771 -1.11487661715202 -0.0340616830276596 -0.623813982811874 -1.18714209623284 0 -0.622054321567132 -1.18226081729956 -0.0377450449245124
          -0.577125289903188 -1.25889193757456 0 -0.575271270708526 -1.25342710736013 -0.0412586255472916 -0.524630195087034 -1.33347722042575 0 -0.522435557456344 -1.32729595660182 -0.0445860289639938
          -0.466590353248577 -1.40969193988308 0 -0.46356452401266 -1.40261271576664 -0.0477080781166723 -0.403490522739239 -1.48593999908836 0 -0.398726358081666 -1.47779756794733 -0.0505912700917682
          -0.336176318474015 -1.55674951577337 0 -0.328112720691536 -1.54730097845929 -0.0531009849438744 -0.265991563373625 -1.6159320459801 0 -0.252157068209816 -1.60481375822537 -0.0551034982528597
          -0.194650538784616 -1.66126578199855 0 -0.1715039372153 -1.64797086068588 -0.0566040979512645 -0.123869852579395 -1.69248762100921 0 -0.0870065697308159 -1.67591006017827 -0.0575448486285111
          -0.0547947118071148 -1.71522529070411 0 0 -1.68781160424505 -0.060076349222923 -0.81431756544892 -0.802385131642106 0 -0.814960938750653 -0.795323923706888 0
          -0.811849801855839 -0.799843279734444 0.00319692144964722 -0.812540191552317 -0.793580042207668 -0.00102044471328331 -0.814080438323522 -0.798460089262055 0 -0.811664569163001 -0.796272897693682 -0.00530837569049733
          -0.810681022200938 -0.810636550335613 0 -0.80828272782454 -0.80823873661945 -0.00967025918299526 -0.8039910390089 -0.831636065494046 0 -0.801612158729701 -0.829039906317321 -0.0140819308912406
          -0.793387580044575 -0.861125764771303 0 -0.791022257850297 -0.85830776217669 -0.0185185309190764 -0.778366309507049 -0.898708221745907 0 -0.776004203643846 -0.895648267410381 -0.0229548355746388
          -0.75852112774977 -0.94393335158136 0 -0.756146091016613 -0.940610606813809 -0.0273637805299517 -0.733528542336916 -0.996284867012244 0 -0.731115688145511 -0.992674478383305 -0.0317165794219913
          -0.70313717407525 -1.05516277346742 0 -0.700648451433848 -1.05123408431446 -0.0359841889474511 -0.667162485650404 -1.11986387057574 0 -0.664539518915668 -1.11558057305954 -0.0401393483301331
          -0.625486964629565 -1.18956113279046 0 -0.622638888104772 -1.18488477376447 -0.0441580655310713 -0.578066201234395 -1.26328165851737 0 -0.574849073356032 -1.25818115279803 -0.048019591691365
          -0.524941029547505 -1.33988363579569 0 -0.521124399235111 -1.33435012010863 -0.0517046525878795 -0.466254547195883 -1.41804482534405 0 -0.46146985799083 -1.41210222813564 -0.0551921307004676
          -0.402280740803941 -1.49602494724801 0 -0.395940591079435 -1.48983893150794 -0.0584491167048409 -0.333596823796207 -1.56808524772326 0 -0.324790553504163 -1.56188076722707 -0.0612928390533997
          -0.261255301072578 -1.62772689279784 0 -0.248647740093032 -1.62173140584896 -0.0635404454345315 -0.186657162611277 -1.67255593557633 0 -0.168416758294545 -1.66689308645017 -0.065186357329434
          -0.111323103044398 -1.70240292290672 0 -0.0851337627110785 -1.69622599487229 -0.0662869892439075 -0.0366031403449343 -1.72141575149429 0 0 -1.70766793925558 -0.0683376497819095
          -0.837079648608836 -0.802799580099353 0 -0.837344407215071 -0.792405067056865 0 -0.834421312108827 -0.80016739675037 -0.000823801021572311 -0.834737663369198 -0.790746335350782 -0.00515166603522069
          -0.835870824397214 -0.793286183347193 0 -0.833259552833458 -0.791138860958175 -0.00956366663650799 -0.831693473088743 -0.803947474411476 0 -0.82909688523872 -0.801569047815133 -0.0140813660543675
          -0.824082775104324 -0.824026045963272 0 -0.821503532711359 -0.821447190921717 -0.0186881449406185 -0.812455185498582 -0.853084747805724 0 -0.809882566381446 -0.85028987423486 -0.0233611904032096
          -0.796341419071554 -0.890644495374766 0 -0.793755874368123 -0.887620585762882 -0.0280747330812656 -0.775366739187849 -0.936194291551616 0 -0.772738350418956 -0.93292957468048 -0.0327996005311014
          -0.749234923967407 -0.989173215474796 0 -0.746519699871802 -0.985655018717444 -0.0375036765336685 -0.717716219401391 -1.04894694126634 0 -0.714851174540472 -1.04516122269038 -0.042153673210115
          -0.680639163194513 -1.11478174715769 0 -0.677535894799803 -1.11071537763194 -0.0467177075278058 -0.637885952524488 -1.18581805845725 0 -0.634422109284807 -1.18146554239989 -0.0511675083717303
          -0.58939086996157 -1.26104454905011 0 -0.58539900191553 -1.25642195950187 -0.0554789227732964 -0.535140703792249 -1.33927440935997 0 -0.530394672925972 -1.33443925559581 -0.0596303342391827
          -0.475175414264077 -1.41913640029713 0 -0.469374752245101 -1.41420427861555 -0.0636002623614562 -0.409601587418913 -1.49882677173047 0 -0.402345482097876 -1.49410237743353 -0.0673568211643324
          -0.338812626152946 -1.57239508609969 0 -0.329575018338141 -1.56826976592005 -0.0706559681254977 -0.26370730778035 -1.63305658987404 0 -0.251824306779473 -1.62994473127938 -0.0732482210085653
          -0.185550472230792 -1.67822980110714 0 -0.17018791168556 -1.67649045479458 -0.075120550116029 -0.10578951448209 -1.70757121210978 0 -0.0858517113726728 -1.70657600438183 -0.0763697376072572
          -0.0259365532595234 -1.72391517609209 0 0 -1.71756370336582 -0.078002136484572 -0.86641047484888 -0.799178541933751 0 -0.867009383827941 -0.785531367335767 0
          -0.86353139263691 -0.796414061623935 -0.00479549273540403 -0.864189281701923 -0.783983552586542 -0.00924873306885458 -0.865584482653431 -0.784217664709829 0 -0.862750803373577 -0.782117240187314 -0.0138100304369066
          -0.861196549467034 -0.793345304969359 0 -0.858378171390559 -0.790980395447988 -0.0185173805230102 -0.853155054497485 -0.81239959006074 0 -0.850359859768296 -0.809827295697983 -0.0233606012952893
          -0.840912238013513 -0.840842948287507 0 -0.83812900916374 -0.838059959248203 -0.0283197544286281 -0.824028437194604 -0.878120532195803 0 -0.821233451064731 -0.875124224722012 -0.0333695806974727
          -0.802152504279822 -0.923668169020532 0 -0.79930875099138 -0.920459033432125 -0.0384795732023237 -0.775005561520227 -0.976890577093073 0 -0.772059226645109 -0.973471284318941 -0.0436146036018702
          -0.742367931203599 -1.03713264101333 0 -0.739243731553358 -1.03350831396177 -0.0487369250817595 -0.704068857342041 -1.1036475784825 0 -0.700664570974427 -1.09982874875136 -0.053809379201836
          -0.659978337774471 -1.17556541328838 0 -0.656158834197231 -1.17157499158883 -0.0587986793491407 -0.61000016737173 -1.25186471685831 0 -0.605591924374214 -1.2477509127809 -0.0636769810334076
          -0.554064770245993 -1.33135060324614 0 -0.548853356990605 -1.32720284992025 -0.0684208183322357 -0.492120155733898 -1.41264972920536 0 -0.485853585022756 -1.40860930294375 -0.0730093144559556
          -0.424139243750698 -1.49394566211741 0 -0.416527580393381 -1.49035106746702 -0.0774113484339276 -0.350397565075724 -1.56910486166793 0 -0.341126336729303 -1.56634970909391 -0.0813063678874773
          -0.271743219987176 -1.63105923910452 0 -0.260504952097095 -1.6295282103513 -0.0843597427673023 -0.189426269721679 -1.67702588588326 0 -0.175908487936646 -1.6771037364208 -0.086548997570776
          -0.104902807434229 -1.70637238059381 0 -0.0886574611599737 -1.70761015171686 -0.0879812445696027 -0.0197970405398959 -1.72084581006815 0 0 -1.71822803847971 -0.0893219366949094
          -0.902181939741489 -0.790882793813976 0 -0.903734960193181 -0.774110468635545 0 -0.899055661645281 -0.787929732683132 -0.00869639912168828 -0.900678675291383 -0.772703128411459 -0.0132904650912934
          -0.902910440488774 -0.770709208771849 0 -0.8998312920369 -0.768663606956689 -0.0180239754663929 -0.898792750699911 -0.77832574985343 0 -0.895732473342494 -0.77596400227344 -0.0229530732691748
          -0.890728731053742 -0.796287471078747 0 -0.887704567084863 -0.79370216649261 -0.0280735239175656 -0.87820384209022 -0.823960776781435 0 -0.875207382009933 -0.82116592167249 -0.0333689558156776
          -0.860803357428974 -0.860721693730575 0 -0.857809702542056 -0.857728057937932 -0.0388158043402883 -0.838192689515897 -0.905961476311327 0 -0.835161370696946 -0.902783827709202 -0.0443833389527319
          -0.810101218691528 -0.959061591052872 0 -0.806973712448567 -0.955719238659461 -0.0500341720253524 -0.776308823758836 -1.01936040470369 0 -0.773004785896362 -1.01587796897877 -0.055726260492939
          -0.736634402583806 -1.08611587850782 0 -0.733047377429741 -1.08252621815312 -0.0614166451707966 -0.690925417805741 -1.1584688787365 0 -0.686918761441236 -1.15481891795808 -0.0670660709286243
          -0.63904742520215 -1.23541234423252 0 -0.634452024118788 -1.23177249704431 -0.0726423161703905 -0.580872245618485 -1.31577137199419 0 -0.57548937466197 -1.31224351374471 -0.078120182476235
          -0.516263569664741 -1.39820213722953 0 -0.509876175555251 -1.39491970562809 -0.0834799936171683 -0.445083748890166 -1.48090524212865 0 -0.437462607418393 -1.47819578595627 -0.0886911878449361
          -0.3675352110142 -1.55758200637718 0 -0.358465418445194 -1.55577031496314 -0.0933389943203273 -0.28448490625302 -1.62088113440679 0 -0.273816893311845 -1.62022467319791 -0.0969811796869976
          -0.197251061217743 -1.66781152864213 0 -0.184898885215284 -1.66862430626764 -0.0995800702354438 -0.107361231333398 -1.69742701736174 0 -0.0931693885461691 -1.69939933997753 -0.101236195850387
          -0.0165421702880542 -1.71059811199301 0 0 -1.70974519530918 -0.102393389062656 -0.944161544755219 -0.77737690775975 0 -0.94721101263634 -0.757649326132083 0
          -0.940755604638693 -0.774157265599932 -0.0125026769396791 -0.943892659186225 -0.756415549473005 -0.0172543668947586 -0.947465903163385 -0.752314835014122 0 -0.94411614342738 -0.750332551268723 -0.0221810210261632
          -0.944031900528726 -0.758482745087382 0 -0.940708883020839 -0.756107998589935 -0.0273613894984536 -0.936292714433536 -0.77531500374388 0 -0.933027809751442 -0.772686745419702 -0.0327977481183708
          -0.923765731771997 -0.802087152779484 0 -0.920556533471892 -0.799243390390569 -0.0384782927782924 -0.906057343731209 -0.838113475042044 0 -0.902879793316332 -0.835082006397178 -0.0443826751307881
          -0.882842983135964 -0.882749742706965 0 -0.879654918620441 -0.879561380630128 -0.0504815682537593 -0.853851508671732 -0.935365470021871 0 -0.85059195872115 -0.932056610406552 -0.056736710692116
          -0.818852200598493 -0.995306735100864 0 -0.815438931960616 -0.991920742672253 -0.0631025321402311 -0.777643210849182 -1.06185379693825 0 -0.77396961382777 -1.05844378070734 -0.0695300807820877
          -0.730040127878548 -1.13417874906404 0 -0.725972389172001 -1.13081190882747 -0.0759729900753359 -0.67586345923458 -1.21131065958514 0 -0.671239766714182 -1.20807355247359 -0.0823933220166058
          -0.614923962742997 -1.29211652469716 0 -0.609559237102485 -1.28911396308832 -0.0887636353206517 -0.547005374070098 -1.37530339398325 0 -0.540703994478238 -1.37264801325165 -0.0950658417566903
          -0.471873900717556 -1.45910503984249 0 -0.46443109184356 -1.45710643330876 -0.101270036139959 -0.389687147812452 -1.53707852350479 0 -0.380915465819766 -1.53597586960288 -0.1068470875274
          -0.301376019126938 -1.60160001107374 0 -0.29116460434236 -1.60149195589203 -0.11122118973956 -0.208382805461358 -1.64947025432031 0 -0.196700890064471 -1.65056640294086 -0.114332319497137
          -0.112354937248828 -1.67944833751521 0 -0.0991330912657962 -1.68153995025327 -0.11626877442265 -0.0151306313271957 -1.69170746268637 0 0 -1.69169714697399 -0.117331828001309
          -0.99201763106982 -0.758220622166284 0 -0.997036446702577 -0.735742035511705 0 -0.988283454943363 -0.754622863988939 -0.016188285639149 -0.993420444192618 -0.73471620441598 -0.0211167041883882
          -0.9987881302028 -0.728673339105836 0 -0.995135936830419 -0.726761767500247 -0.02625555075092 -0.996397610842222 -0.733492825035116 0 -0.992786995557855 -0.731080179289477 -0.0317135674562781
          -0.989285965585152 -0.749186009609757 0 -0.985767645877652 -0.746470777651191 -0.0375011813365713 -0.977002490744022 -0.774943259033799 0 -0.973583227314394 -0.771996738555094 -0.0436126585016353
          -0.959171713926851 -0.810025333515138 0 -0.955829582921421 -0.806897467754477 -0.0500328233298605 -0.935472740865798 -0.853761919140446 0 -0.932164335545515 -0.850501828446047 -0.0567360120641623
          -0.905624745811427 -0.905521492647435 0 -0.90228702419315 -0.90218303753373 -0.0636853380955422 -0.86937550613559 -0.964671143274033 0 -0.865924964083547 -0.961315487198254 -0.0708334573232898
          -0.826491204540489 -1.03052986334098 0 -0.822821775059071 -1.02722848029572 -0.0781260399104141 -0.776745562757171 -1.10232030747914 0 -0.772726378133952 -1.09915818987342 -0.0855085993512349
          -0.71990665447579 -1.17912785749989 0 -0.715381475802403 -1.17620494192972 -0.092935341436236 -0.655720519017429 -1.25987964633006 0 -0.650512228928672 -1.25730092029126 -0.10037502194492
          -0.583892316536344 -1.34334814130447 0 -0.577813390673532 -1.341204999135 -0.107811235635748 -0.504100568859733 -1.42780719140485 0 -0.496942800049696 -1.42640703085525 -0.115215223297538
          -0.416475729501164 -1.5067030573415 0 -0.408030809306582 -1.50621171621208 -0.121921060711363 -0.322042705136171 -1.5721702380152 0 -0.312166447292489 -1.57252811376575 -0.127189795326468
          -0.222408208288361 -1.62080668462239 0 -0.211026547298725 -1.62211790721066 -0.130930901711122 -0.119380026343234 -1.65111359649623 0 -0.106390506505764 -1.65323627892854 -0.133218910294675
          -0.0149286635326728 -1.66271845125844 0 0 -1.66326306673787 -0.134260166490044 -1.04532513498661 -0.733068661739816 0 -1.05271637751872 -0.70806491501318 0
          -1.04118296140205 -0.72892822535354 -0.0197256910010286 -1.04874909634693 -0.707276486500915 -0.0248538325151983 -1.05632381003275 -0.69950009177973 0 -1.05232651751329 -0.697661614233622 -0.0302221175467928
          -1.05528979746633 -0.703104627463128 0 -1.05136091969002 -0.700616017783715 -0.0359806047417052 -1.04907403439122 -0.717670769296466 0 -1.04528825310551 -0.714805545684292 -0.0421505780462081
          -1.03725884290652 -0.742309470660669 0 -1.03363463735006 -0.739184866941122 -0.0487343489123414 -1.01948463767902 -0.776237218390385 0 -1.01600255113515 -0.772932564628035 -0.0557242470124891
          -0.995427810311825 -0.818767372870193 0 -0.992042437221072 -0.815353270415937 -0.0631011366120434 -0.964787761734808 -0.869277537685631 0 -0.961433043549712 -0.865825929782813 -0.0708327382425394
          -0.927278076604656 -0.927167324413943 0 -0.923868418422152 -0.92375635261209 -0.0788730491143229 -0.882619315635362 -0.991808606290211 0 -0.87904827621112 -0.988526719991934 -0.0871644650955495
          -0.83053070069037 -1.06249210225238 0 -0.826668690746721 -1.0594409204812 -0.0956442801802941 -0.770718032138809 -1.13837877195208 0 -0.766410975080512 -1.13567146473325 -0.104256106007391
          -0.702856606768282 -1.21847251102074 0 -0.697928814220475 -1.21621601176304 -0.112961614757041 -0.626571542607552 -1.30162089081189 0 -0.620831505639548 -1.29989274108298 -0.121745386396177
          -0.541458415891757 -1.38613680737256 0 -0.534671600044955 -1.38527297397833 -0.130580796872616 -0.447632055421992 -1.46540844259486 0 -0.439533225216685 -1.46552928519927 -0.138640823061868
          -0.346232986062889 -1.53138752514985 0 -0.33659660344962 -1.53228956296516 -0.144990507909828 -0.239064825049973 -1.58047923184256 0 -0.227712112982604 -1.58217661720279 -0.149499561798264
          -0.128132563541097 -1.6109701096035 0 -0.114853880650805 -1.61335884922549 -0.152227023504791 -0.0155661502063069 -1.62207795047867 0 0 -1.62328504768357 -0.153307210650116
          -1.10357295485981 -0.701680682887173 0 -1.11365921310013 -0.674379728510303 0 -1.09888612382564 -0.696746676424675 -0.0230864711443663 -1.10925612357717 -0.673838682155879 -0.0284438020815682
          -1.11941716445258 -0.66458553043426 0 -1.11501680146045 -0.662808725146795 -0.0340571837421974 -1.12000521726542 -0.667133620989308 0 -1.11572175573166 -0.6645106575185 -0.0401352973396282
          -1.11492310443896 -0.68059784497239 0 -1.11085672359696 -0.677494190107997 -0.0467141176289467 -1.10378785278305 -0.704015075169486 0 -1.09996923287297 -0.700610118654298 -0.053806273421238
          -1.08625385930923 -0.736568089144678 0 -1.08266467641531 -0.73298013938379 -0.0614140585408946 -1.06198816806029 -0.777564334535117 0 -1.05857893989981 -0.773889555206734 -0.0695280616400738
          -1.03065920437376 -0.826399882407765 0 -1.02735897001253 -0.82272899519564 -0.0781246469995487 -0.991931388688444 -0.882515946571611 0 -0.988651073847567 -0.878943151743098 -0.0871637555347313
          -0.945462374068893 -0.945347789952622 0 -0.942093997256486 -0.941977343246224 -0.0965887976076997 -0.890899611270577 -1.01426816346515 0 -0.887313253049932 -1.01121800811018 -0.106330999961423
          -0.827872135434087 -1.08853139657237 0 -0.823912948386929 -1.0859295329052 -0.116321163060334 -0.755974670193236 -1.16723480844221 0 -0.751463012921452 -1.16519489371123 -0.126508209354134
          -0.674747873318876 -1.24930722905028 0 -0.669478184643457 -1.24790597991644 -0.136874801050144 -0.583706877806411 -1.33309052931519 0 -0.577397998740849 -1.33273595338024 -0.147398017835772
          -0.482958773516449 -1.41199143707175 0 -0.47525712164102 -1.41279651591717 -0.157064484192647 -0.373776148846482 -1.47787275426166 0 -0.364336306981089 -1.47950968187909 -0.164708040355949
          -0.25818797905814 -1.52696180789506 0 -0.246680232646046 -1.52937962712406 -0.170148172900059 -0.138432079643599 -1.55737819749036 0 -0.124484640540843 -1.56048686119942 -0.173422606525776
          -0.0168291945088864 -1.56806706712489 0 0 -1.57031361273406 -0.174595758753829 -1.16617364487118 -0.66394447799495 0 -1.17917386120281 -0.63454712184223 0
          -1.16070479467902 -0.657821964393443 -0.0262410105840448 -1.17419914730413 -0.634213174970153 -0.0318674285698225 -1.18729699981361 -0.623801420061003 0 -1.18241550402629 -0.622042551810068 -0.0377402646112274
          -1.18971689690731 -0.625462286757398 0 -1.18504038123958 -0.622614086811163 -0.0441537206780642 -1.18597358944121 -0.637849446202317 0 -1.18162110210117 -0.634384967416885 -0.0511636076930697
          -1.17571945541864 -0.659930102239793 0 -1.17172932434166 -0.656109609887993 -0.058795237103712 -1.15862006506626 -0.690865458210315 0 -1.15497070454715 -0.686857511973617 -0.0670631073905151
          -1.134325624479 -0.729968458722766 0 -1.13095973603462 -0.725899130210975 -0.0759705354402498 -1.10246133600919 -0.776662329966967 0 -1.09930057263049 -0.772641232140178 -0.0855066965482138
          -1.06262566321782 -0.830436327210528 0 -1.05957630608514 -0.826572047545917 -0.0956429821382551 -1.01439254250035 -0.890794970193138 0 -1.01134477043478 -0.887205956650894 -0.106330353371607
          -0.957314475635554 -0.957201090749853 0 -0.954137839942991 -0.954021406229288 -0.117499923172229 -0.89092195909871 -1.0290159091025 0 -0.88745983496161 -1.02639074728378 -0.129070895476854
          -0.814713214151487 -1.10544716222927 0 -0.810779017917623 -1.10350359344971 -0.140972129947338 -0.728136528021355 -1.18550962883958 0 -0.723503010379637 -1.18434162119027 -0.153176213565026
          -0.630627693487844 -1.26755265275171 0 -0.624947982597885 -1.2676976178608 -0.165665341350551 -0.522290875499654 -1.34510524909514 0 -0.515092565612142 -1.34671603483291 -0.17721541859068
          -0.404541754836626 -1.41007651171449 0 -0.395324626667824 -1.41272144189985 -0.18639360902092 -0.27965863001454 -1.45853665867231 0 -0.267902928190937 -1.46213094369945 -0.192957006627219
          -0.150146551401194 -1.48849470869086 0 -0.135273208796857 -1.49294291052157 -0.196907566448645 -0.0185534946740515 -1.49877828056822 0 0 -1.50264399454108 -0.198224174285428
          -1.23247612321127 -0.619917374699557 0 -1.24846662949418 -0.588553709558185 0 -1.2258154985124 -0.611967990211029 -0.0291568631746787 -1.24270181293494 -0.588276133030373 -0.0351084319825401
          -1.25906185864468 -0.577116800227946 0 -1.25359676394925 -0.57526364605017 -0.0412537806637283 -1.26345213325223 -0.578046194680141 0 -1.25835146713395 -0.574828791295641 -0.0480151919885142
          -1.26121429979772 -0.589359853074439 0 -1.25659177528032 -0.585367054241168 -0.0554749781476106 -1.2520322768451 -0.609958363747827 0 -1.247918840351 -0.605548757917847 -0.0636734998248342
          -1.23557614101111 -0.638994915958999 0 -1.23193700899348 -0.63439780204249 -0.0726393012335733 -1.21146906004837 -0.67580030231476 0 -1.20823305423092 -0.671174553650492 -0.082390775164437
          -1.17927919133927 -0.719833015737374 0 -1.17635781380282 -0.715305405246659 -0.092933270475825 -1.13852133774071 -0.77063433964854 0 -1.13581607896694 -0.766324425193884 -0.104254531070895
          -1.08866345420614 -0.827779265352091 0 -1.08606425133262 -0.823816746483576 -0.116320116623182 -1.02913566747364 -0.890821465142842 0 -1.02651390812186 -0.887355510450584 -0.129070401675288
          -0.959339070697829 -0.959233454752167 0 -0.956538460512766 -0.956428555517197 -0.142421896768059 -0.878648866355828 -1.0323464075415 0 -0.875476369599797 -1.03035065264787 -0.156280884810212
          -0.786407031148683 -1.10926741889398 0 -0.782609329845416 -1.10821508989399 -0.170593009683302 -0.681970099109811 -1.18831958409984 0 -0.677117270306898 -1.1889513310036 -0.185341852437819
          -0.565439820401416 -1.26328725475923 0 -0.558912665668243 -1.26585119673398 -0.199072234997354 -0.438376448208652 -1.32630808327796 0 -0.429493599922852 -1.3302841215171 -0.210053161534696
          -0.303321665490152 -1.37332553655869 0 -0.291350546599498 -1.37862912012903 -0.217960265742696 -0.163079376738159 -1.40230961508444 0 -0.147209519252542 -1.40882533622268 -0.222731592980339
          -0.020472899253574 -1.4121521446594 0 0 -1.41834997198684 -0.22423705596007 -1.30178299202835 -0.569892830031074 0 -1.3206379795785 -0.53655764927444 0
          -1.29323417670678 -0.559067559760307 -0.031795648045117 -1.31373264041925 -0.535965536937627 -0.0381525437514766 -1.33366308496398 -0.524626081782458 0 -1.32748147889595 -0.522432319665155 -0.0445813703655765
          -1.34006950932579 -0.524926141756994 0 -1.33453584689783 -0.521109039099438 -0.0517004837794845 -1.33945878517719 -0.535115830617995 0 -1.334623758398 -0.530368523339003 -0.0596266788404265
          -1.33153173235072 -0.554030279226431 0 -1.32738443911151 -0.548817076166581 -0.0684176899588314 -1.31594739237441 -0.580828296192105 0 -1.31242036130763 -0.575443237817993 -0.0781175724200373
          -1.29228554132958 -0.614870649560929 0 -1.28928420493683 -0.60950335107827 -0.0887615142064906 -1.26003978574574 -0.655658013657169 0 -1.25746273005569 -0.650446720612671 -0.100373347345354
          -1.21862195499643 -0.702785318955765 0 -1.21636764662449 -0.697854020851094 -0.112960342967707 -1.16737180620803 -0.755895439448966 0 -1.16533471289614 -0.751379698214548 -0.126507309705079
          -1.10557002434706 -0.814627548555508 0 -1.10363005167674 -0.81068864228333 -0.140971594311013 -1.03245349686495 -0.87855925562999 0 -1.03046227718583 -0.875381460446974 -0.156280698502849
          -0.947232761067502 -0.94714301234998 0 -0.944997799411068 -0.944902438312163 -0.172334480849396 -0.849114038674064 -1.01958266117603 0 -0.84635860969839 -1.01848091178202 -0.189037742160991
          -0.73736998121922 -1.09413586946281 0 -0.733570978630288 -1.09520855638725 -0.206350384832428 -0.612094409762068 -1.16500764248319 0 -0.606471095075462 -1.16865580796292 -0.22257112341958
          -0.474973622606219 -1.22479791186852 0 -0.466667349566982 -1.23040818106455 -0.235651586148982 -0.32880527186009 -1.26937992246872 0 -0.316900205739705 -1.27689349167305 -0.245133074558493
          -0.176728361410506 -1.29676420165503 0 -0.160224999136528 -1.30603672766304 -0.250860817857676 -0.0219156114767836 -1.30610141102612 0 0 -1.31531094200742 -0.252588548422782
          -1.37338022570739 -0.514501592553038 0 -1.39468663775419 -0.478958588112709 0 -1.36178211538739 -0.499069508700767 -0.0341070916459558 -1.3860771228434 -0.477274024766588 -0.0409843869689783