<?xml version="1.0"?>
<VTKFile type="UnstructuredGrid" version="0.1" byte_order="LittleEndian">
  <UnstructuredGrid>
    <Piece NumberOfCells="226" NumberOfPoints="266">
      <CellData Scalars="wetting potential">
        <DataArray type="Float32" Name="wetting potential" NumberOfComponents="1" format="ascii">
          100068 100204 100337 100456 100526 100444 100347 100249 100150 100051 100068 100205
          100340 100469 100564 100448 100348 100249 100150 100051 100068 100206 100345 100490
          100655 100578 100602 100927 100810 100614 100683 101391 101142 100565 100334 100604
          101086 100267 100135 100214 100426 100052 100067 100206 100349 100507 100794 100932
          101076 100975 100916 101402 101814 100887 100944 101368 100702 100589 100640 100509
          100262 100259 100427 100080 100064 100180 100318 100444 100265 100430 100678 101198
          100717 100820 100763 101188 101509 100855 100840 100856 100890 100903 100934 100909
          100894 100902 100810 100761 100875 100582 100501 100443 100530 100308 100087 100034
          100117 100129 100037 100328 100495 100397 100267 100834 101479 100375 100335 101932
          101434 100868 100671 100893 100872 100877 100888 100891 100851 100710 100640 100834
          100478 100396 100356 100426 100263 100083 100083 100275 100310 100341 100317 100293
          100472 101063 101677 100389 101351 101468 102671 102321 101498 101323 102317 102680
          101049 100506 100407 101683 100376 100323 100295 100334 100225 100075 100076 100225
          100277 100296 100283 100264 100326 102225 100296 100298 102843 103315 101284 100697
          103317 102848 100702 101285 102239 100329 100294 100285 100303 100273 100257 100283
          100197 100068 100069 100197 100262 100286 100292 100288 100281 100298 100317 100303
          100293 100312 100286 100281 100298 100281 100279 100273 100278 100255 100178 100063
          100066 100184 100253 100277 100285 100284 100275 100290 100297 100294 100289 100292
          100279 100278 100289 100276 100269 100267 100274 100244 100170 100060
        </DataArray>
        <DataArray type="Float32" Name="wetting saturation" NumberOfComponents="1" format="ascii">
          1 1 1 1 1 1 1 1 1 1 1 1
          1 1 0.999999 1 1 1 1 1 1 1 1 1
          0.990222 1 1 1 1 1 1 1 1 1 1 1
          1 1 1 1 1 1 1 1 1 0.999844 0.88112 0.931275
          0.489429 0.995237 0.999891 0.163995 0.186142 0.542697 0.693221 0.190146 0.149256 0.907917 0.627307 0.682254
          0.989389 0.999823 0.999746 1 1 1 1 1 1 1 1 1
          1 1 1 1 1 0.781064 0.845536 0.86573 0.745028 0.999589 0.999855 0.999852
          0.999663 0.926887 0.641052 0.636025 0.924263 0.778006 0.988773 0.990769 0.79854 1 1 0.999686
          0.997215 0.999686 0.999686 0.752422 0.204559 0.990548 0.999851 0.105423 0.155545 0.570014 0.672687 0.160964
          0.15027 0.669545 0.464231 0.728319 0.98878 0.999775 0.98202 0.99975 0.921573 0.629672 0.622022 0.929248
          0.810964 0.992197 0.994215 0.826667 1 1 1 1 0.995473 0.832879 0.872856 0.997996
          0.615589 1 1 0.611962 1 1 1 1 1 1 1 1
          1 0.611417 0.609335 1 0.848404 0.99651 0.998106 0.873369 1 1 1 1
          0.999089 0.904478 0.991534 0.999885 0.61018 0.116945 0.245646 0.798991 0.122353 0.121484 0.164217 0.154142
          0.121505 0.122403 0.154327 0.163959 0.117872 0.607702 0.794504 0.229135 0.903818 0.99909 0.999875 0.989814
          1 1 1 1 1 0.999924 0.93686 0.985975 0.999994 0.693109 0.505692 0.620616
          0.862137 0.504357 0.688588 0.85452 0.620704 0.928026 0.999842 0.999992 0.982379 1 1 1
          1 1 1 0.999995 0.991907 0.995835 0.999995 0.889002 0.611232 0.609716 0.911685 0.611162
          0.882453 0.906653 0.609685 0.989846 0.999994 0.999995 0.994833 1 1 1
        </DataArray>
      </CellData>
      <Points>
        <DataArray type="Float32" Name="Coordinates" NumberOfComponents="3" format="ascii">
          0 0 0 2 0 0 0 1 0 2 1 0
          4 0 0 4 1 0 6 0 0 6 1 0
          8 0 0 8 1 0 10 0 0 10 1 0
          12 0 0 12 1 0 14 0 0 14 1 0
          16 0 0 16 1 0 18 0 0 18 1 0
          20 0 0 20 1 0 0 2 0 2 2 0
          4 2 0 6 2 0 8 2 0 10 2 0
          12 2 0 14 2 0 16 2 0 18 2 0
          20 2 0 0 3 0 2 3 0 4 3 0
          6 3 0 8 3 0 10 3 0 11 2 0
          10 2.5 0 11 2.5 0 12 2.5 0 11 3 0
          12 3 0 13 2 0 13 2.5 0 14 2.5 0
          13 3 0 14 3 0 15 2 0 15 2.5 0
          16 2.5 0 15 3 0 16 3 0 17 2 0
          17 2.5 0 18 2.5 0 17 3 0 18 3 0
          20 3 0 0 4 0 2 4 0 4 4 0
          6 4 0 8 4 0 10 4 0 10 3.5 0
          11 3.5 0 12 3.5 0 11 4 0 12 4 0
          13 3.5 0 14 3.5 0 13 4 0 14 4 0
          15 3.5 0 16 3.5 0 15 4 0 16 4 0
          17 3.5 0 18 3.5 0 17 4 0 18 4 0
          20 4 0 0 5 0 2 5 0 3 4 0
          2 4.5 0 3 4.5 0 4 4.5 0 3 5 0
          4 5 0 5 4 0 5 4.5 0 6 4.5 0
          5 5 0 6 5 0 7 4 0 7 4.5 0
          8 4.5 0 7 5 0 8 5 0 9 4 0
          9 4.5 0 10 4.5 0 9 5 0 10 5 0
          11 4.5 0 12 4.5 0 11 5 0 12 5 0
          13 4.5 0 14 4.5 0 13 5 0 14 5 0
          15 4.5 0 16 4.5 0 15 5 0 16 5 0
          18 5 0 20 5 0 1 5 0 0 5.5 0
          1 5.5 0 2 5.5 0 1 6 0 2 6 0
          0 6 0 3 5.5 0 4 5.5 0 3 6 0
          4 6 0 5 5.5 0 6 5.5 0 5 6 0
          6 6 0 7 5.5 0 8 5.5 0 7 6 0
          8 6 0 9 5.5 0 10 5.5 0 9 6 0
          10 6 0 12 6 0 12 5.5 0 13 5.5 0
          14 5.5 0 13 6 0 14 6 0 15 5.5 0
          16 5.5 0 15 6 0 16 6 0 18 6 0
          20 6 0 0 7 0 2 7 0 4 7 0
          4 6.5 0 5 6.5 0 6 6.5 0 5 7 0
          6 7 0 7 6.5 0 8 6.5 0 7 7 0
          8 7 0 9 6.5 0 10 6.5 0 9 7 0
          10 7 0 11 6 0 11 6.5 0 12 6.5 0
          11 7 0 12 7 0 13 6.5 0 14 6.5 0
          13 7 0 14 7 0 15 6.5 0 16 6.5 0
          15 7 0 16 7 0 18 7 0 20 7 0
          0 8 0 2 8 0 4 8 0 4 7.5 0
          5 7.5 0 6 7.5 0 5 8 0 6 8 0
          7 7.5 0 8 7.5 0 7 8 0 8 8 0
          9 7.5 0 10 7.5 0 9 8 0 10 8 0
          11 7.5 0 12 7.5 0 11 8 0 12 8 0
          13 7.5 0 14 7.5 0 13 8 0 14 8 0
          15 7.5 0 16 7.5 0 15 8 0 16 8 0
          18 8 0 20 8 0 0 9 0 2 9 0
          4 9 0 6 9 0 6 8.5 0 7 8.5 0
          8 8.5 0 7 9 0 8 9 0 9 8.5 0
          10 8.5 0 9 9 0 10 9 0 11 8.5 0
          12 8.5 0 11 9 0 12 9 0 13 8.5 0
          14 8.5 0 13 9 0 14 9 0 16 9 0
          18 9 0 20 9 0 0 10 0 2 10 0
          4 10 0 6 10 0 6 9.5 0 7 9.5 0
          8 9.5 0 7 10 0 8 10 0 9 9.5 0
          10 9.5 0 9 10 0 10 10 0 11 9.5 0
          12 9.5 0 11 10 0 12 10 0 13 9.5 0
          14 9.5 0 13 10 0 14 10 0 16 10 0
          18 10 0 20 10 0
        </DataArray>
      </Points>
      <Cells>
        <DataArray type="Int32" Name="connectivity" NumberOfComponents="1" format="ascii">
          0 1 3 2 1 4 5 3 4 6 7 5
          6 8 9 7 8 10 11 9 10 12 13 11
          12 14 15 13 14 16 17 15 16 18 19 17
          18 20 21 19 2 3 23 22 3 5 24 23
          5 7 25 24 7 9 26 25 9 11 27 26
          11 13 28 27 13 15 29 28 15 17 30 29
          17 19 31 30 19 21 32 31 22 23 34 33
          23 24 35 34 24 25 36 35 25 26 37 36
          26 27 38 37 27 39 41 40 39 28 42 41
          41 42 44 43 40 41 43 38 28 45 46 42
          45 29 47 46 46 47 49 48 42 46 48 44
          29 50 51 47 50 30 52 51 51 52 54 53
          47 51 53 49 30 55 56 52 55 31 57 56
          56 57 59 58 52 56 58 54 31 32 60 59
          33 34 62 61 34 35 63 62 35 36 64 63
          36 37 65 64 37 38 66 65 38 43 68 67
          43 44 69 68 68 69 71 70 67 68 70 66
          44 48 72 69 48 49 73 72 72 73 75 74
          69 72 74 71 49 53 76 73 53 54 77 76
          76 77 79 78 73 76 78 75 54 58 80 77
          58 59 81 80 80 81 83 82 77 80 82 79
          59 60 84 83 61 62 86 85 62 87 89 88
          87 63 90 89 89 90 92 91 88 89 91 86
          63 93 94 90 93 64 95 94 94 95 97 96
          90 94 96 92 64 98 99 95 98 65 100 99
          99 100 102 101 95 99 101 97 65 103 104 100
          103 66 105 104 104 105 107 106 100 104 106 102
          66 70 108 105 70 71 109 108 108 109 111 110
          105 108 110 107 71 74 112 109 74 75 113 112
          112 113 115 114 109 112 114 111 75 78 116 113
          78 79 117 116 116 117 119 118 113 116 118 115
          79 83 120 119 83 84 121 120 85 122 124 123
          122 86 125 124 124 125 127 126 123 124 126 128
          86 91 129 125 91 92 130 129 129 130 132 131
          125 129 131 127 92 96 133 130 96 97 134 133
          133 134 136 135 130 133 135 132 97 101 137 134
          101 102 138 137 137 138 140 139 134 137 139 136
          102 106 141 138 106 107 142 141 141 142 144 143
          138 141 143 140 107 111 145 144 111 114 147 146
          114 115 148 147 147 148 150 149 146 147 149 145
          115 118 151 148 118 119 152 151 151 152 154 153
          148 151 153 150 119 120 155 154 120 121 156 155
          128 127 158 157 127 132 159 158 132 135 161 160
          135 136 162 161 161 162 164 163 160 161 163 159
          136 139 165 162 139 140 166 165 165 166 168 167
          162 165 167 164 140 143 169 166 143 144 170 169
          169 170 172 171 166 169 171 168 144 173 174 170
          173 145 175 174 174 175 177 176 170 174 176 172
          145 149 178 175 149 150 179 178 178 179 181 180
          175 178 180 177 150 153 182 179 153 154 183 182
          182 183 185 184 179 182 184 181 154 155 186 185
          155 156 187 186 157 158 189 188 158 159 190 189
          159 163 192 191 163 164 193 192 192 193 195 194
          191 192 194 190 164 167 196 193 167 168 197 196
          196 197 199 198 193 196 198 195 168 171 200 197
          171 172 201 200 200 201 203 202 197 200 202 199
          172 176 204 201 176 177 205 204 204 205 207 206
          201 204 206 203 177 180 208 205 180 181 209 208
          208 209 211 210 205 208 210 207 181 184 212 209
          184 185 213 212 212 213 215 214 209 212 214 211
          185 186 216 215 186 187 217 216 188 189 219 218
          189 190 220 219 190 195 221 220 195 198 223 222
          198 199 224 223 223 224 226 225 222 223 225 221
          199 202 227 224 202 203 228 227 227 228 230 229
          224 227 229 226 203 206 231 228 206 207 232 231
          231 232 234 233 228 231 233 230 207 210 235 232
          210 211 236 235 235 236 238 237 232 235 237 234
          211 215 239 238 215 216 240 239 216 217 241 240
          218 219 243 242 219 220 244 243 220 221 245 244
          221 225 247 246 225 226 248 247 247 248 250 249
          246 247 249 245 226 229 251 248 229 230 252 251
          251 252 254 253 248 251 253 250 230 233 255 252
          233 234 256 255 255 256 258 257 252 255 257 254
          234 237 259 256 237 238 260 259 259 260 262 261
          256 259 261 258 238 239 263 262 239 240 264 263
          240 241 265 264
        </DataArray>
        <DataArray type="Int32" Name="offsets" NumberOfComponents="1" format="ascii">
          4 8 12 16 20 24 28 32 36 40 44 48
          52 56 60 64 68 72 76 80 84 88 92 96
          100 104 108 112 116 120 124 128 132 136 140 144
          148 152 156 160 164 168 172 176 180 184 188 192
          196 200 204 208 212 216 220 224 228 232 236 240
          244 248 252 256 260 264 268 272 276 280 284 288
          292 296 300 304 308 312 316 320 324 328 332 336
          340 344 348 352 356 360 364 368 372 376 380 384
          388 392 396 400 404 408 412 416 420 424 428 432
          436 440 444 448 452 456 460 464 468 472 476 480
          484 488 492 496 500 504 508 512 516 520 524 528
          532 536 540 544 548 552 556 560 564 568 572 576
          580 584 588 592 596 600 604 608 612 616 620 624
          628 632 636 640 644 648 652 656 660 664 668 672
          676 680 684 688 692 696 700 704 708 712 716 720
          724 728 732 736 740 744 748 752 756 760 764 768
          772 776 780 784 788 792 796 800 804 808 812 816
          820 824 828 832 836 840 844 848 852 856 860 864
          868 872 876 880 884 888 892 896 900 904
        </DataArray>
        <DataArray type="UInt8" Name="types" NumberOfComponents="1" format="ascii">
          9 9 9 9 9 9 9 9 9 9 9 9
          9 9 9 9 9 9 9 9 9 9 9 9
          9 9 9 9 9 9 9 9 9 9 9 9
          9 9 9 9 9 9 9 9 9 9 9 9
          9 9 9 9 9 9 9 9 9 9 9 9
          9 9 9 9 9 9 9 9 9 9 9 9
          9 9 9 9 9 9 9 9 9 9 9 9
          9 9 9 9 9 9 9 9 9 9 9 9
          9 9 9 9 9 9 9 9 9 9 9 9
          9 9 9 9 9 9 9 9 9 9 9 9
          9 9 9 9 9 9 9 9 9 9 9 9
          9 9 9 9 9 9 9 9 9 9 9 9
          9 9 9 9 9 9 9 9 9 9 9 9
          9 9 9 9 9 9 9 9 9 9 9 9
          9 9 9 9 9 9 9 9 9 9 9 9
          9 9 9 9 9 9 9 9 9 9 9 9
          9 9 9 9 9 9 9 9 9 9 9 9
          9 9 9 9 9 9 9 9 9 9 9 9
          9 9 9 9 9 9 9 9 9 9
        </DataArray>
      </Cells>
    </Piece>
  </UnstructuredGrid>
</VTKFile>
