<?xml version="1.0"?>
<VTKFile type="PolyData" version="0.1" byte_order="LittleEndian">
  <PolyData>
    <Piece NumberOfLines="14" NumberOfPoints="15">
      <CellData Scalars="p">
        <DataArray type="Float32" Name="p" NumberOfComponents="1" format="ascii">
          100000 100000 100000 100000 100000 100000 100000 100000 100000 100000 100000 100000
          100000 100000
        </DataArray>
        <DataArray type="Float32" Name="rho" NumberOfComponents="1" format="ascii">
          969.801 972.031 974.214 976.332 978.383 980.365 982.274 984.109 985.867 987.546 989.141 990.65
          992.067 993.38
        </DataArray>
        <DataArray type="Float32" Name="mu" NumberOfComponents="1" format="ascii">
          0.000340691 0.000355893 0.000372438 0.00039036 0.000409807 0.000430954 0.000454006 0.000479199 0.000506805 0.000537146 0.000570596 0.000607598
          0.000648663 0.000694081
        </DataArray>
        <DataArray type="Float32" Name="x^H2O_liq" NumberOfComponents="1" format="ascii">
          0.999498 0.999499 0.999501 0.999503 0.999505 0.999508 0.99951 0.999512 0.999515 0.999517 0.999519 0.999521
          0.999523 0.999524
        </DataArray>
        <DataArray type="Float32" Name="x^N2_liq" NumberOfComponents="1" format="ascii">
          0.000501847 0.000500707 0.000499026 0.000497015 0.000494789 0.000492424 0.000489985 0.000487525 0.000485098 0.000482757 0.000480565 0.000478597
          0.000476964 0.000475866
        </DataArray>
        <DataArray type="Float32" Name="X^H2O_liq" NumberOfComponents="1" format="ascii">
          0.99922 0.999222 0.999224 0.999227 0.999231 0.999234 0.999238 0.999242 0.999246 0.99925 0.999253 0.999256
          0.999259 0.99926
        </DataArray>
        <DataArray type="Float32" Name="X^N2_liq" NumberOfComponents="1" format="ascii">
          0.000780149 0.000778378 0.000775765 0.00077264 0.00076918 0.000765505 0.000761714 0.000757891 0.000754118 0.000750481 0.000747074 0.000744016
          0.000741477 0.000739771
        </DataArray>
        <DataArray type="Float32" Name="T" NumberOfComponents="1" format="ascii">
          356.308 352.771 349.206 345.639 342.071 338.503 334.934 331.366 327.797 324.229 320.661 317.094
          313.529 309.993
        </DataArray>
        <DataArray type="Float32" Name="process rank" NumberOfComponents="1" format="ascii">
          0 0 0 0 0 0 0 0 0 0 0 0
          0 0
        </DataArray>
      </CellData>
      <Points>
        <DataArray type="Float32" Name="Coordinates" NumberOfComponents="3" format="ascii">
          0.5 0.25 0.25 0.5 0.285714 0.285714 0.5 0.321429 0.321429 0.5 0.357143 0.357143
          0.5 0.392857 0.392857 0.5 0.428571 0.428571 0.5 0.464286 0.464286 0.5 0.5 0.5
          0.5 0.535714 0.535714 0.5 0.571429 0.571429 0.5 0.607143 0.607143 0.5 0.642857 0.642857
          0.5 0.678571 0.678571 0.5 0.714286 0.714286 0.5 0.75 0.75
        </DataArray>
      </Points>
      <Lines>
        <DataArray type="Int32" Name="connectivity" NumberOfComponents="1" format="ascii">
          0 1 1 2 2 3 3 4 4 5 5 6
          6 7 7 8 8 9 9 10 10 11 11 12
          12 13 13 14
        </DataArray>
        <DataArray type="Int32" Name="offsets" NumberOfComponents="1" format="ascii">
          2 4 6 8 10 12 14 16 18 20 22 24
          26 28
        </DataArray>
      </Lines>
    </Piece>
  </PolyData>
</VTKFile>
