<?xml version="1.0"?>
<VTKFile type="UnstructuredGrid" version="0.1" byte_order="LittleEndian">
  <UnstructuredGrid>
    <Piece NumberOfCells="1536" NumberOfPoints="1617">
      <CellData Scalars="S_aq">
        <DataArray type="Float32" Name="S_aq" NumberOfComponents="1" format="ascii">
          1 1 1 1 1 1 1 1 1 1 1 1
          1 1 1 1 1 1 1 1 1 1 1 1
          1 1 1 1 1 1 1 1 1 1 1 1
          1 1 1 1 1 1 1 1 1 1 1 1
          1 1 1 1 1 1 1 1 1 1 1 1
          1 1 1 1 1 1 1 1 1 1 1 1
          1 1 1 1 1 1 1 1 1 1 1 1
          1 1 1 1 1 1 1 1 1 1 1 1
          1 1 1 1 1 1 1 1 1 1 1 1
          1 1 1 1 1 1 1 1 1 1 1 1
          1 1 1 1 1 1 1 1 1 1 1 1
          1 1 1 1 1 1 1 1 1 1 1 1
          1 1 1 1 1 1 1 1 1 1 1 1
          1 1 1 1 1 1 1 1 1 1 1 1
          1 1 1 1 1 1 1 1 1 1 1 1
          1 1 1 1 1 1 1 1 1 1 1 1
          1 1 1 1 1 1 1 1 1 1 1 1
          1 1 1 1 1 1 1 1 1 1 1 1
          1 1 1 1 1 1 1 1 1 1 1 1
          1 1 1 1 1 1 1 1 1 1 1 1
          1 1 1 1 1 1 1 1 1 1 1 1
          1 1 1 1 1 1 1 1 1 1 1 1
          1 1 1 1 1 1 1 1 1 1 1 1
          1 1 1 1 1 1 1 1 1 1 1 1
          1 1 1 1 1 1 1 1 1 1 1 1
          1 1 1 1 1 1 1 1 1 1 1 1
          1 1 1 1 1 1 1 1 1 1 1 1
          1 1 1 1 1 1 1 1 1 1 1 1
          1 1 1 1 1 1 1 1 1 1 1 1
          1 1 1 1 1 1 1 1 1 1 1 1
          1 1 1 1 1 1 1 1 1 1 1 1
          1 1 1 1 1 1 1 1 1 1 1 1
          1 1 1 1 1 1 1 1 1 1 1 1
          1 1 1 1 1 1 1 1 1 1 1 1
          1 1 1 1 1 1 1 1 1 1 1 1
          1 1 1 1 1 1 1 1 1 1 1 1
          1 1 1 1 1 1 1 1 1 1 1 1
          1 1 1 1 1 1 1 1 1 1 1 1
          1 1 1 1 1 1 1 1 1 1 1 1
          1 1 1 1 1 1 1 1 1 1 1 1
          1 1 1 1 1 1 1 1 1 1 1 1
          1 1 1 1 1 1 1 1 1 1 1 1
          1 1 1 1 1 1 1 1 1 1 1 1
          1 1 1 1 1 1 1 1 1 1 1 1
          1 1 1 1 1 1 1 1 1 1 1 1
          1 1 1 1 1 1 1 1 1 1 1 1
          1 1 1 1 1 1 1 1 1 1 1 1
          1 1 1 1 1 1 1 1 1 1 1 1
          1 1 1 1 1 1 1 1 1 1 1 1
          1 1 1 1 1 1 1 1 1 1 1 1
          1 1 1 1 1 1 1 1 1 1 1 1
          1 1 1 1 1 1 1 1 1 1 1 1
          1 1 1 1 1 1 1 1 1 1 1 1
          1 1 1 1 1 1 1 1 1 1 1 1
          1 1 1 1 1 1 1 1 1 1 1 1
          1 1 1 1 1 1 1 1 1 1 1 1
          1 1 1 1 1 1 1 1 1 1 1 1
          1 1 1 1 1 1 1 1 1 1 1 1
          1 1 1 1 1 1 1 1 1 1 1 1
          1 1 1 1 1 1 1 1 1 1 1 1
          1 1 1 1 1 1 1 1 1 1 1 1
          1 1 1 1 1 1 1 1 1 1 1 1
          1 1 1 1 1 1 1 1 1 1 1 1
          1 1 1 1 1 1 1 1 1 1 1 1
          1 1 1 1 1 1 1 1 1 1 1 1
          1 1 1 1 1 1 1 1 1 1 1 1
          1 1 1 1 1 1 1 1 1 1 1 1
          1 1 1 1 1 1 1 1 1 1 1 1
          1 1 1 1 1 1 1 1 1 1 1 1
          1 1 1 0.999989 0.997986 0.988163 0.976676 0.970435 0.971397 0.979589 0.991858 0.999319
          1 1 1 1 1 1 1 1 1 1 1 1
          1 1 1 1 1 1 1 1 1 1 1 1
          1 1 1 1 1 1 1 1 1 1 1 1
          1 0.998987 0.975036 0.944127 0.919043 0.892959 0.874576 0.865379 0.8668 0.878941 0.900295 0.928188
          0.953219 0.987624 0.999954 1 1 1 1 1 1 1 1 1
          1 1 1 1 1 1 1 1 1 1 1 1
          1 1 1 1 1 1 1 1 1 1 1 0.999537
          0.966788 0.925224 0.872123 0.818537 0.767601 0.730487 0.706343 0.694673 0.696556 0.712299 0.740939 0.783211
          0.837635 0.891974 0.940691 0.987179 1 1 1 1 1 1 1 1
          1 1 1 1 1 1 1 1 1 1 1 1
          1 1 1 1 1 1 1 1 1 1 0.985662 0.930711
          0.860287 0.777942 0.703025 0.641393 0.594517 0.562286 0.542141 0.532751 0.534339 0.547342 0.571732 0.609209
          0.662298 0.729903 0.811175 0.891216 0.950523 0.998931 1 1 1 1 1 1
          1 1 1 1 1 1 1 1 1 1 1 1
          1 1 1 1 1 1 1 1 0.999625 0.9553 0.889011 0.790369
          0.690954 0.60608 0.540863 0.492212 0.457087 0.433065 0.418178 0.411318 0.412513 0.422173 0.440408 0.468645
          0.509162 0.564576 0.638421 0.731241 0.835868 0.924779 0.988467 1 1 1 1 1
          1 1 1 1 1 1 1 1 1 1 1 1
          1 1 1 1 1 1 0.999928 0.999421 0.931938 0.846454 0.731233 0.622658
          0.5349 0.4678 0.417931 0.381396 0.355138 0.337071 0.325817 0.320631 0.321552 0.328919 0.342769 0.36409
          0.394564 0.436687 0.494034 0.570588 0.669458 0.784922 0.894895 0.965259 0.999878 0.999999 1 1
          1 1 1 1 1 1 1 1 1 1 1 1
          1 1 1 1 0.999999 0.999612 0.995996 0.990716 0.797494 0.686865 0.576195 0.485791
          0.416099 0.363318 0.323608 0.294065 0.272608 0.257776 0.24855 0.244347 0.24517 0.251281 0.262737 0.280297
          0.305199 0.3392 0.384785 0.445358 0.525176 0.627133 0.74808 0.863361 0.995134 0.998987 0.999988 1
          1 1 1 1 1 1 1 1 1 1 1 1
          1 1 1 0.999999 0.999294 0.992815 0.973283 0.948617 0.951921 0.935669 0.9204 0.906764
          0.894405 0.883115 0.872841 0.863724 0.85605 0.850126 0.846132 0.844148 0.844289 0.846648 0.851087 0.857539
          0.86583 0.875654 0.886735 0.898969 0.912444 0.927442 0.944271 0.962455 0.967308 0.988261 0.998028 0.99998
          1 1 1 1 1 1 1 1 1 1 1 1
          1 1 0.999999 0.999396 0.992027 0.964546 0.921794 0.877467 0.840059 0.80373 0.77142 0.742876
          0.71737 0.694447 0.674024 0.656348 0.641873 0.631014 0.623875 0.620396 0.620672 0.62489 0.632929 0.644897
          0.660714 0.679962 0.702208 0.727269 0.755341 0.787035 0.823163 0.863993 0.906422 0.951238 0.985727 0.998158
          0.99999 1 1 1 1 1 1 1 1 1 1 1
          1 1 0.99977 0.994217 0.968726 0.92086 0.865582 0.812868 0.766053 0.724513 0.687838 0.655237
          0.626019 0.599826 0.576672 0.556896 0.54104 0.529541 0.522247 0.51878 0.519063 0.52329 0.531556 0.544317
          0.561766 0.583441 0.608801 0.637555 0.669797 0.706038 0.747122 0.793898 0.846344 0.902779 0.955462 0.989831
          0.999173 0.999999 1 1 1 1 1 1 1 1 1 1
          1 0.999974 0.997396 0.980655 0.936343 0.877711 0.818478 0.76468 0.7174 0.675765 0.638729 0.605393
          0.57515 0.547749 0.523316 0.502356 0.485697 0.4741 0.467089 0.463858 0.464091 0.467967 0.475856 0.488682
          0.506979 0.529919 0.556648 0.586692 0.62002 0.657028 0.698501 0.745486 0.798887 0.858376 0.919499 0.970448
          0.995038 0.999858 1 1 1 1 1 1 1 1 1 1
          1 0.999589 0.992381 0.960382 0.904683 0.841909 0.782602 0.730097 0.684086 0.643296 0.606509 0.572803
          0.541601 0.512694 0.486294 0.463151 0.44468 0.432647 0.425904 0.422943 0.423115 0.426577 0.434063 0.447245
          0.467372 0.492518 0.521211 0.552729 0.586945 0.624211 0.665292 0.711311 0.763538 0.822646 0.886495 0.946642
          0.9869 0.998761 0.999997 1 1 1 1 1 1 1 1 1
          0.99999 0.998154 0.983732 0.940174 0.878559 0.814848 0.756708 0.705717 0.660855 0.620627 0.583732 0.549195
          0.516366 0.484957 0.455158 0.427926 0.405614 0.392858 0.38657 0.384021 0.384137 0.387045 0.393929 0.407752
          0.431803 0.461089 0.493175 0.527136 0.562879 0.600836 0.641849 0.687119 0.738101 0.796005 0.86019 0.924713
          0.975278 0.996346 0.999938 1 1 1 1 1 1 1 1 1
          0.999933 0.996281 0.975031 0.924484 0.860159 0.796584 0.739572 0.68965 0.645443 0.60533 0.567921 0.532108
          0.497032 0.462088 0.427076 0.392693 0.362096 0.348872 0.343638 0.341774 0.341843 0.343935 0.349613 0.363801
          0.396363 0.4329 0.4702 0.507637 0.545529 0.584634 0.626007 0.670989 0.721168 0.778042 0.841785 0.908051
          0.964565 0.993755 0.999752 1 1 1 1 1 1 1 1 1
          0.999853 0.994979 0.969491 0.915691 0.850407 0.78712 0.73076 0.681365 0.637404 0.597181 0.559219 0.522241
          0.485062 0.446445 0.404956 0.358871 0.30665 0.294863 0.29164 0.290717 0.290751 0.291795 0.295302 0.307874
          0.36253 0.410863 0.454615 0.49566 0.535576 0.575758 0.617586 0.662569 0.712395 0.768704 0.832017 0.898774
          0.957806 0.991771 0.999528 1 1 1 1 1 1 1 1 1
        </DataArray>
        <DataArray type="Float32" Name="p_aq" NumberOfComponents="1" format="ascii">
          100004 100011 100018 100025 100031 100038 100045 100051 100057 100063 100068 100074
          100078 100083 100087 100091 100094 100097 100099 100101 100102 100103 100103 100103
          100103 100102 100100 100099 100096 100094 100091 100087 100084 100080 100075 100071
          100066 100061 100056 100050 100045 100039 100033 100027 100021 100015 100009 100003
          100004 100011 100018 100025 100032 100038 100045 100051 100057 100063 100069 100074
          100079 100083 100087 100091 100094 100097 100099 100101 100103 100104 100104 100104
          100103 100102 100101 100099 100097 100094 100091 100088 100084 100080 100075 100071
          100066 100061 100056 100050 100045 100039 100033 100027 100021 100015 100009 100003
          100004 100011 100018 100025 100032 100039 100045 100052 100058 100064 100069 100075
          100079 100084 100088 100092 100095 100098 100100 100102 100104 100104 100105 100105
          100104 100103 100102 100100 100098 100095 100092 100088 100084 100080 100076 100071
          100066 100061 100056 100051 100045 100039 100033 100027 100021 100015 100009 100003
          100004 100011 100018 100025 100032 100039 100046 100052 100059 100065 100070 100076
          100081 100085 100089 100093 100097 100099 100102 100104 100105 100106 100106 100106
          100106 100105 100103 100101 100099 100096 100093 100089 100085 100081 100077 100072
          100067 100062 100057 100051 100045 100040 100034 100028 100022 100015 100009 100003
          100004 100011 100018 100026 100033 100040 100047 100053 100060 100066 100072 100077
          100082 100087 100091 100095 100098 100101 100104 100106 100107 100108 100108 100108
          100107 100106 100105 100103 100100 100097 100094 100091 100087 100082 100078 100073
          100068 100063 100057 100052 100046 100040 100034 100028 100022 100016 100009 100003
          100004 100011 100019 100026 100034 100041 100048 100054 100061 100067 100073 100079
          100084 100089 100093 100097 100101 100104 100106 100108 100109 100110 100111 100110
          100110 100109 100107 100105 100102 100099 100096 100092 100088 100084 100079 100074
          100069 100064 100058 100052 100047 100041 100035 100028 100022 100016 100010 100003
          100004 100012 100019 100027 100034 100042 100049 100056 100063 100069 100075 100081
          100086 100091 100096 100100 100103 100107 100109 100111 100112 100113 100114 100113
          100113 100111 100110 100107 100105 100102 100098 100094 100090 100085 100081 100076
          100070 100065 100059 100053 100047 100041 100035 100029 100023 100016 100010 100003
          100004 100012 100020 100028 100035 100043 100050 100058 100065 100071 100078 100083
          100089 100094 100099 100103 100107 100110 100113 100115 100116 100117 100117 100117
          100116 100115 100113 100110 100107 100104 100101 100097 100092 100087 100082 100077
          100072 100066 100060 100054 100048 100042 100036 100029 100023 100016 100010 100003
          100004 100012 100020 100029 100037 100044 100052 100059 100067 100074 100080 100086
          100092 100098 100102 100107 100111 100114 100117 100119 100120 100121 100121 100121
          100120 100118 100116 100114 100111 100107 100103 100099 100095 100090 100085 100079
          100074 100068 100062 100056 100049 100043 100036 100030 100023 100017 100010 100003
          100004 100013 100021 100030 100038 100046 100054 100062 100069 100076 100083 100090
          100096 100101 100107 100111 100115 100118 100121 100123 100125 100126 100126 100125
          100124 100123 100120 100118 100114 100111 100107 100102 100097 100092 100087 100081
          100075 100069 100063 100057 100050 100044 100037 100031 100024 100017 100010 100003
          100004 100013 100022 100031 100039 100048 100056 100064 100072 100079 100087 100093
          100100 100106 100111 100116 100120 100124 100127 100129 100130 100131 100131 100131
          100129 100128 100125 100122 100119 100115 100110 100106 100100 100095 100089 100084
          100077 100071 100065 100058 100052 100045 100038 100031 100024 100017 100010 100004
          100005 100014 100023 100032 100041 100050 100058 100067 100075 100083 100090 100098
          100104 100111 100116 100121 100126 100130 100133 100135 100136 100137 100137 100136
          100135 100133 100130 100127 100123 100119 100114 100109 100104 100098 100092 100086
          100080 100073 100067 100060 100053 100046 100039 100032 100025 100018 100011 100004
          100005 100014 100024 100033 100043 100052 100061 100070 100078 100087 100095 100102
          100109 100116 100122 100127 100132 100136 100139 100142 100143 100144 100144 100143
          100141 100139 100136 100132 100128 100124 100119 100113 100107 100101 100095 100089
          100082 100075 100068 100061 100054 100047 100040 100033 100026 100018 100011 100004
          100005 100015 100025 100035 100044 100054 100064 100073 100082 100091 100099 100107
          100115 100122 100128 100134 100139 100143 100147 100149 100151 100152 100151 100150
          100148 100146 100142 100138 100134 100129 100123 100118 100111 100105 100098 100092
          100085 100078 100070 100063 100056 100049 100041 100034 100026 100019 100011 100004
          100005 100016 100026 100036 100046 100056 100066 100076 100086 100095 100104 100113
          100121 100129 100136 100142 100147 100152 100155 100158 100159 100160 100160 100158
          100156 100153 100149 100145 100140 100134 100128 100122 100116 100109 100102 100095
          100087 100080 100072 100065 100057 100050 100042 100035 100027 100019 100012 100004
          100005 100016 100027 100038 100048 100059 100069 100080 100090 100100 100110 100119
          100128 100136 100143 100150 100156 100161 100165 100167 100169 100170 100169 100167
          100165 100161 100157 100152 100146 100140 100134 100127 100120 100113 100105 100098
          100090 100082 100075 100067 100059 100051 100043 100035 100028 100020 100012 100004
          100006 100017 100028 100039 100050 100061 100073 100084 100094 100105 100115 100125
          100135 100144 100152 100159 100166 100171 100175 100178 100180 100180 100179 100177
          100174 100170 100165 100160 100154 100147 100140 100132 100125 100117 100109 100101
          100093 100085 100077 100069 100061 100052 100044 100036 100028 100020 100012 100004
          100006 100017 100029 100041 100052 100064 100076 100087 100099 100110 100122 100132
          100143 100153 100162 100170 100177 100182 100187 100190 100192 100192 100191 100188
          100185 100180 100175 100168 100161 100154 100146 100138 100129 100121 100113 100104
          100096 100087 100079 100071 100062 100054 100045 100037 100029 100021 100012 100004
          100006 100018 100030 100042 100055 100067 100079 100091 100104 100116 100128 100140
          100151 100162 100172 100181 100189 100195 100201 100204 100206 100206 100204 100201
          100196 100191 100184 100177 100169 100161 100152 100143 100134 100125 100116 100107
          100099 100090 100081 100072 100064 100055 100047 100038 100030 100021 100013 100004
          100006 100019 100031 100044 100057 100069 100082 100095 100109 100122 100135 100148
          100160 100172 100184 100195 100204 100212 100219 100223 100224 100224 100221 100216
          100210 100203 100195 100187 100178 100168 100159 100149 100139 100130 100120 100111
          100101 100092 100083 100074 100065 100056 100048 100039 100030 100022 100013 100004
          100006 100019 100032 100045 100058 100072 100086 100099 100113 100128 100142 100156
          100171 100185 100199 100212 100224 100233 100240 100245 100246 100245 100242 100236
          100228 100218 100208 100197 100187 100176 100165 100155 100144 100134 100124 100114
          100104 100094 100085 100076 100067 100058 100049 100040 100031 100022 100013 100004
          100007 100020 100033 100047 100060 100074 100088 100103 100118 100134 100149 100166
          100184 100201 100217 100232 100245 100256 100264 100268 100270 100268 100264 100257
          100248 100236 100223 100210 100196 100184 100172 100160 100149 100138 100127 100117
          100106 100097 100087 100077 100068 100059 100050 100040 100031 100022 100013 100004
          100007 100020 100034 100048 100062 100076 100091 100106 100123 100140 100158 100178
          100198 100218 100236 100252 100266 100277 100285 100290 100292 100290 100285 100278
          100267 100254 100240 100224 100208 100193 100178 100165 100153 100141 100130 100119
          100109 100099 100089 100079 100069 100060 100050 100041 100032 100023 100014 100005
          100007 100020 100034 100048 100063 100078 100093 100109 100128 100147 100168 100190
          100211 100232 100251 100268 100283 100294 100303 100308 100310 100308 100303 100295
          100283 100270 100254 100238 100220 100202 100186 100170 100157 100144 100133 100121
          100111 100100 100090 100080 100070 100061 100051 100042 100032 100023 100014 100005
          100007 100021 100034 100049 100063 100078 100095 100113 100131 100151 100171 100192
          100213 100233 100252 100269 100283 100295 100303 100309 100310 100309 100304 100295
          100284 100271 100256 100240 100223 100206 100190 100174 100160 100147 100135 100123
          100112 100102 100091 100081 100071 100062 100052 100042 100033 100023 100014 100005
          100007 100021 100034 100049 100063 100079 100097 100117 100137 100158 100179 100200
          100221 100241 100260 100277 100292 100305 100314 100319 100321 100319 100314 100305
          100293 100280 100265 100248 100231 100214 100197 100181 100165 100149 100136 100125
          100114 100103 100092 100082 100072 100062 100052 100043 100033 100024 100014 100005
          100007 100020 100034 100048 100063 100081 100102 100123 100145 100167 100189 100211
          100233 100255 100275 100294 100311 100325 100336 100342 100344 100341 100334 100324
          100311 100296 100279 100261 100243 100225 100206 100188 100171 100154 100138 100126
          100114 100104 100093 100083 100073 100063 100053 100043 100034 100024 100014 100005
          100007 100020 100034 100048 100064 100084 100106 100129 100153 100177 100201 100224
          100248 100272 100295 100317 100336 100352 100364 100372 100373 100370 100361 100349
          100333 100315 100296 100276 100256 100236 100216 100196 100177 100158 100141 100127
          100115 100104 100094 100083 100073 100063 100053 100044 100034 100024 100014 100005
          100007 100020 100033 100048 100066 100088 100111 100136 100161 100186 100211 100237
          100263 100289 100314 100340 100363 100382 100397 100405 100407 100402 100391 100375
          100356 100335 100313 100290 100268 100247 100225 100204 100183 100163 100145 100128
          100115 100105 100094 100084 100074 100064 100054 100044 100034 100024 100015 100005
          100006 100019 100033 100048 100068 100091 100115 100141 100167 100193 100220 100247
          100275 100303 100332 100361 100389 100413 100430 100440 100442 100435 100422 100401
          100377 100352 100327 100302 100279 100255 100233 100210 100188 100167 100148 100130
          100116 100105 100094 100084 100074 100064 100054 100044 100034 100024 100015 100005
          100006 100019 100032 100049 100070 100093 100118 100145 100171 100198 100226 100254
          100283 100313 100345 100379 100413 100443 100464 100475 100477 100469 100452 100426
          100395 100365 100337 100311 100286 100261 100238 100214 100192 100170 100150 100131
          100116 100105 100095 100084 100074 100064 100054 100044 100034 100024 100015 100005
          100006 100019 100032 100050 100071 100095 100120 100147 100174 100201 100229 100258
          100287 100319 100352 100389 100434 100469 100493 100506 100508 100498 100478 100446
          100405 100372 100343 100315 100289 100264 100240 100217 100194 100172 100151 100132
          100117 100105 100095 100084 100074 100064 100054 100044 100034 100024 100015 100005
        </DataArray>
        <DataArray type="Float32" Name="rho_aq" NumberOfComponents="1" format="ascii">
          1000 1000 1000 1000 1000 1000 1000 1000 1000 1000 1000 1000
          1000 1000 1000 1000 1000 1000 1000 1000 1000 1000 1000 1000
          1000 1000 1000 1000 1000 1000 1000 1000 1000 1000 1000 1000
          1000 1000 1000 1000 1000 1000 1000 1000 1000 1000 1000 1000
          1000 1000 1000 1000 1000 1000 1000 1000 1000 1000 1000 1000
          1000 1000 1000 1000 1000 1000 1000 1000 1000 1000 1000 1000
          1000 1000 1000 1000 1000 1000 1000 1000 1000 1000 1000 1000
          1000 1000 1000 1000 1000 1000 1000 1000 1000 1000 1000 1000
          1000 1000 1000 1000 1000 1000 1000 1000 1000 1000 1000 1000
          1000 1000 1000 1000 1000 1000 1000 1000 1000 1000 1000 1000
          1000 1000 1000 1000 1000 1000 1000 1000 1000 1000 1000 1000
          1000 1000 1000 1000 1000 1000 1000 1000 1000 1000 1000 1000
          1000 1000 1000 1000 1000 1000 1000 1000 1000 1000 1000 1000
          1000 1000 1000 1000 1000 1000 1000 1000 1000 1000 1000 1000
          1000 1000 1000 1000 1000 1000 1000 1000 1000 1000 1000 1000
          1000 1000 1000 1000 1000 1000 1000 1000 1000 1000 1000 1000
          1000 1000 1000 1000 1000 1000 1000 1000 1000 1000 1000 1000
          1000 1000 1000 1000 1000 1000 1000 1000 1000 1000 1000 1000
          1000 1000 1000 1000 1000 1000 1000 1000 1000 1000 1000 1000
          1000 1000 1000 1000 1000 1000 1000 1000 1000 1000 1000 1000
          1000 1000 1000 1000 1000 1000 1000 1000 1000 1000 1000 1000
          1000 1000 1000 1000 1000 1000 1000 1000 1000 1000 1000 1000
          1000 1000 1000 1000 1000 1000 1000 1000 1000 1000 1000 1000
          1000 1000 1000 1000 1000 1000 1000 1000 1000 1000 1000 1000
          1000 1000 1000 1000 1000 1000 1000 1000 1000 1000 1000 1000
          1000 1000 1000 1000 1000 1000 1000 1000 1000 1000 1000 1000
          1000 1000 1000 1000 1000 1000 1000 1000 1000 1000 1000 1000
          1000 1000 1000 1000 1000 1000 1000 1000 1000 1000 1000 1000
          1000 1000 1000 1000 1000 1000 1000 1000 1000 1000 1000 1000
          1000 1000 1000 1000 1000 1000 1000 1000 1000 1000 1000 1000
          1000 1000 1000 1000 1000 1000 1000 1000 1000 1000 1000 1000
          1000 1000 1000 1000 1000 1000 1000 1000 1000 1000 1000 1000
          1000 1000 1000 1000 1000 1000 1000 1000 1000 1000 1000 1000
          1000 1000 1000 1000 1000 1000 1000 1000 1000 1000 1000 1000
          1000 1000 1000 1000 1000 1000 1000 1000 1000 1000 1000 1000
          1000 1000 1000 1000 1000 1000 1000 1000 1000 1000 1000 1000
          1000 1000 1000 1000 1000 1000 1000 1000 1000 1000 1000 1000
          1000 1000 1000 1000 1000 1000 1000 1000 1000 1000 1000 1000
          1000 1000 1000 1000 1000 1000 1000 1000 1000 1000 1000 1000
          1000 1000 1000 1000 1000 1000 1000 1000 1000 1000 1000 1000
          1000 1000 1000 1000 1000 1000 1000 1000 1000 1000 1000 1000
          1000 1000 1000 1000 1000 1000 1000 1000 1000 1000 1000 1000
          1000 1000 1000 1000 1000 1000 1000 1000 1000 1000 1000 1000
          1000 1000 1000 1000 1000 1000 1000 1000 1000 1000 1000 1000
          1000 1000 1000 1000 1000 1000 1000 1000 1000 1000 1000 1000
          1000 1000 1000 1000 1000 1000 1000 1000 1000 1000 1000 1000
          1000 1000 1000 1000 1000 1000 1000 1000 1000 1000 1000 1000
          1000 1000 1000 1000 1000 1000 1000 1000 1000 1000 1000 1000
          1000 1000 1000 1000 1000 1000 1000 1000 1000 1000 1000 1000
          1000 1000 1000 1000 1000 1000 1000 1000 1000 1000 1000 1000
          1000 1000 1000 1000 1000 1000 1000 1000 1000 1000 1000 1000
          1000 1000 1000 1000 1000 1000 1000 1000 1000 1000 1000 1000
          1000 1000 1000 1000 1000 1000 1000 1000 1000 1000 1000 1000
          1000 1000 1000 1000 1000 1000 1000 1000 1000 1000 1000 1000
          1000 1000 1000 1000 1000 1000 1000 1000 1000 1000 1000 1000
          1000 1000 1000 1000 1000 1000 1000 1000 1000 1000 1000 1000
          1000 1000 1000 1000 1000 1000 1000 1000 1000 1000 1000 1000
          1000 1000 1000 1000 1000 1000 1000 1000 1000 1000 1000 1000
          1000 1000 1000 1000 1000 1000 1000 1000 1000 1000 1000 1000
          1000 1000 1000 1000 1000 1000 1000 1000 1000 1000 1000 1000
          1000 1000 1000 1000 1000 1000 1000 1000 1000 1000 1000 1000
          1000 1000 1000 1000 1000 1000 1000 1000 1000 1000 1000 1000
          1000 1000 1000 1000 1000 1000 1000 1000 1000 1000 1000 1000
          1000 1000 1000 1000 1000 1000 1000 1000 1000 1000 1000 1000
          1000 1000 1000 1000 1000 1000 1000 1000 1000 1000 1000 1000
          1000 1000 1000 1000 1000 1000 1000 1000 1000 1000 1000 1000
          1000 1000 1000 1000 1000 1000 1000 1000 1000 1000 1000 1000
          1000 1000 1000 1000 1000 1000 1000 1000 1000 1000 1000 1000
          1000 1000 1000 1000 1000 1000 1000 1000 1000 1000 1000 1000
          1000 1000 1000 1000 1000 1000 1000 1000 1000 1000 1000 1000
          1000 1000 1000 1000 1000 1000 1000 1000 1000 1000 1000 1000
          1000 1000 1000 1000 1000 1000 1000 1000 1000 1000 1000 1000
          1000 1000 1000 1000 1000 1000 1000 1000 1000 1000 1000 1000
          1000 1000 1000 1000 1000 1000 1000 1000 1000 1000 1000 1000
          1000 1000 1000 1000 1000 1000 1000 1000 1000 1000 1000 1000
          1000 1000 1000 1000 1000 1000 1000 1000 1000 1000 1000 1000
          1000 1000 1000 1000 1000 1000 1000 1000 1000 1000 1000 1000
          1000 1000 1000 1000 1000 1000 1000 1000 1000 1000 1000 1000
          1000 1000 1000 1000 1000 1000 1000 1000 1000 1000 1000 1000
          1000 1000 1000 1000 1000 1000 1000 1000 1000 1000 1000 1000
          1000 1000 1000 1000 1000 1000 1000 1000 1000 1000 1000 1000
          1000 1000 1000 1000 1000 1000 1000 1000 1000 1000 1000 1000
          1000 1000 1000 1000 1000 1000 1000 1000 1000 1000 1000 1000
          1000 1000 1000 1000 1000 1000 1000 1000 1000 1000 1000 1000
          1000 1000 1000 1000 1000 1000 1000 1000 1000 1000 1000 1000
          1000 1000 1000 1000 1000 1000 1000 1000 1000 1000 1000 1000
          1000 1000 1000 1000 1000 1000 1000 1000 1000 1000 1000 1000
          1000 1000 1000 1000 1000 1000 1000 1000 1000 1000 1000 1000
          1000 1000 1000 1000 1000 1000 1000 1000 1000 1000 1000 1000
          1000 1000 1000 1000 1000 1000 1000 1000 1000 1000 1000 1000
          1000 1000 1000 1000 1000 1000 1000 1000 1000 1000 1000 1000
          1000 1000 1000 1000 1000 1000 1000 1000 1000 1000 1000 1000
          1000 1000 1000 1000 1000 1000 1000 1000 1000 1000 1000 1000
          1000 1000 1000 1000 1000 1000 1000 1000 1000 1000 1000 1000
          1000 1000 1000 1000 1000 1000 1000 1000 1000 1000 1000 1000
          1000 1000 1000 1000 1000 1000 1000 1000 1000 1000 1000 1000
          1000 1000 1000 1000 1000 1000 1000 1000 1000 1000 1000 1000
          1000 1000 1000 1000 1000 1000 1000 1000 1000 1000 1000 1000
          1000 1000 1000 1000 1000 1000 1000 1000 1000 1000 1000 1000
          1000 1000 1000 1000 1000 1000 1000 1000 1000 1000 1000 1000
          1000 1000 1000 1000 1000 1000 1000 1000 1000 1000 1000 1000
          1000 1000 1000 1000 1000 1000 1000 1000 1000 1000 1000 1000
          1000 1000 1000 1000 1000 1000 1000 1000 1000 1000 1000 1000
          1000 1000 1000 1000 1000 1000 1000 1000 1000 1000 1000 1000
          1000 1000 1000 1000 1000 1000 1000 1000 1000 1000 1000 1000
          1000 1000 1000 1000 1000 1000 1000 1000 1000 1000 1000 1000
          1000 1000 1000 1000 1000 1000 1000 1000 1000 1000 1000 1000
          1000 1000 1000 1000 1000 1000 1000 1000 1000 1000 1000 1000
          1000 1000 1000 1000 1000 1000 1000 1000 1000 1000 1000 1000
          1000 1000 1000 1000 1000 1000 1000 1000 1000 1000 1000 1000
          1000 1000 1000 1000 1000 1000 1000 1000 1000 1000 1000 1000
          1000 1000 1000 1000 1000 1000 1000 1000 1000 1000 1000 1000
          1000 1000 1000 1000 1000 1000 1000 1000 1000 1000 1000 1000
          1000 1000 1000 1000 1000 1000 1000 1000 1000 1000 1000 1000
          1000 1000 1000 1000 1000 1000 1000 1000 1000 1000 1000 1000
          1000 1000 1000 1000 1000 1000 1000 1000 1000 1000 1000 1000
          1000 1000 1000 1000 1000 1000 1000 1000 1000 1000 1000 1000
          1000 1000 1000 1000 1000 1000 1000 1000 1000 1000 1000 1000
          1000 1000 1000 1000 1000 1000 1000 1000 1000 1000 1000 1000
          1000 1000 1000 1000 1000 1000 1000 1000 1000 1000 1000 1000
          1000 1000 1000 1000 1000 1000 1000 1000 1000 1000 1000 1000
          1000 1000 1000 1000 1000 1000 1000 1000 1000 1000 1000 1000
          1000 1000 1000 1000 1000 1000 1000 1000 1000 1000 1000 1000
          1000 1000 1000 1000 1000 1000 1000 1000 1000 1000 1000 1000
          1000 1000 1000 1000 1000 1000 1000 1000 1000 1000 1000 1000
          1000 1000 1000 1000 1000 1000 1000 1000 1000 1000 1000 1000
          1000 1000 1000 1000 1000 1000 1000 1000 1000 1000 1000 1000
          1000 1000 1000 1000 1000 1000 1000 1000 1000 1000 1000 1000
        </DataArray>
        <DataArray type="Float32" Name="mob_aq" NumberOfComponents="1" format="ascii">
          1000 1000 1000 1000 1000 1000 1000 1000 1000 1000 1000 1000
          1000 1000 1000 1000 1000 1000 1000 1000 1000 1000 1000 1000
          1000 1000 1000 1000 1000 1000 1000 1000 1000 1000 1000 1000
          1000 1000 1000 1000 1000 1000 1000 1000 1000 1000 1000 1000
          1000 1000 1000 1000 1000 1000 1000 1000 1000 1000 1000 1000
          1000 1000 1000 1000 1000 1000 1000 1000 1000 1000 1000 1000
          1000 1000 1000 1000 1000 1000 1000 1000 1000 1000 1000 1000
          1000 1000 1000 1000 1000 1000 1000 1000 1000 1000 1000 1000
          1000 1000 1000 1000 1000 1000 1000 1000 1000 1000 1000 1000
          1000 1000 1000 1000 1000 1000 1000 1000 1000 1000 1000 1000
          1000 1000 1000 1000 1000 1000 1000 1000 1000 1000 1000 1000
          1000 1000 1000 1000 1000 1000 1000 1000 1000 1000 1000 1000
          1000 1000 1000 1000 1000 1000 1000 1000 1000 1000 1000 1000
          1000 1000 1000 1000 1000 1000 1000 1000 1000 1000 1000 1000