<?xml version="1.0"?>
<VTKFile type="UnstructuredGrid" version="0.1" byte_order="LittleEndian">
  <UnstructuredGrid>
    <Piece NumberOfCells="728" NumberOfPoints="783">
      <PointData Scalars="p">
        <DataArray type="Float32" Name="p" NumberOfComponents="1" format="ascii">
          100000 100000 100000 100000 100000 100000 100000 100000 100000 100000 100000 100000
          100000 100000 100000 100000 100000 100000 100000 100000 100000 100000 100000 100000
          100000 100000 100000 100000 100000 100000 100000 100000 100000 100000 100000 100000
          100000 100000 100000 100000 100000 100000 100000 100000 100000 100000 100000 100000
          100000 100000 100000 100000 100000 100000 100000 100000 100000 100000 100000 100000
          100000 100000 100000 100000 100000 100000 100000 100000 100000 100000 100000 100000
          100000 100000 100000 100000 100000 100000 100000 100000 100000 100000 100000 100000
          100000 100000 100000 100000 100000 100000 100000 100000 100000 100000 100000 100000
          100000 100000 100000 100000 100000 100000 100000 100000 100000 100000 100000 100000
          100000 100000 100000 100000 100000 100000 100000 100000 100000 100000 100000 100000
          100000 100000 100000 100000 100000 100000 100000 100000 100000 100000 100000 100000
          100000 100000 100000 100000 100000 100000 100000 100000 100000 100000 100000 100000
          100000 100000 100000 100000 100000 100000 100000 100000 100000 100000 100000 100000
          100000 100000 100000 100000 100000 100000 100000 100000 100000 100000 100000 100000
          100000 100000 100000 100000 100000 100000 100000 100000 100000 100000 100000 100000
          100000 100000 100000 100000 100000 100000 100000 100000 100000 100000 100000 100000
          100000 100000 100000 100000 100000 100000 100000 100000 100000 100000 100000 100000
          100000 100000 100000 100000 100000 100000 100000 100000 100000 100000 100000 100000
          100000 100000 100000 100000 100000 100000 100000 100000 100000 100000 100000 100000
          100000 100000 100000 100000 100000 100000 100000 100000 100000 100000 100000 100000
          100000 100000 100000 100000 100000 100000 100000 100000 100000 100000 100000 100000
          100000 100000 100000 100000 100000 100000 100000 100000 100000 100000 100000 100000
          100000 100000 100000 100000 100000 100000 100000 100000 100000 100000 100000 100000
          100000 100000 100000 100000 100000 100000 100000 100000 100000 100000 100000 100000
          100000 100000 100000 100000 100000 100000 100000 100000 100000 100000 100000 100000
          100000 100000 100000 100000 100000 100000 100000 100000 100000 100000 100000 100000
          100000 100000 100000 100000 100000 100000 100000 100000 100000 100000 100000 100000
          100000 100000 100000 100000 100000 100000 100000 100000 100000 100000 100000 100000
          100000 100000 100000 100000 100000 100000 100000 100000 100000 100000 100000 100000
          100000 100000 100000 100000 100000 100000 100000 100000 100000 100000 100000 100000
          100000 100000 100000 100000 100000 100000 100000 100000 100000 100000 100000 100000
          100000 100000 100000 100000 100000 100000 100000 100000 100000 100000 100000 100000
          100000 100000 100000 100000 100000 100000 100000 100000 100000 100000 100000 100000
          100000 100000 100000 100000 100000 100000 100000 100000 100000 100000 100000 100000
          100000 100000 100000 100000 100000 100000 100000 100000 100000 100000 100000 100000
          100000 100000 100000 100000 100000 100000 100000 100000 100000 100000 100000 100000
          100000 100000 100000 100000 100000 100000 100000 100000 100000 100000 100000 100000
          100000 100000 100000 100000 100000 100000 100000 100000 100000 100000 100000 100000
          100000 100000 100000 100000 100000 100000 100000 100000 100000 100000 100000 100000
          100000 100000 100000 100000 100000 100000 100000 100000 100000 100000 100000 100000
          100000 100000 100000 100000 100000 100000 100000 100000 100000 100000 100000 100000
          100000 100000 100000 100000 100000 100000 100000 100000 100000 100000 100000 100000
          100000 100000 100000 100000 100000 100000 100000 100000 100000 100000 100000 100000
          100000 100000 100000 100000 100000 100000 100000 100000 100000 100000 100000 100000
          100000 100000 100000 100000 100000 100000 100000 100000 100000 100000 100000 100000
          100000 100000 100000 100000 100000 100000 100000 100000 100000 100000 100000 100000
          100000 100000 100000 100000 100000 100000 100000 100000 100000 100000 100000 100000
          100000 100000 100000 100000 100000 100000 100000 100000 100000 100000 100000 100000
          100000 100000 100000 100000 100000 100000 100000 100000 100000 100000 100000 100000
          100000 100000 100000 100000 100000 100000 100000 100000 100000 100000 100000 100000
          100000 100000 100000 100000 100000 100000 100000 100000 100000 100000 100000 100000
          100000 100000 100000 100000 100000 100000 100000 100000 100000 100000 100000 100000
          100000 100000 100000 100000 100000 100000 100000 100000 100000 100000 100000 100000
          100000 100000 100000 100000 100000 100000 100000 100000 100000 100000 100000 100000
          100000 100000 100000 100000 100000 100000 100000 100000 100000 100000 100000 100000
          100000 100000 100000 100000 100000 100000 100000 100000 100000 100000 100000 100000
          100000 100000 100000 100000 100000 100000 100000 100000 100000 100000 100000 100000
          100000 100000 100000 100000 100000 100000 100000 100000 100000 100000 100000 100000
          100000 100000 100000 100000 100000 100000 100000 100000 100000 100000 100000 100000
          100000 100000 100000 100000 100000 100000 100000 100000 100000 100000 100000 100000
          100000 100000 100000 100000 100000 100000 100000 100000 100000 100000 100000 100000
          100000 100000 100000 100000 100000 100000 100000 100000 100000 100000 100000 100000
          100000 100000 100000 100000 100000 100000 100000 100000 100000 100000 100000 100000
          100000 100000 100000 100000 100000 100000 100000 100000 100000 100000 100000 100000
          100000 100000 100000 100000 100000 100000 100000 100000 100000 100000 100000 100000
          100000 100000 100000
        </DataArray>
        <DataArray type="Float32" Name="rho" NumberOfComponents="1" format="ascii">
          950.926 950.926 954.077 954.077 950.926 954.077 957.144 957.144 957.144 950.926 954.077 950.926
          954.077 957.144 957.145 960.134 960.134 960.134 960.134 960.134 950.926 954.077 957.145 950.926
          954.077 950.926 954.077 957.145 957.145 960.135 960.135 960.135 963.045 963.045 963.045 965.875
          965.875 965.875 963.045 963.045 965.875 965.876 968.624 968.624 968.624 968.624 968.624 963.046
          965.876 963.046 963.047 965.877 965.877 968.625 968.625 968.626 950.926 954.077 950.926 954.078
          957.146 957.146 950.926 954.078 950.926 954.078 957.146 957.146 960.136 960.136 960.137 960.137
          950.926 954.078 957.147 950.926 954.078 950.926 954.078 957.147 957.147 960.138 960.138 960.138
          963.047 963.048 965.878 965.879 963.049 963.05 965.88 965.882 968.627 968.628 968.629 968.631
          963.051 965.884 963.051 963.052 965.886 965.886 968.634 968.638 968.65 970.908 970.908 970.909
          973.129 973.129 973.129 970.909 970.909 973.129 973.129 975.284 975.284 975.284 975.284 975.284
          970.909 973.13 970.91 970.91 973.13 973.131 975.284 975.285 975.285 977.371 977.371 977.371
          979.389 979.389 979.389 977.371 977.372 979.389 979.389 981.336 981.336 981.336 983.209 983.209
          983.209 981.336 981.336 983.209 983.209 977.372 979.389 977.372 977.372 979.389 979.39 981.336
          983.209 981.336 981.336 983.209 983.209 970.911 970.912 973.131 973.132 970.913 970.915 973.133
          973.134 975.286 975.286 975.287 975.287 970.917 973.135 970.919 970.92 973.136 973.136 975.288
          975.288 975.288 977.372 977.373 979.39 979.39 977.373 977.374 979.39 979.39 981.336 981.336
          983.209 983.209 981.336 981.336 983.209 983.209 977.374 979.391 977.374 977.374 979.391 979.391
          981.336 983.209 981.336 981.336 983.209 983.209 950.926 954.078 950.926 954.078 957.147 957.147
          950.926 954.078 950.926 954.078 957.146 957.146 960.138 960.138 960.137 950.926 954.078 957.146
          950.926 954.077 950.926 954.077 957.146 957.145 960.137 960.136 960.136 960.135 963.051 963.051
          965.886 965.884 963.05 963.049 965.882 968.638 968.634 968.631 963.048 965.88 965.879 963.047
          963.047 965.878 965.877 968.629 968.628 968.627 968.626 950.926 954.077 950.926 954.077 957.145
          957.145 950.926 954.077 957.145 960.135 960.135 960.134 950.926 954.077 950.926 954.077 957.144
          957.144 950.926 954.077 950.926 954.077 957.144 957.144 960.134 960.134 960.134 960.134 963.046
          963.046 965.877 965.876 963.045 963.045 965.876 965.875 968.625 968.625 968.624 968.624 963.045
          965.875 963.045 963.045 965.875 965.875 968.624 968.624 968.624 970.919 970.917 973.136 973.135
          970.915 973.134 970.913 973.133 975.288 975.288 975.287 970.912 973.132 970.911 970.91 973.131
          973.131 975.287 975.286 975.286 975.285 977.374 977.374 979.391 979.391 977.374 979.39 977.373
          979.39 981.336 981.336 983.209 983.209 981.336 981.336 983.209 977.373 979.39 977.372 977.372
          979.39 979.39 981.336 983.209 983.209 981.336 981.336 983.209 983.209 970.91 970.909 973.13
          973.13 970.909 970.909 973.129 973.129 975.285 975.284 975.284 975.284 970.909 973.129 970.908
          970.908 973.129 973.129 975.284 975.284 975.284 977.372 977.372 979.389 979.389 977.372 977.371
          979.389 981.336 981.336 983.209 983.209 981.336 983.209 977.371 979.389 979.389 977.371 977.371
          979.389 979.389 981.336 981.336 983.209 983.209 981.336 981.336 983.209 983.209 985.007 985.007
          985.007 986.727 986.727 986.726 985.007 985.007 986.726 986.726 988.365 988.365 988.365 988.365
          988.364 985.007 986.726 985.007 985.007 986.726 986.726 988.364 988.364 988.364 989.918 989.918
          989.918 991.383 991.383 991.383 989.918 989.918 991.383 991.383 992.756 992.756 992.756 994.032
          994.032 994.032 992.756 992.756 994.032 994.032 989.918 991.383 989.918 989.917 991.383 991.382
          992.756 994.032 992.755 992.755 994.031 994.031 985.007 985.007 986.726 986.726 985.006 985.006
          986.725 986.725 988.364 988.363 988.363 988.363 985.006 986.725 985.006 985.006 986.725 986.725
          988.363 988.362 988.362 989.917 989.917 991.382 991.382 989.916 989.916 991.381 991.38 992.755
          992.754 994.031 994.03 992.754 992.753 994.029 994.028 989.915 991.38 989.915 989.915 991.379
          991.379 992.752 994.027 992.75 992.75 994.025 994.019 995.385 995.385 995.385 995.385 995.385
          996.592 996.592 996.592 997.643 997.643 997.643 996.592 996.592 997.643 997.643 995.385 995.385
          995.384 996.592 996.592 996.592 997.643 997.642 997.642 998.524 998.524 998.524 999.221 999.221
          999.221 998.524 998.524 999.221 999.221 999.689 999.689 999.689 999.689 999.689 998.524 999.221
          998.524 998.524 999.221 999.221 999.689 999.689 999.689 995.384 995.383 995.383 995.382 996.591
          996.591 997.642 997.642 996.591 996.59 997.642 997.642 995.381 995.38 995.38 996.59 997.641
          996.59 996.59 997.641 997.641 998.524 998.524 999.221 999.221 998.524 998.523 999.221 999.221
          999.689 999.689 999.689 999.689 998.523 999.221 998.523 998.523 999.221 999.221 999.689 999.689
          999.689 985.006 985.006 986.725 986.725 985.006 986.725 988.362 988.363 988.363 985.006 985.007
          986.725 986.726 985.007 985.007 986.726 986.726 988.363 988.363 988.364 988.364 989.915 989.915
          991.379 991.38 989.916 991.38 992.75 992.752 994.025 994.027 992.753 994.028 989.916 989.917
          991.381 991.382 989.917 989.917 991.382 991.382 992.754 992.754 994.029 994.03 992.755 992.755
          994.031 994.031 985.007 985.007 986.726 986.726 985.007 986.726 988.364 988.364 988.364 985.007
          985.007 986.726 986.726 985.007 985.007 986.727 986.727 988.365 988.365 988.365 988.365 989.918
          989.918 991.383 991.383 989.918 991.383 992.755 992.756 994.031 994.032 992.756 994.032 989.918
          989.918 991.383 991.383 989.918 989.918 991.383 991.383 992.756 992.756 994.032 994.032 992.756
          992.756 994.032 994.032 995.38 995.381 995.382 996.59 996.59 997.641 997.641 996.59 995.383
          996.591 997.642 995.383 995.384 995.384 996.591 997.642 997.642 996.591 996.592 997.642 997.642
          998.523 998.523 998.523 999.221 999.221 999.689 999.689 999.221 999.689 998.524 998.524 998.524
          998.524 999.221 999.221 999.689 999.689 999.221 999.221 999.689 999.689 995.385 995.385 995.385
          996.592 996.592 997.642 997.643 996.592 995.385 996.592 997.643 997.643 995.385 995.385 995.385
          996.592 997.643 996.592 996.592 997.643 997.643 998.524 998.524 998.524 999.221 999.221 999.689
          999.689 999.221 999.689 998.524 998.524 998.524 998.524 999.221 999.221 999.689 999.689 999.221
          999.221 999.689 999.689
        </DataArray>
        <DataArray type="Float32" Name="mu" NumberOfComponents="1" format="ascii">
          0.000254628 0.000254628 0.00026527 0.00026527 0.000254628 0.000265271 0.000276804 0.000276804 0.000276805 0.000254628 0.000265271 0.000254628
          0.000265271 0.000276805 0.000276806 0.000289252 0.000289252 0.000289253 0.000289253 0.000289254 0.000254628 0.000265271 0.000276806 0.000254628
          0.000265272 0.000254628 0.000265272 0.000276807 0.000276808 0.000289255 0.000289257 0.000289259 0.000302712 0.000302712 0.000302712 0.000317292
          0.000317293 0.000317293 0.000302713 0.000302714 0.000317294 0.000317296 0.00033312 0.00033312 0.000333121 0.000333122 0.000333124 0.000302716
          0.000317298 0.000302718 0.000302721 0.0003173 0.000317304 0.000333126 0.000333129 0.000333133 0.000254628 0.000265273 0.000254628 0.000265273
          0.000276809 0.000276811 0.000254628 0.000265274 0.000254628 0.000265274 0.000276812 0.000276813 0.000289261 0.000289263 0.000289265 0.000289268
          0.000254628 0.000265275 0.000276814 0.000254628 0.000265275 0.000254628 0.000265275 0.000276815 0.000276815 0.00028927 0.000289271 0.000289272
          0.000302724 0.000302727 0.000317308 0.000317313 0.000302731 0.000302736 0.000317319 0.000317328 0.000333138 0.000333144 0.000333152 0.000333163
          0.00030274 0.000317338 0.000302743 0.000302745 0.000317348 0.000317349 0.000333179 0.000333206 0.000333272 0.000347872 0.000347872 0.000347873
          0.000363791 0.000363791 0.000363791 0.000347874 0.000347876 0.000363793 0.000363794 0.000381003 0.000381003 0.000381004 0.000381005 0.000381007
          0.000347878 0.000363797 0.000347881 0.000347885 0.0003638 0.000363803 0.000381009 0.000381011 0.000381014 0.000399654 0.000399654 0.000399654
          0.000419923 0.000419923 0.000419923 0.000399655 0.000399657 0.000419924 0.000419925 0.00044199 0.00044199 0.00044199 0.000466075 0.000466075
          0.000466075 0.000441991 0.000441991 0.000466075 0.000466075 0.000399658 0.000419926 0.00039966 0.000399663 0.000419928 0.00041993 0.000441992
          0.000466075 0.000441993 0.000441994 0.000466075 0.000466075 0.00034789 0.000347896 0.000363808 0.000363813 0.000347904 0.000347914 0.00036382
          0.000363827 0.000381018 0.000381022 0.000381027 0.000381032 0.000347926 0.000363834 0.000347941 0.000347946 0.00036384 0.000363842 0.000381036
          0.000381039 0.00038104 0.000399666 0.000399669 0.000419932 0.000419934 0.000399672 0.000399675 0.000419936 0.000419938 0.000441995 0.000441996
          0.000466075 0.000466075 0.000441997 0.000441998 0.000466075 0.000466075 0.000399678 0.00041994 0.00039968 0.00039968 0.000419941 0.000419941
          0.000441999 0.000466075 0.000442 0.000442 0.000466075 0.000466075 0.000254628 0.000265275 0.000254628 0.000265275 0.000276815 0.000276814
          0.000254628 0.000265274 0.000254628 0.000265274 0.000276813 0.000276812 0.000289271 0.00028927 0.000289268 0.000254628 0.000265273 0.000276811
          0.000254628 0.000265273 0.000254628 0.000265272 0.000276809 0.000276808 0.000289265 0.000289263 0.000289261 0.000289259 0.000302743 0.00030274
          0.000317348 0.000317338 0.000302736 0.000302731 0.000317328 0.000333206 0.000333179 0.000333163 0.000302727 0.000317319 0.000317313 0.000302724
          0.000302721 0.000317308 0.000317304 0.000333152 0.000333144 0.000333138 0.000333133 0.000254628 0.000265272 0.000254628 0.000265271 0.000276807
          0.000276806 0.000254628 0.000265271 0.000276806 0.000289257 0.000289255 0.000289254 0.000254628 0.000265271 0.000254628 0.000265271 0.000276805
          0.000276805 0.000254628 0.00026527 0.000254628 0.00026527 0.000276804 0.000276804 0.000289253 0.000289253 0.000289252 0.000289252 0.000302718
          0.000302716 0.0003173 0.000317298 0.000302714 0.000302713 0.000317296 0.000317294 0.000333129 0.000333126 0.000333124 0.000333122 0.000302712
          0.000317293 0.000302712 0.000302712 0.000317293 0.000317292 0.000333121 0.00033312 0.00033312 0.000347941 0.000347926 0.00036384 0.000363834
          0.000347914 0.000363827 0.000347904 0.00036382 0.000381039 0.000381036 0.000381032 0.000347896 0.000363813 0.00034789 0.000347885 0.000363808
          0.000363803 0.000381027 0.000381022 0.000381018 0.000381014 0.00039968 0.000399678 0.000419941 0.00041994 0.000399675 0.000419938 0.000399672
          0.000419936 0.000442 0.000441999 0.000466075 0.000466075 0.000441998 0.000441997 0.000466075 0.000399669 0.000419934 0.000399666 0.000399663
          0.000419932 0.00041993 0.000441996 0.000466075 0.000466075 0.000441995 0.000441994 0.000466075 0.000466075 0.000347881 0.000347878 0.0003638
          0.000363797 0.000347876 0.000347874 0.000363794 0.000363793 0.000381011 0.000381009 0.000381007 0.000381005 0.000347873 0.000363791 0.000347872
          0.000347872 0.000363791 0.000363791 0.000381004 0.000381003 0.000381003 0.00039966 0.000399658 0.000419928 0.000419926 0.000399657 0.000399655
          0.000419925 0.000441993 0.000441992 0.000466075 0.000466075 0.000441991 0.000466075 0.000399654 0.000419924 0.000419923 0.000399654 0.000399654
          0.000419923 0.000419923 0.000441991 0.00044199 0.000466075 0.000466075 0.00044199 0.00044199 0.000466075 0.000466075 0.000492432 0.000492432
          0.000492431 0.000521359 0.000521359 0.000521358 0.000492431 0.00049243 0.000521357 0.000521356 0.000553207 0.000553206 0.000553205 0.000553203
          0.000553201 0.000492429 0.000521354 0.000492428 0.000492427 0.000521351 0.000521349 0.000553198 0.000553194 0.000553189 0.000588387 0.000588386
          0.000588385 0.00062739 0.00062739 0.000627388 0.000588382 0.000588379 0.000627384 0.00062738 0.000670803 0.000670802 0.000670799 0.00071933
          0.000719329 0.000719326 0.000670795 0.00067079 0.000719322 0.000719315 0.000588374 0.000627374 0.000588369 0.000588362 0.000627366 0.000627356
          0.000670782 0.000719306 0.000670772 0.000670759 0.000719294 0.000719279 0.000492426 0.000492424 0.000521346 0.000521343 0.000492423 0.000492422
          0.000521339 0.000521336 0.000553184 0.000553178 0.000553172 0.000553166 0.000492421 0.000521334 0.00049242 0.00049242 0.000521332 0.000521332
          0.000553162 0.000553158 0.000553157 0.000588353 0.000588344 0.000627344 0.000627329 0.000588333 0.000588323 0.000627312 0.000627293 0.000670743
          0.000670723 0.000719261 0.000719236 0.000670698 0.000670666 0.000719205 0.000719163 0.000588313 0.000627273 0.000588306 0.000588303 0.000627257
          0.000627251 0.000670625 0.0007191 0.000670576 0.00067056 0.000718992 0.000718735 0.000783926 0.000783925 0.000783922 0.000783917 0.00078391
          0.000858225 0.000858224 0.000858221 0.000944293 0.000944292 0.000944289 0.000858216 0.000858209 0.000944285 0.000944278 0.0007839 0.000783888
          0.000783872 0.000858199 0.000858188 0.000858173 0.00094427 0.00094426 0.000944248 0.00104478 0.00104478 0.00104478 0.00116314 0.00116314
          0.00116314 0.00104478 0.00104477 0.00116314 0.00116313 0.00130753 0.00130753 0.00130753 0.00130753 0.00130753 0.00104476 0.00116313
          0.00104476 0.00104475 0.00116313 0.00116312 0.00130753 0.00130753 0.00130753 0.000783852 0.000783828 0.000783797 0.000783759 0.000858155
          0.000858134 0.000944234 0.000944218 0.00085811 0.000858084 0.000944201 0.000944185 0.000783712 0.000783661 0.000783656 0.000858059 0.000944171
          0.000858041 0.000858033 0.000944161 0.000944157 0.00104474 0.00104473 0.00116312 0.00116311 0.00104472 0.00104471 0.0011631 0.0011631
          0.00130753 0.00130753 0.00130753 0.00130753 0.0010447 0.0011631 0.00104469 0.00104469 0.00116309 0.00116309 0.00130753 0.00130753
          0.00130753 0.00049242 0.000492421 0.000521332 0.000521334 0.000492422 0.000521336 0.000553158 0.000553162 0.000553166 0.000492423 0.000492424
          0.000521339 0.000521343 0.000492426 0.000492427 0.000521346 0.000521349 0.000553172 0.000553178 0.000553184 0.000553189 0.000588306 0.000588313
          0.000627257 0.000627273 0.000588323 0.000627293 0.000670576 0.000670625 0.000718992 0.0007191 0.000670666 0.000719163 0.000588333 0.000588344
          0.000627312 0.000627329 0.000588353 0.000588362 0.000627344 0.000627356 0.000670698 0.000670723 0.000719205 0.000719236 0.000670743 0.000670759
          0.000719261 0.000719279 0.000492428 0.000492429 0.000521351 0.000521354 0.00049243 0.000521356 0.000553194 0.000553198 0.000553201 0.000492431
          0.000492431 0.000521357 0.000521358 0.000492432 0.000492432 0.000521359 0.000521359 0.000553203 0.000553205 0.000553206 0.000553207 0.000588369
          0.000588374 0.000627366 0.000627374 0.000588379 0.00062738 0.000670772 0.000670782 0.000719294 0.000719306 0.00067079 0.000719315 0.000588382
          0.000588385 0.000627384 0.000627388 0.000588386 0.000588387 0.00062739 0.00062739 0.000670795 0.000670799 0.000719322 0.000719326 0.000670802
          0.000670803 0.000719329 0.00071933 0.000783661 0.000783712 0.000783759 0.000858041 0.000858059 0.000944161 0.000944171 0.000858084 0.000783797
          0.00085811 0.000944185 0.000783828 0.000783852 0.000783872 0.000858134 0.000944201 0.000944218 0.000858155 0.000858173 0.000944234 0.000944248
          0.00104469 0.0010447 0.00104471 0.00116309 0.0011631 0.00130753 0.00130753 0.0011631 0.00130753 0.00104472 0.00104473 0.00104474
          0.00104475 0.0011631 0.00116311 0.00130753 0.00130753 0.00116312 0.00116312 0.00130753 0.00130753 0.000783888 0.0007839 0.00078391
          0.000858188 0.000858199 0.00094426 0.00094427 0.000858209 0.000783917 0.000858216 0.000944278 0.000944285 0.000783922 0.000783925 0.000783926
          0.000858221 0.000944289 0.000858224 0.000858225 0.000944292 0.000944293 0.00104476 0.00104476 0.00104477 0.00116313 0.00116313 0.00130753
          0.00130753 0.00116313 0.00130753 0.00104478 0.00104478 0.00104478 0.00104478 0.00116314 0.00116314 0.00130753 0.00130753 0.00116314
          0.00116314 0.00130753 0.00130753
        </DataArray>
        <DataArray type="Float32" Name="delp" NumberOfComponents="1" format="ascii">
          0 0 -2.91038e-11 -1.45519e-11 0 -1.45519e-11 -2.91038e-11 -2.91038e-11 -2.91038e-11 0 -1.45519e-11 0
          -1.45519e-11 -2.91038e-11 -4.36557e-11 -4.36557e-11 -4.36557e-11 -4.36557e-11 -4.36557e-11 -4.36557e-11 0 -1.45519e-11 -2.91038e-11 0
          -1.45519e-11 0 -1.45519e-11 -2.91038e-11 -2.91038e-11 -4.36557e-11 -4.36557e-11 -5.82077e-11 -5.82077e-11 -5.82077e-11 -5.82077e-11 -7.27596e-11
          -7.27596e-11 -7.27596e-11 -5.82077e-11 -5.82077e-11 -7.27596e-11 -7.27596e-11 -8.73115e-11 -8.73115e-11 -8.73115e-11 -8.73115e-11 -8.73115e-11 -5.82077e-11
          -7.27596e-11 -7.27596e-11 -7.27596e-11 -8.73115e-11 -8.73115e-11 -1.01863e-10 -1.01863e-10 -1.01863e-10 0 -1.45519e-11 0 -1.45519e-11
          -4.36557e-11 -2.91038e-11 0 -1.45519e-11 0 -1.45519e-11 -2.91038e-11 -4.36557e-11 -5.82077e-11 -5.82077e-11 -4.36557e-11 -5.82077e-11
          0 -1.45519e-11 -4.36557e-11 0 -1.45519e-11 0 -2.91038e-11 -2.91038e-11 -2.91038e-11 -5.82077e-11 -5.82077e-11 -5.82077e-11
          -7.27596e-11 -7.27596e-11 -8.73115e-11 -8.73115e-11 -7.27596e-11 -7.27596e-11 -8.73115e-11 -1.01863e-10 -1.01863e-10 -1.16415e-10 -1.16415e-10 -1.16415e-10
          -7.27596e-11 -8.73115e-11 -7.27596e-11 -8.73115e-11 -1.01863e-10 -8.73115e-11 -1.16415e-10 -1.16415e-10 -1.16415e-10 -1.01863e-10 -1.01863e-10 -1.01863e-10
          -1.16415e-10 -1.16415e-10 -1.16415e-10 -1.01863e-10 -1.01863e-10 -1.16415e-10 -1.30967e-10 -1.30967e-10 -1.30967e-10 -1.30967e-10 -1.45519e-10 -1.30967e-10
          -1.01863e-10 -1.16415e-10 -1.16415e-10 -1.16415e-10 -1.16415e-10 -1.30967e-10 -1.45519e-10 -1.45519e-10 -1.45519e-10 -1.45519e-10 -1.45519e-10 -1.45519e-10
          -1.60071e-10 -1.60071e-10 -1.60071e-10 -1.45519e-10 -1.45519e-10 -1.60071e-10 -1.60071e-10 -1.60071e-10 -1.60071e-10 -1.60071e-10 -1.60071e-10 -1.74623e-10
          -1.60071e-10 -1.60071e-10 -1.60071e-10 -1.60071e-10 -1.74623e-10 -1.45519e-10 -1.60071e-10 -1.45519e-10 -1.60071e-10 -1.60071e-10 -1.74623e-10 -1.60071e-10
          -1.74623e-10 -1.60071e-10 -1.74623e-10 -1.74623e-10 -1.74623e-10 -1.16415e-10 -1.16415e-10 -1.30967e-10 -1.45519e-10 -1.30967e-10 -1.30967e-10 -1.45519e-10
          -1.45519e-10 -1.45519e-10 -1.45519e-10 -1.60071e-10 -1.60071e-10 -1.30967e-10 -1.45519e-10 -1.45519e-10 -1.45519e-10 -1.60071e-10 -1.60071e-10 -1.60071e-10
          -1.60071e-10 -1.74623e-10 -1.60071e-10 -1.60071e-10 -1.74623e-10 -1.74623e-10 -1.74623e-10 -1.74623e-10 -1.74623e-10 -1.74623e-10 -1.74623e-10 -1.74623e-10
          -1.89175e-10 -1.89175e-10 -1.89175e-10 -1.89175e-10 -2.03727e-10 -2.03727e-10 -1.74623e-10 -1.89175e-10 -1.89175e-10 -2.03727e-10 -1.89175e-10 -2.03727e-10
          -2.03727e-10 -2.03727e-10 -2.03727e-10 -2.03727e-10 -2.18279e-10 -2.32831e-10 0 -1.45519e-11 0 -1.45519e-11 -2.91038e-11 -4.36557e-11
          0 -1.45519e-11 0 -1.45519e-11 -2.91038e-11 -2.91038e-11 -5.82077e-11 -4.36557e-11 -5.82077e-11 0 -1.45519e-11 -4.36557e-11
          0 -1.45519e-11 0 -1.45519e-11 -2.91038e-11 -2.91038e-11 -4.36557e-11 -5.82077e-11 -5.82077e-11 -5.82077e-11 -7.27596e-11 -7.27596e-11
          -8.73115e-11 -8.73115e-11 -7.27596e-11 -7.27596e-11 -8.73115e-11 -1.16415e-10 -1.01863e-10 -1.16415e-10 -7.27596e-11 -8.73115e-11 -8.73115e-11 -7.27596e-11
          -7.27596e-11 -8.73115e-11 -8.73115e-11 -1.16415e-10 -1.01863e-10 -1.16415e-10 -1.01863e-10 0 -1.45519e-11 0 -2.91038e-11 -2.91038e-11
          -2.91038e-11 0 -2.91038e-11 -4.36557e-11 -5.82077e-11 -4.36557e-11 -4.36557e-11 0 -2.91038e-11 0 -2.91038e-11 -2.91038e-11
          -4.36557e-11 0 -1.45519e-11 0 -1.45519e-11 -4.36557e-11 -4.36557e-11 -5.82077e-11 -4.36557e-11 -5.82077e-11 -5.82077e-11 -5.82077e-11
          -7.27596e-11 -8.73115e-11 -8.73115e-11 -7.27596e-11 -5.82077e-11 -8.73115e-11 -8.73115e-11 -1.01863e-10 -1.01863e-10 -1.01863e-10 -1.01863e-10 -7.27596e-11
          -7.27596e-11 -5.82077e-11 -7.27596e-11 -8.73115e-11 -8.73115e-11 -1.01863e-10 -1.01863e-10 -8.73115e-11 -1.30967e-10 -1.30967e-10 -1.60071e-10 -1.60071e-10
          -1.30967e-10 -1.45519e-10 -1.30967e-10 -1.45519e-10 -1.60071e-10 -1.60071e-10 -1.60071e-10 -1.30967e-10 -1.30967e-10 -1.16415e-10 -1.16415e-10 -1.30967e-10
          -1.30967e-10 -1.60071e-10 -1.45519e-10 -1.45519e-10 -1.45519e-10 -1.89175e-10 -1.74623e-10 -1.89175e-10 -1.89175e-10 -1.74623e-10 -1.89175e-10 -1.60071e-10
          -1.74623e-10 -2.03727e-10 -1.89175e-10 -2.18279e-10 -2.03727e-10 -1.89175e-10 -1.89175e-10 -1.89175e-10 -1.60071e-10 -1.74623e-10 -1.60071e-10 -1.60071e-10
          -1.60071e-10 -1.60071e-10 -1.74623e-10 -1.89175e-10 -1.89175e-10 -1.74623e-10 -1.60071e-10 -1.74623e-10 -1.74623e-10 -1.16415e-10 -1.16415e-10 -1.30967e-10
          -1.16415e-10 -1.16415e-10 -1.16415e-10 -1.16415e-10 -1.16415e-10 -1.45519e-10 -1.30967e-10 -1.30967e-10 -1.30967e-10 -1.01863e-10 -1.16415e-10 -1.16415e-10
          -1.16415e-10 -1.16415e-10 -1.16415e-10 -1.30967e-10 -1.30967e-10 -1.30967e-10 -1.45519e-10 -1.45519e-10 -1.60071e-10 -1.60071e-10 -1.45519e-10 -1.45519e-10
          -1.60071e-10 -1.74623e-10 -1.74623e-10 -1.74623e-10 -1.74623e-10 -1.60071e-10 -1.60071e-10 -1.45519e-10 -1.60071e-10 -1.45519e-10 -1.45519e-10 -1.45519e-10
          -1.45519e-10 -1.45519e-10 -1.45519e-10 -1.60071e-10 -1.74623e-10 -1.60071e-10 -1.60071e-10 -1.45519e-10 -1.60071e-10 -1.60071e-10 -1.74623e-10 -1.60071e-10
          -1.74623e-10 -1.74623e-10 -1.74623e-10 -1.74623e-10 -1.74623e-10 -1.74623e-10 -1.74623e-10 -1.74623e-10 -1.74623e-10 -1.89175e-10 -1.74623e-10 -1.74623e-10
          -1.74623e-10 -1.89175e-10 -1.89175e-10 -1.89175e-10 -1.89175e-10 -1.89175e-10 -1.89175e-10 -1.74623e-10 -1.89175e-10 -2.03727e-10 -1.74623e-10 -1.74623e-10
          -1.74623e-10 -1.74623e-10 -1.74623e-10 -1.60071e-10 -1.74623e-10 -1.74623e-10 -1.74623e-10 -1.74623e-10 -1.60071e-10 -1.60071e-10 -1.60071e-10 -1.60071e-10
          -1.60071e-10 -1.45519e-10 -1.60071e-10 -1.60071e-10 -1.60071e-10 -1.60071e-10 -1.74623e-10 -1.74623e-10 -1.74623e-10 -1.89175e-10 -1.89175e-10 -1.74623e-10
          -1.74623e-10 -1.60071e-10 -1.74623e-10 -1.74623e-10 -1.60071e-10 -1.74623e-10 -1.89175e-10 -2.03727e-10 -1.89175e-10 -2.03727e-10 -2.03727e-10 -2.03727e-10
          -2.03727e-10 -2.03727e-10 -2.03727e-10 -2.03727e-10 -2.03727e-10 -2.03727e-10 -2.18279e-10 -2.18279e-10 -2.18279e-10 -2.32831e-10 -2.18279e-10 -2.32831e-10
          -2.18279e-10 -2.32831e-10 -2.32831e-10 -2.03727e-10 -2.03727e-10 -1.89175e-10 -1.89175e-10 -2.03727e-10 -2.03727e-10 -1.89175e-10 -2.03727e-10 -1.74623e-10