<?xml version="1.0"?>
<VTKFile type="UnstructuredGrid" version="0.1" byte_order="LittleEndian">
  <UnstructuredGrid>
    <Piece NumberOfCells="6859" NumberOfPoints="8000">
      <PointData Scalars="p">
        <DataArray type="Float32" Name="p" NumberOfComponents="1" format="ascii">
          -0.0474265 -0.0428571 -0.0428571 -0.0370168 -0.058062 -0.0492622 -0.0492622 -0.0383883 -0.0344477 -0.02761 -0.0405796 -0.0288629
          -0.0264005 -0.018478 -0.032166 -0.0191961 -0.0187505 -0.00966865 -0.0242138 -0.00992009 -0.0117422 -0.0015025 -0.0169569 -0.00131534
          -0.00564193 0.00568691 -0.0106616 0.00626114 -0.000731661 0.0115319 -0.00560891 0.0124221 0.00272191 0.0156753 -0.00206274 0.0167903
          0.00450747 0.0178284 -0.000231717 0.0190604 0.00450747 0.0178284 -0.000231717 0.0190604 0.00272191 0.0156753 -0.00206274 0.0167903
          -0.000731661 0.0115319 -0.00560891 0.0124221 -0.00564193 0.00568691 -0.0106616 0.00626114 -0.0117422 -0.0015025 -0.0169569 -0.00131534
          -0.0187505 -0.00966865 -0.0242138 -0.00992009 -0.0264005 -0.018478 -0.032166 -0.0191961 -0.0344477 -0.02761 -0.0405796 -0.0288629
          -0.0428571 -0.0370168 -0.0492622 -0.0383883 -0.0474265 -0.0428571 -0.058062 -0.0492622 -0.0344477 -0.02761 -0.0405796 -0.0288629
          -0.0169846 -0.0179963 -0.00646796 -0.00688072 0.00386288 0.00399162 0.0136278 0.014271 0.0223913 0.0234962 0.0296429 0.0311306
          0.0348579 0.0366217 0.0375935 0.0395024 0.0375935 0.0395024 0.0348579 0.0366217 0.0296429 0.0311306 0.0223913 0.0234962
          0.0136278 0.014271 0.00386288 0.00399162 -0.00646796 -0.00688072 -0.0169846 -0.0179963 -0.02761 -0.0288629 -0.0344477 -0.0405796
          -0.0264005 -0.018478 -0.032166 -0.0191961 -0.00646796 -0.00688072 0.00566955 0.00594488 0.0178502 0.0187659 0.0296452 0.0311843
          0.0405018 0.0426153 0.0497066 0.052309 0.0564635 0.0594264 0.060057 0.0632124 0.060057 0.0632124 0.0564635 0.0594264
          0.0497066 0.052309 0.0405018 0.0426153 0.0296452 0.0311843 0.0178502 0.0187659 0.00566955 0.00594488 -0.00646796 -0.00688072
          -0.018478 -0.0191961 -0.0264005 -0.032166 -0.0187505 -0.00966865 -0.0242138 -0.00992009 0.00386288 0.00399162 0.0178502 0.0187659
          0.0322478 0.0339209 0.046616 0.0490482 0.0602915 0.0634476 0.0722874 0.0760818 0.0813606 0.0856414 0.0862869 0.0908336
          0.0862869 0.0908336 0.0813606 0.0856414 0.0722874 0.0760818 0.0602915 0.0634476 0.046616 0.0490482 0.0322478 0.0339209
          0.0178502 0.0187659 0.00386288 0.00399162 -0.00966865 -0.00992009 -0.0187505 -0.0242138 -0.0117422 -0.0015025 -0.0169569 -0.00131534
          0.0136278 0.014271 0.0296452 0.0311843 0.046616 0.0490482 0.0641845 0.0675446 0.0816602 0.0859453 0.0977507 0.102894
          0.110486 0.116316 0.117631 0.12385 0.117631 0.12385 0.110486 0.116316 0.0977507 0.102894 0.0816602 0.0859453
          0.0641845 0.0675446 0.046616 0.0490482 0.0296452 0.0311843 0.0136278 0.014271 -0.0015025 -0.00131534 -0.0117422 -0.0169569
          -0.00564193 0.00568691 -0.0106616 0.00626114 0.0223913 0.0234962 0.0405018 0.0426153 0.0602915 0.0634476 0.0816602 0.0859453
          0.104151 0.109627 0.126364 0.133024 0.145269 0.152955 0.156478 0.164783 0.156478 0.164783 0.145269 0.152955
          0.126364 0.133024 0.104151 0.109627 0.0816602 0.0859453 0.0602915 0.0634476 0.0405018 0.0426153 0.0223913 0.0234962
          0.00568691 0.00626114 -0.00564193 -0.0106616 -0.000731661 0.0115319 -0.00560891 0.0124221 0.0296429 0.0311306 0.0497066 0.052309
          0.0722874 0.0760818 0.0977507 0.102894 0.126364 0.133024 0.157566 0.165891 0.187638 0.197593 0.207414 0.218502
          0.207414 0.218502 0.187638 0.197593 0.157566 0.165891 0.126364 0.133024 0.0977507 0.102894 0.0722874 0.0760818
          0.0497066 0.052309 0.0296429 0.0311306 0.0115319 0.0124221 -0.000731661 -0.00560891 0.00272191 0.0156753 -0.00206274 0.0167903
          0.0348579 0.0366217 0.0564635 0.0594264 0.0813606 0.0856414 0.110486 0.116316 0.145269 0.152955 0.187638 0.197593
          0.23869 0.251434 0.281237 0.296239 0.281237 0.296239 0.23869 0.251434 0.187638 0.197593 0.145269 0.152955
          0.110486 0.116316 0.0813606 0.0856414 0.0564635 0.0594264 0.0348579 0.0366217 0.0156753 0.0167903 0.00272191 -0.00206274
          0.00450747 0.0178284 -0.000231717 0.0190604 0.0375935 0.0395024 0.060057 0.0632124 0.0862869 0.0908336 0.117631 0.12385
          0.156478 0.164783 0.207414 0.218502 0.281237 0.296239 0.411695 0.435557 0.411695 0.435557 0.281237 0.296239
          0.207414 0.218502 0.156478 0.164783 0.117631 0.12385 0.0862869 0.0908336 0.060057 0.0632124 0.0375935 0.0395024
          0.0178284 0.0190604 0.00450747 -0.000231717 0.00450747 0.0178284 -0.000231717 0.0190604 0.0375935 0.0395024 0.060057 0.0632124
          0.0862869 0.0908336 0.117631 0.12385 0.156478 0.164783 0.207414 0.218502 0.281237 0.296239 0.411695 0.435557
          0.411695 0.435557 0.281237 0.296239 0.207414 0.218502 0.156478 0.164783 0.117631 0.12385 0.0862869 0.0908336
          0.060057 0.0632124 0.0375935 0.0395024 0.0178284 0.0190604 0.00450747 -0.000231717 0.00272191 0.0156753 -0.00206274 0.0167903
          0.0348579 0.0366217 0.0564635 0.0594264 0.0813606 0.0856414 0.110486 0.116316 0.145269 0.152955 0.187638 0.197593
          0.23869 0.251434 0.281237 0.296239 0.281237 0.296239 0.23869 0.251434 0.187638 0.197593 0.145269 0.152955
          0.110486 0.116316 0.0813606 0.0856414 0.0564635 0.0594264 0.0348579 0.0366217 0.0156753 0.0167903 0.00272191 -0.00206274
          -0.000731661 0.0115319 -0.00560891 0.0124221 0.0296429 0.0311306 0.0497066 0.052309 0.0722874 0.0760818 0.0977507 0.102894
          0.126364 0.133024 0.157566 0.165891 0.187638 0.197593 0.207414 0.218502 0.207414 0.218502 0.187638 0.197593
          0.157566 0.165891 0.126364 0.133024 0.0977507 0.102894 0.0722874 0.0760818 0.0497066 0.052309 0.0296429 0.0311306
          0.0115319 0.0124221 -0.000731661 -0.00560891 -0.00564193 0.00568691 -0.0106616 0.00626114 0.0223913 0.0234962 0.0405018 0.0426153
          0.0602915 0.0634476 0.0816602 0.0859453 0.104151 0.109627 0.126364 0.133024 0.145269 0.152955 0.156478 0.164783
          0.156478 0.164783 0.145269 0.152955 0.126364 0.133024 0.104151 0.109627 0.0816602 0.0859453 0.0602915 0.0634476
          0.0405018 0.0426153 0.0223913 0.0234962 0.00568691 0.00626114 -0.00564193 -0.0106616 -0.0117422 -0.0015025 -0.0169569 -0.00131534
          0.0136278 0.014271 0.0296452 0.0311843 0.046616 0.0490482 0.0641845 0.0675446 0.0816602 0.0859453 0.0977507 0.102894
          0.110486 0.116316 0.117631 0.12385 0.117631 0.12385 0.110486 0.116316 0.0977507 0.102894 0.0816602 0.0859453
          0.0641845 0.0675446 0.046616 0.0490482 0.0296452 0.0311843 0.0136278 0.014271 -0.0015025 -0.00131534 -0.0117422 -0.0169569
          -0.0187505 -0.00966865 -0.0242138 -0.00992009 0.00386288 0.00399162 0.0178502 0.0187659 0.0322478 0.0339209 0.046616 0.0490482
          0.0602915 0.0634476 0.0722874 0.0760818 0.0813606 0.0856414 0.0862869 0.0908336 0.0862869 0.0908336 0.0813606 0.0856414
          0.0722874 0.0760818 0.0602915 0.0634476 0.046616 0.0490482 0.0322478 0.0339209 0.0178502 0.0187659 0.00386288 0.00399162
          -0.00966865 -0.00992009 -0.0187505 -0.0242138 -0.0264005 -0.018478 -0.032166 -0.0191961 -0.00646796 -0.00688072 0.00566955 0.00594488
          0.0178502 0.0187659 0.0296452 0.0311843 0.0405018 0.0426153 0.0497066 0.052309 0.0564635 0.0594264 0.060057 0.0632124
          0.060057 0.0632124 0.0564635 0.0594264 0.0497066 0.052309 0.0405018 0.0426153 0.0296452 0.0311843 0.0178502 0.0187659
          0.00566955 0.00594488 -0.00646796 -0.00688072 -0.018478 -0.0191961 -0.0264005 -0.032166 -0.0344477 -0.02761 -0.0405796 -0.0288629
          -0.0169846 -0.0179963 -0.00646796 -0.00688072 0.00386288 0.00399162 0.0136278 0.014271 0.0223913 0.0234962 0.0296429 0.0311306
          0.0348579 0.0366217 0.0375935 0.0395024 0.0375935 0.0395024 0.0348579 0.0366217 0.0296429 0.0311306 0.0223913 0.0234962
          0.0136278 0.014271 0.00386288 0.00399162 -0.00646796 -0.00688072 -0.0169846 -0.0179963 -0.02761 -0.0288629 -0.0344477 -0.0405796
          -0.0428571 -0.0370168 -0.0492622 -0.0383883 -0.02761 -0.0288629 -0.018478 -0.0191961 -0.00966865 -0.00992009 -0.0015025 -0.00131534
          0.00568691 0.00626114 0.0115319 0.0124221 0.0156753 0.0167903 0.0178284 0.0190604 0.0178284 0.0190604 0.0156753 0.0167903
          0.0115319 0.0124221 0.00568691 0.00626114 -0.0015025 -0.00131534 -0.00966865 -0.00992009 -0.018478 -0.0191961 -0.02761 -0.0288629
          -0.0370168 -0.0383883 -0.0428571 -0.0492622 -0.0474265 -0.0428571 -0.058062 -0.0492622 -0.0344477 -0.0405796 -0.0264005 -0.032166
          -0.0187505 -0.0242138 -0.0117422 -0.0169569 -0.00564193 -0.0106616 -0.000731661 -0.00560891 0.00272191 -0.00206274 0.00450747 -0.000231717
          0.00450747 -0.000231717 0.00272191 -0.00206274 -0.000731661 -0.00560891 -0.00564193 -0.0106616 -0.0117422 -0.0169569 -0.0187505 -0.0242138
          -0.0264005 -0.032166 -0.0344477 -0.0405796 -0.0428571 -0.0492622 -0.0474265 -0.058062 -0.0609651 -0.0517253 -0.0517253 -0.0409498
          -0.0426086 -0.0306347 -0.0337743 -0.020505 -0.0254245 -0.0107656 -0.0178047 -0.0017382 -0.0111947 0.00620915 -0.00588935 0.0126709
          -0.00216587 0.0172521 -0.000243303 0.0196329 -0.000243303 0.0196329 -0.00216587 0.0172521 -0.00588935 0.0126709 -0.0111947 0.00620915
          -0.0178047 -0.0017382 -0.0254245 -0.0107656 -0.0337743 -0.020505 -0.0426086 -0.0306347 -0.0517253 -0.0409498 -0.0609651 -0.0517253
          -0.0426086 -0.0306347 -0.018942 -0.00727199 0.0041524 0.0149481 0.0246368 0.0326553 0.0384232 0.0414494 0.0414494 0.0384232
          0.0326553 0.0246368 0.0149481 0.0041524 -0.00727199 -0.018942 -0.0306347 -0.0426086 -0.0337743 -0.020505 -0.00727199 0.0061954
          0.019668 0.0327111 0.0447177 0.0549008 0.0623788 0.0663573 0.0663573 0.0623788 0.0549008 0.0447177 0.0327111 0.019668
          0.0061954 -0.00727199 -0.020505 -0.0337743 -0.0254245 -0.0107656 0.0041524 0.019668 0.035593 0.0514824 0.0666086 0.0798833
          0.0899305 0.0953888 0.0953888 0.0899305 0.0798833 0.0666086 0.0514824 0.035593 0.019668 0.0041524 -0.0107656 -0.0254245
          -0.0178047 -0.0017382 0.0149481 0.0327111 0.0514824 0.0709119 0.0902436 0.108055 0.122168 0.130092 0.130092 0.122168
          0.108055 0.0902436 0.0709119 0.0514824 0.0327111 0.0149481 -0.0017382 -0.0178047 -0.0111947 0.00620915 0.0246368 0.0447177
          0.0666086 0.0902436 0.115127 0.139724 0.160692 0.173146 0.173146 0.160692 0.139724 0.115127 0.0902436 0.0666086
          0.0447177 0.0246368 0.00620915 -0.0111947 -0.00588935 0.0126709 0.0326553 0.0549008 0.0798833 0.108055 0.139724 0.174291
          0.207666 0.229698 0.229698 0.207666 0.174291 0.139724 0.108055 0.0798833 0.0549008 0.0326553 0.0126709 -0.00588935
          -0.00216587 0.0172521 0.0384232 0.0623788 0.0899305 0.122168 0.160692 0.207666 0.26439 0.311681 0.311681 0.26439
          0.207666 0.160692 0.122168 0.0899305 0.0623788 0.0384232 0.0172521 -0.00216587 -0.000243303 0.0196329 0.0414494 0.0663573
          0.0953888 0.130092 0.173146 0.229698 0.311681 0.458774 0.458774 0.311681 0.229698 0.173146 0.130092 0.0953888
          0.0663573 0.0414494 0.0196329 -0.000243303 -0.000243303 0.0196329 0.0414494 0.0663573 0.0953888 0.130092 0.173146 0.229698
          0.311681 0.458774 0.458774 0.311681 0.229698 0.173146 0.130092 0.0953888 0.0663573 0.0414494 0.0196329 -0.000243303
          -0.00216587 0.0172521 0.0384232 0.0623788 0.0899305 0.122168 0.160692 0.207666 0.26439 0.311681 0.311681 0.26439
          0.207666 0.160692 0.122168 0.0899305 0.0623788 0.0384232 0.0172521 -0.00216587 -0.00588935 0.0126709 0.0326553 0.0549008
          0.0798833 0.108055 0.139724 0.174291 0.207666 0.229698 0.229698 0.207666 0.174291 0.139724 0.108055 0.0798833
          0.0549008 0.0326553 0.0126709 -0.00588935 -0.0111947 0.00620915 0.0246368 0.0447177 0.0666086 0.0902436 0.115127 0.139724
          0.160692 0.173146 0.173146 0.160692 0.139724 0.115127 0.0902436 0.0666086 0.0447177 0.0246368 0.00620915 -0.0111947
          -0.0178047 -0.0017382 0.0149481 0.0327111 0.0514824 0.0709119 0.0902436 0.108055 0.122168 0.130092 0.130092 0.122168
          0.108055 0.0902436 0.0709119 0.0514824 0.0327111 0.0149481 -0.0017382 -0.0178047 -0.0254245 -0.0107656 0.0041524 0.019668
          0.035593 0.0514824 0.0666086 0.0798833 0.0899305 0.0953888 0.0953888 0.0899305 0.0798833 0.0666086 0.0514824 0.035593
          0.019668 0.0041524 -0.0107656 -0.0254245 -0.0337743 -0.020505 -0.00727199 0.0061954 0.019668 0.0327111 0.0447177 0.0549008
          0.0623788 0.0663573 0.0663573 0.0623788 0.0549008 0.0447177 0.0327111 0.019668 0.0061954 -0.00727199 -0.020505 -0.0337743
          -0.0426086 -0.0306347 -0.018942 -0.00727199 0.0041524 0.0149481 0.0246368 0.0326553 0.0384232 0.0414494 0.0414494 0.0384232
          0.0326553 0.0246368 0.0149481 0.0041524 -0.00727199 -0.018942 -0.0306347 -0.0426086 -0.0517253 -0.0409498 -0.0306347 -0.020505
          -0.0107656 -0.0017382 0.00620915 0.0126709 0.0172521 0.0196329 0.0196329 0.0172521 0.0126709 0.00620915 -0.0017382 -0.0107656
          -0.020505 -0.0306347 -0.0409498 -0.0517253 -0.0609651 -0.0517253 -0.0426086 -0.0337743 -0.0254245 -0.0178047 -0.0111947 -0.00588935
          -0.00216587 -0.000243303 -0.000243303 -0.00216587 -0.00588935 -0.0111947 -0.0178047 -0.0254245 -0.0337743 -0.0426086 -0.0517253 -0.0609651
          -0.0638682 -0.0541884 -0.0541884 -0.0431449 -0.0446376 -0.03228 -0.0353826 -0.021648 -0.0266352 -0.0114447 -0.0186526 -0.00198917
          -0.0117278 0.00633392 -0.0061698 0.0131009 -0.00226901 0.0178985 -0.000254889 0.0203917 -0.000254889 0.0203917 -0.00226901 0.0178985
          -0.0061698 0.0131009 -0.0117278 0.00633392 -0.0186526 -0.00198917 -0.0266352 -0.0114447 -0.0353826 -0.021648 -0.0446376 -0.03228
          -0.0541884 -0.0431449 -0.0638682 -0.0541884 -0.0446376 -0.03228 -0.0199536 -0.00769851 0.00427591 0.0155886 0.0257403 0.0341423
          0.0401864 0.0433577 0.0433577 0.0401864 0.0341423 0.0257403 0.0155886 0.00427591 -0.00769851 -0.0199536 -0.03228 -0.0446376
          -0.0353826 -0.021648 -0.00769851 0.00644444 0.020568 0.0342381 0.0468214 0.0574946 0.0653335 0.0695045 0.0695045 0.0653335
          0.0574946 0.0468214 0.0342381 0.020568 0.00644444 -0.00769851 -0.021648 -0.0353826 -0.0266352 -0.0114447 0.00427591 0.020568
          0.0372632 0.053918 0.0697732 0.0836903 0.094226 0.0999508 0.0999508 0.094226 0.0836903 0.0697732 0.053918 0.0372632
          0.020568 0.00427591 -0.0114447 -0.0266352 -0.0186526 -0.00198917 0.0155886 0.0342381 0.053918 0.0742854 0.094553 0.113233
          0.128039 0.136355 0.136355 0.128039 0.113233 0.094553 0.0742854 0.053918 0.0342381 0.0155886 -0.00198917 -0.0186526
          -0.0117278 0.00633392 0.0257403 0.0468214 0.0697732 0.094553 0.120649 0.146457 0.168472 0.181556 0.181556 0.168472
          0.146457 0.120649 0.094553 0.0697732 0.0468214 0.0257403 0.00633392 -0.0117278 -0.0061698 0.0131009 0.0341423 0.0574946
          0.0836903 0.113233 0.146457 0.182753 0.217837 0.241021 0.241021 0.217837 0.182753 0.146457 0.113233 0.0836903
          0.0574946 0.0341423 0.0131009 -0.0061698 -0.00226901 0.0178985 0.0401864 0.0653335 0.094226 0.128039 0.168472 0.217837
          0.277538 0.327386 0.327386 0.277538 0.217837 0.168472 0.128039 0.094226 0.0653335 0.0401864 0.0178985 -0.00226901
          -0.000254889 0.0203917 0.0433577 0.0695045 0.0999508 0.136355 0.181556 0.241021 0.327386 0.482038 0.482038 0.327386
          0.241021 0.181556 0.136355 0.0999508 0.0695045 0.0433577 0.0203917 -0.000254889 -0.000254889 0.0203917 0.0433577 0.0695045
          0.0999508 0.136355 0.181556 0.241021 0.327386 0.482038 0.482038 0.327386 0.241021 0.181556 0.136355 0.0999508
          0.0695045 0.0433577 0.0203917 -0.000254889 -0.00226901 0.0178985 0.0401864 0.0653335 0.094226 0.128039 0.168472 0.217837
          0.277538 0.327386 0.327386 0.277538 0.217837 0.168472 0.128039 0.094226 0.0653335 0.0401864 0.0178985 -0.00226901
          -0.0061698 0.0131009 0.0341423 0.0574946 0.0836903 0.113233 0.146457 0.182753 0.217837 0.241021 0.241021 0.217837
          0.182753 0.146457 0.113233 0.0836903 0.0574946 0.0341423 0.0131009 -0.0061698 -0.0117278 0.00633392 0.0257403 0.0468214
          0.0697732 0.094553 0.120649 0.146457 0.168472 0.181556 0.181556 0.168472 0.146457 0.120649 0.094553 0.0697732
          0.0468214 0.0257403 0.00633392 -0.0117278 -0.0186526 -0.00198917 0.0155886 0.0342381 0.053918 0.0742854 0.094553 0.113233
          0.128039 0.136355 0.136355 0.128039 0.113233 0.094553 0.0742854 0.053918 0.0342381 0.0155886 -0.00198917 -0.0186526
          -0.0266352 -0.0114447 0.00427591 0.020568 0.0372632 0.053918 0.0697732 0.0836903 0.094226 0.0999508 0.0999508 0.094226
          0.0836903 0.0697732 0.053918 0.0372632 0.020568 0.00427591 -0.0114447 -0.0266352 -0.0353826 -0.021648 -0.00769851 0.00644444
          0.020568 0.0342381 0.0468214 0.0574946 0.0653335 0.0695045 0.0695045 0.0653335 0.0574946 0.0468214 0.0342381 0.020568
          0.00644444 -0.00769851 -0.021648 -0.0353826 -0.0446376 -0.03228 -0.0199536 -0.00769851 0.00427591 0.0155886 0.0257403 0.0341423
          0.0401864 0.0433577 0.0433577 0.0401864 0.0341423 0.0257403 0.0155886 0.00427591 -0.00769851 -0.0199536 -0.03228 -0.0446376
          -0.0541884 -0.0431449 -0.03228 -0.021648 -0.0114447 -0.00198917 0.00633392 0.0131009 0.0178985 0.0203917 0.0203917 0.0178985
          0.0131009 0.00633392 -0.00198917 -0.0114447 -0.021648 -0.03228 -0.0431449 -0.0541884 -0.0638682 -0.0541884 -0.0446376 -0.0353826
          -0.0266352 -0.0186526 -0.0117278 -0.0061698 -0.00226901 -0.000254889 -0.000254889 -0.00226901 -0.0061698 -0.0117278 -0.0186526 -0.0266352
          -0.0353826 -0.0446376 -0.0541884 -0.0638682 -0.0667713 -0.0566515 -0.0566515 -0.0452112 -0.0466666 -0.0338504 -0.0369909 -0.0227222
          -0.0278459 -0.0120522 -0.0195004 -0.00216653 -0.0122609 0.00653444 -0.00645024 0.0136085 -0.00237215 0.0186237 -0.000266475 0.0212302
          -0.000266475 0.0212302 -0.00237215 0.0186237 -0.00645024 0.0136085 -0.0122609 0.00653444 -0.0195004 -0.00216653 -0.0278459 -0.0120522
          -0.0369909 -0.0227222 -0.0466666 -0.0338504 -0.0566515 -0.0452112 -0.0667713 -0.0566515 -0.0466666 -0.0338504 -0.020953 -0.00812059
          0.00440543 0.0162356 0.0268508 0.0356366 0.0419572 0.0452737 0.0452737 0.0419572 0.0356366 0.0268508 0.0162356 0.00440543
          -0.00812059 -0.020953 -0.0338504 -0.0466666 -0.0369909 -0.0227222 -0.00812059 0.00669008 0.0214664 0.0357642 0.0489249 0.0600886
          0.0682888 0.0726523 0.0726523 0.0682888 0.0600886 0.0489249 0.0357642 0.0214664 0.00669008 -0.00812059 -0.0227222 -0.0369909
          -0.0278459 -0.0120522 0.00440543 0.0214664 0.0389341 0.0563558 0.0729416 0.0875023 0.0985274 0.104519 0.104519 0.0985274
          0.0875023 0.0729416 0.0563558 0.0389341 0.0214664 0.00440543 -0.0120522 -0.0278459 -0.0195004 -0.00216653 0.0162356 0.0357642
          0.0563558 0.0776639 0.0988705 0.118421 0.133923 0.142633 0.142633 0.133923 0.118421 0.0988705 0.0776639 0.0563558
          0.0357642 0.0162356 -0.00216653 -0.0195004 -0.0122609 0.00653444 0.0268508 0.0489249 0.0729416 0.0988705 0.126185 0.153213
          0.176282 0.189999 0.189999 0.176282 0.153213 0.126185 0.0988705 0.0729416 0.0489249 0.0268508 0.00653444 -0.0122609
          -0.00645024 0.0136085 0.0356366 0.0600886 0.0875023 0.118421 0.153213 0.191257 0.228077 0.252436 0.252436 0.228077
          0.191257 0.153213 0.118421 0.0875023 0.0600886 0.0356366 0.0136085 -0.00645024 -0.00237215 0.0186237 0.0419572 0.0682888
          0.0985274 0.133923 0.176282 0.228077 0.290848 0.343372 0.343372 0.290848 0.228077 0.176282 0.133923 0.0985274
          0.0682888 0.0419572 0.0186237 -0.00237215 -0.000266475 0.0212302 0.0452737 0.0726523 0.104519 0.142633 0.189999 0.252436
          0.343372 0.50585 0.50585 0.343372 0.252436 0.189999 0.142633 0.104519 0.0726523 0.0452737 0.0212302 -0.000266475
          -0.000266475 0.0212302 0.0452737 0.0726523 0.104519 0.142633 0.189999 0.252436 0.343372 0.50585 0.50585 0.343372
          0.252436 0.189999 0.142633 0.104519 0.0726523 0.0452737 0.0212302 -0.000266475 -0.00237215 0.0186237 0.0419572 0.0682888
          0.0985274 0.133923 0.176282 0.228077 0.290848 0.343372 0.343372 0.290848 0.228077 0.176282 0.133923 0.0985274
          0.0682888 0.0419572 0.0186237 -0.00237215 -0.00645024 0.0136085 0.0356366 0.0600886 0.0875023 0.118421 0.153213 0.191257
          0.228077 0.252436 0.252436 0.228077 0.191257 0.153213 0.118421 0.0875023 0.0600886 0.0356366 0.0136085 -0.00645024
          -0.0122609 0.00653444 0.0268508 0.0489249 0.0729416 0.0988705 0.126185 0.153213 0.176282 0.189999 0.189999 0.176282
          0.153213 0.126185 0.0988705 0.0729416 0.0489249 0.0268508 0.00653444 -0.0122609 -0.0195004 -0.00216653 0.0162356 0.0357642
          0.0563558 0.0776639 0.0988705 0.118421 0.133923 0.142633 0.142633 0.133923 0.118421 0.0988705 0.0776639 0.0563558
          0.0357642 0.0162356 -0.00216653 -0.0195004 -0.0278459 -0.0120522 0.00440543 0.0214664 0.0389341 0.0563558 0.0729416 0.0875023
          0.0985274 0.104519 0.104519 0.0985274 0.0875023 0.0729416 0.0563558 0.0389341 0.0214664 0.00440543 -0.0120522 -0.0278459
          -0.0369909 -0.0227222 -0.00812059 0.00669008 0.0214664 0.0357642 0.0489249 0.0600886 0.0682888 0.0726523 0.0726523 0.0682888
          0.0600886 0.0489249 0.0357642 0.0214664 0.00669008 -0.00812059 -0.0227222 -0.0369909 -0.0466666 -0.0338504 -0.020953 -0.00812059
          0.00440543 0.0162356 0.0268508 0.0356366 0.0419572 0.0452737 0.0452737 0.0419572 0.0356366 0.0268508 0.0162356 0.00440543
          -0.00812059 -0.020953 -0.0338504 -0.0466666 -0.0566515 -0.0452112 -0.0338504 -0.0227222 -0.0120522 -0.00216653 0.00653444 0.0136085
          0.0186237 0.0212302 0.0212302 0.0186237 0.0136085 0.00653444 -0.00216653 -0.0120522 -0.0227222 -0.0338504 -0.0452112 -0.0566515
          -0.0667713 -0.0566515 -0.0466666 -0.0369909 -0.0278459 -0.0195004 -0.0122609 -0.00645024 -0.00237215 -0.000266475 -0.000266475 -0.00237215
          -0.00645024 -0.0122609 -0.0195004 -0.0278459 -0.0369909 -0.0466666 -0.0566515 -0.0667713 -0.0696744 -0.0591146 -0.0591146 -0.0472267
          -0.0486956 -0.0353802 -0.0385992 -0.0237627 -0.0290566 -0.0126257 -0.0203482 -0.00230907 -0.012794 0.00677067 -0.00673069 0.0141525
          -0.00247528 0.0193861 -0.000278061 0.0221061 -0.000278061 0.0221061 -0.00247528 0.0193861 -0.00673069 0.0141525 -0.012794 0.00677067
          -0.0203482 -0.00230907 -0.0290566 -0.0126257 -0.0385992 -0.0237627 -0.0486956 -0.0353802 -0.0591146 -0.0472267 -0.0696744 -0.0591146
          -0.0486956 -0.0353802 -0.021929 -0.00852869 0.00454832 0.0168963 0.0279755 0.0371454 0.0437425 0.0472042 0.0472042 0.0437425
          0.0371454 0.0279755 0.0168963 0.00454832 -0.00852869 -0.021929 -0.0353802 -0.0486956 -0.0385992 -0.0237627 -0.00852869 0.00693938
          0.0223675 0.0372933 0.0510317 0.0626861 0.0712473 0.0758033 0.0758033 0.0712473 0.0626861 0.0510317 0.0372933 0.0223675
          0.00693938 -0.00852869 -0.0237627 -0.0385992 -0.0290566 -0.0126257 0.00454832 0.0223675 0.0406071 0.0587961 0.0761132 0.0913179
          0.102832 0.109091 0.109091 0.102832 0.0913179 0.0761132 0.0587961 0.0406071 0.0223675 0.00454832 -0.0126257 -0.0290566
          -0.0203482 -0.00230907 0.0168963 0.0372933 0.0587961 0.0810459 0.103193 0.123616 0.139815 0.148919 0.148919 0.139815
          0.123616 0.103193 0.0810459 0.0587961 0.0372933 0.0168963 -0.00230907 -0.0203482 -0.012794 0.00677067 0.0279755 0.0510317
          0.0761132 0.103193 0.131729 0.15998 0.184106 0.198456 0.198456 0.184106 0.15998 0.131729 0.103193 0.0761132
          0.0510317 0.0279755 0.00677067 -0.012794 -0.00673069 0.0141525 0.0371454 0.0626861 0.0913179 0.123616 0.15998 0.199779
          0.238343 0.263872 0.263872 0.238343 0.199779 0.15998 0.123616 0.0913179 0.0626861 0.0371454 0.0141525 -0.00673069
          -0.00247528 0.0193861 0.0437425 0.0712473 0.102832 0.139815 0.184106 0.238343 0.304263 0.359655 0.359655 0.304263
          0.238343 0.184106 0.139815 0.102832 0.0712473 0.0437425 0.0193861 -0.00247528 -0.000278061 0.0221061 0.0472042 0.0758033
          0.109091 0.148919 0.198456 0.263872 0.359655 0.530899 0.530899 0.359655 0.263872 0.198456 0.148919 0.109091
          0.0758033 0.0472042 0.0221061 -0.000278061 -0.000278061 0.0221061 0.0472042 0.0758033 0.109091 0.148919 0.198456 0.263872
          0.359655 0.530899 0.530899 0.359655 0.263872 0.198456 0.148919 0.109091 0.0758033 0.0472042 0.0221061 -0.000278061
          -0.00247528 0.0193861 0.0437425 0.0712473 0.102832 0.139815 0.184106 0.238343 0.304263 0.359655 0.359655 0.304263
          0.238343 0.184106 0.139815 0.102832 0.0712473 0.0437425 0.0193861 -0.00247528 -0.00673069 0.0141525 0.0371454 0.0626861
          0.0913179 0.123616 0.15998 0.199779 0.238343 0.263872 0.263872 0.238343 0.199779 0.15998 0.123616 0.0913179
          0.0626861 0.0371454 0.0141525 -0.00673069 -0.012794 0.00677067 0.0279755 0.0510317 0.0761132 0.103193 0.131729 0.15998
          0.184106 0.198456 0.198456 0.184106 0.15998 0.131729 0.103193 0.0761132 0.0510317 0.0279755 0.00677067 -0.012794
          -0.0203482 -0.00230907 0.0168963 0.0372933 0.0587961 0.0810459 0.103193 0.123616 0.139815 0.148919 0.148919 0.139815
          0.123616 0.103193 0.0810459 0.0587961 0.0372933 0.0168963 -0.00230907 -0.0203482 -0.0290566 -0.0126257 0.00454832 0.0223675
          0.0406071 0.0587961 0.0761132 0.0913179 0.102832 0.109091 0.109091 0.102832 0.0913179 0.0761132 0.0587961 0.0406071
          0.0223675 0.00454832 -0.0126257 -0.0290566 -0.0385992 -0.0237627 -0.00852869 0.00693938 0.0223675 0.0372933 0.0510317 0.0626861
          0.0712473 0.0758033 0.0758033 0.0712473 0.0626861 0.0510317 0.0372933 0.0223675 0.00693938 -0.00852869 -0.0237627 -0.0385992
          -0.0486956 -0.0353802 -0.021929 -0.00852869 0.00454832 0.0168963 0.0279755 0.0371454 0.0437425 0.0472042 0.0472042 0.0437425
          0.0371454 0.0279755 0.0168963 0.00454832 -0.00852869 -0.021929 -0.0353802 -0.0486956 -0.0591146 -0.0472267 -0.0353802 -0.0237627
          -0.0126257 -0.00230907 0.00677067 0.0141525 0.0193861 0.0221061 0.0221061 0.0193861 0.0141525 0.00677067 -0.00230907 -0.0126257
          -0.0237627 -0.0353802 -0.0472267 -0.0591146 -0.0696744 -0.0591146 -0.0486956 -0.0385992 -0.0290566 -0.0203482 -0.012794 -0.00673069
          -0.00247528 -0.000278061 -0.000278061 -0.00247528 -0.00673069 -0.012794 -0.0203482 -0.0290566 -0.0385992 -0.0486956 -0.0591146 -0.0696744
          -0.0725775 -0.0615777 -0.0615777 -0.04922 -0.0507245 -0.0368877 -0.0402075 -0.0247844 -0.0302673 -0.0131811 -0.0211961 -0.00243339
          -0.013327 0.00702546 -0.00701113 0.0147155 -0.00257842 0.0201677 -0.000289647 0.0230012 -0.000289647 0.0230012 -0.00257842 0.0201677
          -0.00701113 0.0147155 -0.013327 0.00702546 -0.0211961 -0.00243339 -0.0302673 -0.0131811 -0.0402075 -0.0247844 -0.0507245 -0.0368877
          -0.0615777 -0.04922 -0.0725775 -0.0615777 -0.0507245 -0.0368877 -0.0228851 -0.00892271 0.00470376 0.0175693 0.0291126 0.0386667
          0.0455403 0.0491473 0.0491473 0.0455403 0.0386667 0.0291126 0.0175693 0.00470376 -0.00892271 -0.0228851 -0.0368877 -0.0507245
          -0.0402075 -0.0247844 -0.00892271 0.00719616 0.0232741 0.0388274 0.0531432 0.065288 0.0742101 0.0789584 0.0789584 0.0742101
          0.065288 0.0531432 0.0388274 0.0232741 0.00719616 -0.00892271 -0.0247844 -0.0402075 -0.0302673 -0.0131811 0.00470376 0.0232741
          0.0422833 0.061239 0.0792869 0.0951352 0.107139 0.113664 0.113664 0.107139 0.0951352 0.0792869 0.061239 0.0422833
          0.0232741 0.00470376 -0.0131811 -0.0302673 -0.0211961 -0.00243339 0.0175693 0.0388274 0.061239 0.0844297 0.107517 0.128812
          0.145706 0.155202 0.155202 0.145706 0.128812 0.107517 0.0844297 0.061239 0.0388274 0.0175693 -0.00243339 -0.0211961
          -0.013327 0.00702546 0.0291126 0.0531432 0.0792869 0.107517 0.137274 0.166745 0.191924 0.206911 0.206911 0.191924
          0.166745 0.137274 0.107517 0.0792869 0.0531432 0.0291126 0.00702546 -0.013327 -0.00701113 0.0147155 0.0386667 0.065288
          0.0951352 0.128812 0.166745 0.208295 0.24859 0.275235 0.275235 0.24859 0.208295 0.166745 0.128812 0.0951352
          0.065288 0.0386667 0.0147155 -0.00701113 -0.00257842 0.0201677 0.0455403 0.0742101 0.107139 0.145706 0.191924 0.24859
          0.317646 0.375973 0.375973 0.317646 0.24859 0.191924 0.145706 0.107139 0.0742101 0.0455403 0.0201677 -0.00257842
          -0.000289647 0.0230012 0.0491473 0.0789584 0.113664 0.155202 0.206911 0.275235 0.375973 0.558573 0.558573 0.375973
          0.275235 0.206911 0.155202 0.113664 0.0789584 0.0491473 0.0230012 -0.000289647 -0.000289647 0.0230012 0.0491473 0.0789584
          0.113664 0.155202 0.206911 0.275235 0.375973 0.558573 0.558573 0.375973 0.275235 0.206911 0.155202 0.113664
          0.0789584 0.0491473 0.0230012 -0.000289647 -0.00257842 0.0201677 0.0455403 0.0742101 0.107139 0.145706 0.191924 0.24859
          0.317646 0.375973 0.375973 0.317646 0.24859 0.191924 0.145706 0.107139 0.0742101 0.0455403 0.0201677 -0.00257842
          -0.00701113 0.0147155 0.0386667 0.065288 0.0951352 0.128812 0.166745 0.208295 0.24859 0.275235 0.275235 0.24859
          0.208295 0.166745 0.128812 0.0951352 0.065288 0.0386667 0.0147155 -0.00701113 -0.013327 0.00702546 0.0291126 0.0531432
          0.0792869 0.107517 0.137274 0.166745 0.191924 0.206911 0.206911 0.191924 0.166745 0.137274 0.107517 0.0792869
          0.0531432 0.0291126 0.00702546 -0.013327 -0.0211961 -0.00243339 0.0175693 0.0388274 0.061239 0.0844297 0.107517 0.128812
          0.145706 0.155202 0.155202 0.145706 0.128812 0.107517 0.0844297 0.061239 0.0388274 0.0175693 -0.00243339 -0.0211961