<?xml version="1.0"?>
<VTKFile type="PolyData" version="0.1" byte_order="LittleEndian">
  <PolyData>
    <Piece NumberOfLines="137" NumberOfPoints="90">
      <PointData Scalars="p">
        <DataArray type="Float32" Name="p" NumberOfComponents="1" format="ascii">
          98300.7 100000 98483.2 100000 98484.3 100000 100000 100000 96969.2 98115.8 97900.8 100000
          97759 97356.2 97356.2 97356.2 97503 94902.4 94902.4 97356.2 97356.2 94902.4 95894 95556.2
          95049.4 96383.9 96383.9 94976.1 97581.4 97433.5 97969.8 97425.9 97356.2 97277.8 96298.7 96940
          97594.5 97421.9 97463.7 96199.1 95027.3 94605.8 96383.9 94706.1 92892 95457.8 97293.8 97263.1
          97047.3 96987.9 96633.1 96230.1 97038.4 94979.4 97053.6 96585.4 96045.6 92806 93404.5 94601
          96457.4 94967.2 95471.2 91174.2 94500.3 94262 93124.9 95249.5 93952.8 92486.2 91412.1 95985.9
          95962 95969 95964.8 95487.1 96782.5 96230.1 96230.1 95512.2 93732.4 97038.4 95249.5 90000
          90000 92987.8 92486.2 92486.2 90000 93124.9
        </DataArray>
        <DataArray type="Float32" Name="poreRadius" NumberOfComponents="1" format="ascii">
          0.00010842 0.0002263 0.00018872 8.6711e-05 0.00014246 0.00017024 0.00014006 5.8137e-05 0.00017043 0.00014712 0.00018289 0.00011213
          8.001e-05 0.00026652 0.00010984 0.00018149 0.0001191 0.00010862 6.7563e-05 0.00013353 8.8091e-05 0.00011873 8.6177e-05 0.00014165
          9.7691e-05 0.00014071 8.5166e-05 0.00010965 8.1041e-05 0.00015832 6.1496e-05 0.00011323 0.00033347 6.7184e-05 0.00010274 0.00016438
          0.00011759 8.0701e-05 0.00015113 0.00013784 9.8161e-05 0.00013 8.1223e-05 0.00014997 0.00013153 0.00020701 0.00010946 8.5023e-05
          7.8721e-05 0.00017262 0.00012575 0.00010082 0.00015856 0.00012022 0.00019603 9.1747e-05 0.0001146 0.00025862 0.00012908 0.00025963
          0.00010958 6.7231e-05 0.00012907 0.00015315 9.4275e-05 0.00019972 7.1623e-05 0.00014025 0.00011092 0.00015744 5.0362e-05 0.00022549
          0.00010874 9.8868e-05 0.00010793 0.00015434 8.0185e-05 6.8354e-05 0.00014551 0.00014525 0.00017218 0.00012177 9.0671e-05 0.00015715
          0.00012027 0.00015784 0.00022979 0.00010367 5.3866e-05 0.00024136
        </DataArray>
        <DataArray type="Float32" Name="coordinationNumber" NumberOfComponents="1" format="ascii">
          6 1 4 1 3 1 5 2 6 3 4 1
          2 4 2 3 2 6 1 1 1 1 4 2
          3 2 1 2 3 7 2 4 3 4 6 2
          3 4 3 5 5 3 4 6 4 5 4 4
          4 4 5 7 3 3 2 3 2 5 2 4
          3 2 2 2 3 4 5 4 4 6 2 5
          4 3 2 2 2 1 1 4 2 1 1 3
          1 2 1 1 1 1
        </DataArray>
        <DataArray type="Float32" Name="poreLabel" NumberOfComponents="1" format="ascii">
          -1 2 -1 2 -1 2 2 -1 -1 -1 -1 2
          -1 -1 -1 -1 -1 -1 -1 -1 -1 -1 -1 -1
          -1 -1 -1 -1 -1 -1 -1 -1 -1 -1 -1 -1
          -1 -1 -1 -1 -1 -1 -1 -1 -1 -1 -1 -1
          -1 -1 -1 -1 -1 -1 -1 -1 -1 -1 -1 -1
          -1 -1 -1 -1 -1 -1 -1 -1 -1 -1 -1 -1
          -1 -1 -1 -1 -1 -1 -1 -1 -1 -1 -1 3
          3 -1 -1 -1 3 -1
        </DataArray>
      </PointData>
      <CellData Scalars="process rank" Vectors="velocity_liq (m/s)">
        <DataArray type="Float32" Name="velocity_liq (m/s)" NumberOfComponents="3" format="ascii">
          2.60009 2.60009 -2.60009 5.77641 -0 -5.77641 5.734 -5.734 -0 2.99832 -0 -0
          2.73679e-14 -2.73679e-14 -0 3.13008 3.13008 3.13008 2.35384 -0 2.35384 4.0119 -0 -4.0119
          1.48955e-14 -1.48955e-14 -1.48955e-14 -0.759721 0.759721 0.759721 0.804899 0.804899 -0.804899 -0 0 0
          -0 0 -0 1.41856 -0 -0 -0.816902 0.816902 0.816902 -0 -0 0
          -0 0 -0 -0 0 -0 -0 0 0 -0.644436 0.644436 0
          0.526335 0.526335 -0.526335 -0 0 -0 -0.131503 0 0 0.0932842 -0.0932842 -0
          2.39275 -0 -0 4.0075 4.0075 -0 1.36524 -0 -0 3.97783 -0 -3.97783
          -0.207265 0 0 0.147987 0.147987 -0 0 -1.83353e-13 -1.83353e-13 0.645598 0.645598 -0.645598
          1.66777 1.66777 1.66777 1.20977 -0 1.20977 -0 -0 0.49655 2.51986 2.51986 -0
          1.33956 -0 -1.33956 -0 -0 3.73034 -0.22236 0 0 -0 2.73381 -0
          -0 0.862078 -0.862078 0 0 -0 2.96571 -2.96571 -0 -0 3.65271 -3.65271
          2.41995 2.41995 -0 -0.92652 0.92652 0.92652 -0 0 0 0.867221 -0 -0
          -0 -0 0.667849 3.32943 3.32943 3.32943 -1.63263 0 1.63263 0 -0.788715 0
          1.12396 -0 1.12396 -0 0.795043 -0 1.08955 -0 1.08955 0 0 -0.896429
          0 -0.87673 0 0.65472 0.65472 -0.65472 0.514801 -0 -0.514801 0.807817 0.807817 0.807817
          -0 2.31191 2.31191 -0 0.956023 0.956023 -0 0.415923 -0 0.434055 -0.434055 0.434055
          2.28637 -0 2.28637 -0 1.33435 1.33435 0.583118 0.583118 -0.583118 1.1759 -0 1.1759
          4.55777 -0 4.55777 0 -0.184215 0.184215 -0 1.10763 -0 1.28647 1.28647 -0
          -0.623298 -0.623298 0.623298 -0 2.1175 2.1175 0.979464 -0.979464 -0 0.21186 -0.21186 -0.21186
          -0 3.16657 -3.16657 2.27055 -0 2.27055 -2.27001 0 2.27001 0.650214 -0.650214 -0.650214
          -0.680912 0 0 -0 -0 1.76186 -0.735365 0.735365 0 -0 -0 1.32345
          -0 1.83821 1.83821 -0.798769 0.798769 0.798769 4.43725 -0 -4.43725 -0 0.259255 -0.259255
          -0 2.4666 -0 1.43034 1.43034 -0 -1.88829 1.88829 0 -1.04415 1.04415 1.04415
          3.44071 -3.44071 -0 0 0 -2.51477 1.68847 -1.68847 1.68847 0.414364 -0.414364 0.414364
          5.54325 -0 -5.54325 0 0 -1.63302 0 -0.316116 0 1.54205 1.54205 1.54205
          -0 0.4713 -0.4713 -0 -0 0.0373211 0.0052471 0.0052471 -0 -0.0260781 -0.0260781 0.0260781
          0 -1.20922 0 -0.00442937 -0.00442937 0.00442937 0.735049 0.735049 0.735049 0.826242 0.826242 0.826242
          1.30161 -0 -0 -1.04085 -1.04085 0 -0 0 0 -0 0 -0
          2.20911 2.20911 2.20911 -0 1.0109 1.0109 1.7259 1.7259 -1.7259 -0 3.90536 -0
          1.59564 -0 -1.59564 -0 -0 0 -0.984228 0.984228 0 -2.47448 0 0
          -1.4273 1.4273 1.4273 -0 0 0 -0.735398 0.735398 -0.735398 10.4906 10.4906 -0
          -1.40042 1.40042 1.40042 3.61673 3.61673 -3.61673 -0 -0 2.60129 -2.96056 2.96056 0
          -0 3.14675 3.14675 -0 -0 2.66925 4.44291 -0 -0 -0 0 0
          -0 0 0 0 -0.799125 0.799125 5.37274 -0 5.37274 -0 0 0
          3.18218 -3.18218 3.18218
        </DataArray>
        <DataArray type="Float32" Name="process rank" NumberOfComponents="1" format="ascii">
          0 0 0 0 0 0 0 0 0 0 0 0
          0 0 0 0 0 0 0 0 0 0 0 0
          0 0 0 0 0 0 0 0 0 0 0 0
          0 0 0 0 0 0 0 0 0 0 0 0
          0 0 0 0 0 0 0 0 0 0 0 0
          0 0 0 0 0 0 0 0 0 0 0 0
          0 0 0 0 0 0 0 0 0 0 0 0
          0 0 0 0 0 0 0 0 0 0 0 0
          0 0 0 0 0 0 0 0 0 0 0 0
          0 0 0 0 0 0 0 0 0 0 0 0
          0 0 0 0 0 0 0 0 0 0 0 0
          0 0 0 0 0
        </DataArray>
        <DataArray type="Float32" Name="throatLabel" NumberOfComponents="1" format="ascii">
          2 2 2 2 2 2 2 2 2 -1 -1 -1
          -1 -1 -1 -1 -1 -1 -1 -1 -1 -1 -1 -1
          -1 -1 -1 -1 -1 -1 -1 -1 -1 -1 -1 -1
          -1 -1 -1 -1 -1 -1 -1 -1 -1 -1 -1 -1
          -1 -1 -1 -1 -1 -1 -1 -1 -1 -1 -1 -1
          -1 -1 -1 -1 -1 -1 -1 -1 -1 -1 -1 -1
          -1 -1 -1 -1 -1 -1 -1 -1 -1 -1 -1 -1
          -1 -1 -1 -1 -1 -1 -1 -1 -1 -1 -1 -1
          -1 -1 -1 -1 -1 -1 -1 -1 -1 -1 -1 -1
          -1 -1 -1 -1 -1 -1 -1 -1 -1 -1 -1 -1
          -1 -1 -1 3 -1 3 -1 -1 -1 -1 3 -1
          -1 -1 3 -1 3
        </DataArray>
        <DataArray type="Float32" Name="throatRadius" NumberOfComponents="1" format="ascii">
          3.3304e-05 3.384e-05 3.3615e-05 3.3259e-05 3.3423e-05 3.3717e-05 3.3301e-05 3.3963e-05 3.3418e-05 3.4247e-05 3.3272e-05 3.37e-05
          3.3125e-05 3.3391e-05 3.3434e-05 3.3768e-05 3.3951e-05 3.3734e-05 3.3508e-05 3.3908e-05 3.3903e-05 3.3674e-05 3.3826e-05 3.3772e-05
          3.3303e-05 3.389e-05 3.3413e-05 3.3431e-05 3.3693e-05 3.353e-05 3.3589e-05 3.3834e-05 3.3987e-05 3.3567e-05 3.3743e-05 3.3553e-05
          3.371e-05 3.3781e-05 3.3426e-05 3.3726e-05 3.3836e-05 3.3664e-05 3.422e-05 3.3429e-05 3.3386e-05 3.305e-05 3.3941e-05 3.3926e-05
          3.3606e-05 3.3937e-05 3.3695e-05 3.3731e-05 3.3671e-05 3.3781e-05 3.3667e-05 3.4584e-05 3.3243e-05 3.3015e-05 3.3252e-05 3.3267e-05
          3.3488e-05 3.3576e-05 3.356e-05 3.3816e-05 3.3764e-05 3.3887e-05 3.4237e-05 3.4047e-05 3.3204e-05 3.2859e-05 3.3938e-05 3.3021e-05
          3.3656e-05 3.3645e-05 3.4391e-05 3.361e-05 3.3463e-05 3.3712e-05 3.3716e-05 3.3657e-05 3.3429e-05 3.3224e-05 3.374e-05 3.3184e-05
          3.3288e-05 3.4084e-05 3.3492e-05 3.3586e-05 3.3937e-05 3.3532e-05 3.3981e-05 3.3517e-05 3.3975e-05 3.3845e-05 3.3562e-05 3.3343e-05
          3.3284e-05 3.3542e-05 3.3486e-05 3.3496e-05 3.3966e-05 3.3533e-05 3.402e-05 3.3455e-05 3.3962e-05 3.3458e-05 3.3693e-05 3.3961e-05
          3.3494e-05 3.3486e-05 3.4314e-05 3.3954e-05 3.3488e-05 3.3852e-05 3.3512e-05 3.3871e-05 3.4113e-05 3.3098e-05 3.3981e-05 3.4127e-05
          3.3649e-05 3.4226e-05 3.3685e-05 3.322e-05 3.2903e-05 3.3521e-05 3.3874e-05 3.374e-05 3.3772e-05 3.344e-05 3.3682e-05 3.3086e-05
          3.3378e-05 3.3359e-05 3.3808e-05 3.3628e-05 3.3247e-05
        </DataArray>
        <DataArray type="Float32" Name="throatLength" NumberOfComponents="1" format="ascii">
          6.6609e-05 3.384e-05 3.3615e-05 9.9777e-05 6.6846e-05 0.00010115 9.9902e-05 6.7925e-05 0.00010025 0.00010274 9.9816e-05 3.37e-05
          9.9376e-05 6.6781e-05 0.0001003 6.7537e-05 6.7903e-05 0.0001012 3.3508e-05 6.7817e-05 0.00010171 6.7347e-05 0.00010148 0.00010132
          6.6606e-05 3.389e-05 6.6826e-05 3.3431e-05 6.7385e-05 6.706e-05 0.00010077 0.0001015 0.00010196 0.0001007 6.7487e-05 0.00010066
          6.7421e-05 3.3781e-05 3.3426e-05 0.00010118 6.7672e-05 0.00010099 3.422e-05 6.6858e-05 6.6772e-05 3.305e-05 6.7881e-05 6.7852e-05
          3.3606e-05 6.7873e-05 3.3695e-05 3.3731e-05 3.3671e-05 3.3781e-05 3.3667e-05 3.4584e-05 6.6486e-05 3.3015e-05 6.6503e-05 9.9802e-05
          6.6975e-05 6.7153e-05 6.7119e-05 3.3816e-05 6.7529e-05 0.00010166 0.00010271 3.4047e-05 3.3204e-05 6.5718e-05 6.7876e-05 6.6043e-05
          3.3656e-05 0.00010094 3.4391e-05 3.361e-05 3.3463e-05 3.3712e-05 6.7432e-05 6.7313e-05 3.3429e-05 9.9673e-05 0.00010122 9.9553e-05
          3.3288e-05 0.00010225 0.00010048 0.00010076 0.00010181 0.0001006 6.7962e-05 3.3517e-05 6.7951e-05 3.3845e-05 3.3562e-05 0.00010003
          3.3284e-05 3.3542e-05 3.3486e-05 6.6992e-05 6.7931e-05 3.3533e-05 0.00010206 6.691e-05 0.00010189 6.6916e-05 6.7385e-05 3.3961e-05
          3.3494e-05 6.6972e-05 3.4314e-05 0.00010186 3.3488e-05 0.00010156 6.7024e-05 0.00010161 0.00010234 3.3098e-05 6.7962e-05 6.8254e-05
          0.00010095 0.00010268 3.3685e-05 3.322e-05 6.5807e-05 3.3521e-05 6.7748e-05 6.748e-05 3.3772e-05 3.344e-05 0.00010104 9.9259e-05
          6.6757e-05 0.00010008 3.3808e-05 0.00010088 9.974e-05
        </DataArray>
        <DataArray type="Float32" Name="transmissibility" NumberOfComponents="1" format="ascii">
          1.1758e-14 2.46701e-14 2.41813e-14 7.80704e-15 1.18847e-14 8.13411e-15 7.83673e-15 1.24702e-14 7.91986e-15 8.52375e-15 7.8162e-15 2.43652e-14
          7.71298e-15 1.18507e-14 7.93108e-15 1.22563e-14 1.24567e-14 8.1465e-15 2.39511e-14 1.24094e-14 8.2693e-15 1.21546e-14 8.21301e-15 8.17357e-15
          1.17571e-14 2.47796e-14 1.1874e-14 2.37864e-14 1.21752e-14 1.19992e-14 8.0415e-15 8.21916e-15 8.33109e-15 8.02603e-15 1.22291e-14 8.01583e-15
          1.21933e-14 2.45413e-14 2.37757e-14 8.14038e-15 1.23307e-14 8.09589e-15 2.55106e-14 1.18911e-14 1.18452e-14 2.29824e-14 1.2446e-14 1.24293e-14
          2.41619e-14 1.24416e-14 2.43543e-14 2.44325e-14 2.43023e-14 2.45413e-14 2.42937e-14 2.63333e-14 1.16937e-14 2.29094e-14 1.17033e-14 7.8126e-15
          1.19543e-14 1.20484e-14 1.20316e-14 2.46177e-14 1.2252e-14 8.25776e-15 8.51629e-15 2.51256e-14 2.33051e-14 1.12931e-14 1.24425e-14 1.14608e-14
          2.42699e-14 8.08163e-15 2.58949e-14 2.41705e-14 2.38547e-14 2.43912e-14 1.22e-14 1.21362e-14 2.37821e-14 7.78234e-15 8.15068e-15 7.75427e-15
          2.34824e-14 8.4027e-15 7.97195e-15 8.03943e-15 8.29437e-15 8.00055e-15 1.24899e-14 2.39704e-14 1.24831e-14 2.46811e-14 2.40671e-14 7.86626e-15
          2.3474e-14 2.40241e-14 2.3904e-14 1.19627e-14 1.24735e-14 2.40048e-14 8.35529e-15 1.19188e-14 8.31231e-15 1.1922e-14 1.21752e-14 2.49357e-14
          2.39211e-14 1.1952e-14 2.57214e-14 8.30692e-15 2.39082e-14 8.2318e-15 1.19798e-14 8.24624e-15 8.42392e-15 2.30826e-14 1.24899e-14 1.26516e-14
          8.08467e-15 8.50783e-15 2.43327e-14 2.33388e-14 1.13384e-14 2.3979e-14 1.23723e-14 1.2226e-14 2.45217e-14 2.38056e-14 8.1092e-15 7.68577e-15
          1.18365e-14 7.87744e-15 2.46002e-14 8.07011e-15 7.79867e-15
        </DataArray>
        <DataArray type="Float32" Name="volumeFlux" NumberOfComponents="1" format="ascii">
          1.99803e-08 3.74191e-08 3.66521e-08 1.32665e-08 1.72944e-22 2.46532e-08 1.47662e-08 2.6178e-08 1.15249e-22 6.17334e-09 6.17334e-09 0
          0 6.32656e-09 6.32656e-09 0 0 0 0 4.1914e-09 4.1914e-09 0 6.01862e-10 6.01862e-10
          1.06151e-08 2.6037e-08 6.09679e-09 2.5149e-08 9.41166e-10 9.41166e-10 1.17019e-21 5.12023e-09 1.33469e-08 7.71087e-09 2.26147e-09 1.60478e-08
          8.61101e-09 1.70276e-08 9.93769e-10 1.24382e-08 5.58315e-09 0 1.96455e-08 2.30907e-08 1.52585e-08 7.01162e-09 0 3.9926e-09
          3.01698e-09 2.65667e-08 1.04856e-08 3.58954e-09 7.20838e-09 3.62907e-09 6.98603e-09 4.28871e-09 3.87549e-09 4.94424e-09 3.21996e-09 6.19385e-09
          1.46664e-08 6.09679e-09 1.87377e-09 3.43883e-09 1.47445e-08 8.66784e-09 4.73553e-09 7.71087e-09 2.84255e-08 1.12515e-09 5.10302e-09 7.93517e-09
          4.8915e-09 1.35593e-08 6.55319e-09 1.65809e-09 2.00583e-08 1.45974e-08 1.45974e-08 5.10302e-09 3.04367e-09 7.7792e-09 4.73553e-09 5.82939e-09
          1.15225e-08 6.429e-09 2.8156e-08 1.65432e-09 1.13633e-08 9.09773e-09 1.23344e-08 8.12669e-09 2.24668e-08 1.15225e-08 1.31768e-08 3.19163e-09
          3.47384e-08 7.34903e-09 1.41786e-09 1.19868e-08 3.07582e-09 1.67865e-10 3.43529e-11 2.02217e-10 5.57896e-09 3.43529e-11 5.78118e-09 6.6022e-09
          5.84083e-09 6.6022e-09 0 0 1.71639e-08 6.55319e-09 1.34288e-08 1.79216e-08 1.05039e-08 0 6.429e-09 1.15276e-08
          1.11965e-08 0 5.78118e-09 6.54897e-08 1.05039e-08 2.8156e-08 1.19394e-08 1.90651e-08 2.03026e-08 1.19394e-08 2.01615e-08 0
          0 5.03055e-09 3.47384e-08 0 2.43697e-08
        </DataArray>
      </CellData>
      <Points>
        <DataArray type="Float32" Name="Coordinates" NumberOfComponents="3" format="ascii">
          2 2 3 1 1 4 2 1 4 1 1 5
          2 1 1 1 2 1 1 2 3 2 1 3
          2 3 4 2 2 4 2 2 2 1 2 4
          1 2 5 2 3 2 1 3 2 2 3 3
          1 3 4 2 4 4 1 3 5 1 4 1
          1 4 2 1 4 4 2 3 5 1 4 5
          2 5 4 2 4 2 1 5 1 1 5 4
          3 1 1 3 2 1 3 1 4 3 1 3
          2 2 1 3 3 1 3 3 3 3 2 3
          3 2 2 2 2 5 3 2 5 3 2 4
          2 4 3 3 4 5 3 3 2 3 4 3
          3 5 4 3 4 2 4 1 2 3 1 2
          4 2 1 4 1 1 4 2 4 4 2 2
          4 3 1 4 2 5 3 3 5 4 4 1
          4 2 3 4 3 5 3 3 4 4 3 3
          3 4 1 3 5 3 4 3 2 4 4 2
          3 5 2 3 4 4 4 5 4 4 3 4
          4 4 3 4 4 5 4 5 3 5 2 2
          4 1 4 4 1 3 5 2 3 5 2 5
          5 3 2 5 1 1 5 1 3 5 3 3
          5 2 4 5 4 1 5 3 4 5 4 5
          5 5 1 4 4 4 5 3 5 5 4 4
          5 5 4 5 4 3
        </DataArray>
      </Points>
      <Lines>
        <DataArray type="Int32" Name="connectivity" NumberOfComponents="1" format="ascii">
          0 1 2 3 4 5 0 6 7 6 8 6
          9 6 10 6 7 11 2 12 8 12 13 14
          15 14 8 16 0 16 17 18 13 19 15 20
          17 21 22 23 24 23 25 26 24 27 17 27
          28 4 29 4 30 2 31 2 29 32 33 32
          13 32 33 10 34 10 35 10 9 0 34 0
          36 0 37 9 38 37 22 37 8 37 15 13
          39 8 40 8 41 22 39 22 42 25 43 40
          17 40 44 40 45 40 24 17 41 17 29 28
          46 28 31 47 36 47 48 47 49 47 50 31
          39 31 38 30 33 29 46 29 51 29 42 29
          52 36 50 35 53 39 34 39 54 38 55 33
          55 42 43 42 56 34 51 34 45 34 57 58
          59 58 50 54 55 60 45 60 52 60 43 45
          61 45 62 43 63 43 64 43 44 65 66 65
          67 65 59 65 57 41 61 64 68 64 69 44
          70 44 46 49 48 49 71 49 48 46 72 73
          74 73 71 73 50 72 74 72 75 72 76 48
          71 51 76 51 77 51 78 51 79 51 67 56
          79 50 57 53 80 53 81 52 71 62 79 59
          71 59 82 67 75 67 83 57 80 57 84 63
          85 68 79 68 66 68 69 85 83 69 86 69
          87 69 66 69 88 70 89 66 83 66
        </DataArray>
        <DataArray type="Int32" Name="offsets" NumberOfComponents="1" format="ascii">
          2 4 6 8 10 12 14 16 18 20 22 24
          26 28 30 32 34 36 38 40 42 44 46 48
          50 52 54 56 58 60 62 64 66 68 70 72
          74 76 78 80 82 84 86 88 90 92 94 96
          98 100 102 104 106 108 110 112 114 116 118 120
          122 124 126 128 130 132 134 136 138 140 142 144
          146 148 150 152 154 156 158 160 162 164 166 168
          170 172 174 176 178 180 182 184 186 188 190 192
          194 196 198 200 202 204 206 208 210 212 214 216
          218 220 222 224 226 228 230 232 234 236 238 240
          242 244 246 248 250 252 254 256 258 260 262 264
          266 268 270 272 274
        </DataArray>
      </Lines>
    </Piece>
  </PolyData>
</VTKFile>
