<?xml version="1.0"?>
<VTKFile type="UnstructuredGrid" version="0.1" byte_order="LittleEndian">
  <UnstructuredGrid>
    <Piece NumberOfCells="6000" NumberOfPoints="1331">
      <PointData Vectors="d">
        <DataArray type="Float64" Name="d" NumberOfComponents="3" format="ascii">
          -3.76146007289249 -3.76146007289249 0 -3.81347897001241 -3.81347897001241 0.0897740195748609 -3.86688439252579 -3.78543126953801 0 -3.85100451018539 -3.8510045101854 0
          -3.82786594052822 -3.7460826987072 0.169129347618613 -3.78543126953801 -3.8668843925258 0 -3.74608269870719 -3.82786594052823 0.169129347618613 -3.72045809571538 -3.72045809571538 0.247133315999028
          -3.82099978850058 -3.92734918664153 0.00679063055385119 -3.9250295014746 -3.89786455191017 0 -3.85672827839436 -3.96262216746743 0 -3.88879912012078 -3.86055911973204 0.0878000388085336
          -3.73608406927815 -4.16931424056212 -0.0772778950783067 -3.92734918664153 -3.82099978850058 0.00679063055385113 -3.96262216746743 -3.85672827839437 0 -3.89786455191017 -3.9250295014746 0
          -3.86055911973204 -3.88879912012078 0.0878000388085331 -4.16931424056211 -3.73608406927815 -0.0772778950783066 -3.93030840921415 -3.93030840921415 -0.081799902992619 -3.96346781987785 -3.96346781987785 0
          -3.83384469173818 -4.18551425502117 -0.174180204103058 -4.18551425502117 -3.83384469173818 -0.174180204103058 -3.69902869105646 -3.69902869105646 0.182267635644979 -3.59775412609189 -3.59775412609189 0.497721039144009
          -3.71080882207966 -3.62609252279504 0.341462317782919 -3.62609252279504 -3.71080882207966 0.341462317782919 -3.50362246803503 -3.50362246803503 0.278018285170219 -3.7121566328471 -3.81884547678378 0.01735181660946
          -3.77749964213754 -3.74506123616401 0.180704741813576 -3.63433484201933 -4.06781605874273 -0.148648469320836 -3.52516142399616 -3.63165205300371 0.0338157147046738 -3.81884547678378 -3.7121566328471 0.0173518166094599
          -3.74506123616401 -3.77749964213754 0.180704741813575 -4.06781605874273 -3.63433484201933 -0.148648469320836 -3.63165205300371 -3.52516142399617 0.0338157147046736 -3.82829886275081 -3.82829886275082 -0.158964081075949
          -3.7398123529496 -4.09202636026963 -0.341680391009201 -4.09202636026963 -3.7398123529496 -0.341680391009201 -3.65117133051023 -3.65117133051023 -0.227902989075419 -3.88797405198209 -4.11126912553908 0
          -3.76940740258948 -4.20191896689098 0 -3.85423232920748 -4.0757801803039 0.00567381799787143 -3.54005940036926 -4.50552248288023 -0.159804490056118 -3.57026566396348 -4.53545367434366 0
          -3.69240696480908 -4.36895236068158 -0.0747162169072737 -3.72319649847181 -4.40268040979526 0 -3.22068294553917 -4.89129298804569 -0.237867142011247 -3.41309390506416 -4.73728816266295 0
          -3.24712731358404 -4.91875032295726 0 -3.38586989657945 -4.70513098794486 -0.150540245105729 -3.86440257167841 -4.21548179785288 0 -3.62198650166841 -4.54578934250478 -0.266822146377101
          -3.64927068651307 -4.5723821001691 0 -4.09309153315115 -4.09309153315115 -0.279245781096651 -3.87504540474168 -4.46540548336116 -0.387719332860289 -3.28632882161931 -4.96284423214752 -0.355949792445545
          -3.30978768972909 -4.98613927403306 0 -3.52224744817793 -4.90069830480557 -0.494533177570157 -3.74960521890795 -3.96522350295535 0.0195806782131424 -3.44752776668945 -4.4110474108835 -0.311009358260552
          -3.59644530110139 -4.2630255275662 -0.137451355054012 -3.45865907229468 -3.88959550253995 -0.209492485718969 -3.28706276525546 -4.24130568036553 -0.446221094786175 -3.13952913144358 -4.80327683124123 -0.464349985929246
          -3.30087326791097 -4.60309420256233 -0.285207552667946 -2.9982277000656 -4.6409366868929 -0.669297916658756 -3.53798952517393 -4.46136062732609 -0.524495098597448 -4.00912649803706 -4.00912649803706 -0.549711034429914
          -3.80259749972388 -4.39279293878304 -0.764286907155282 -3.57577991236357 -3.92638116059141 -0.496502083145505 -3.3908368563969 -4.30759134964674 -0.764368903561808 -3.21410482506807 -4.88730918879027 -0.7003156109056
          -3.46242938564493 -4.83993436272408 -0.97579003509329 -3.08697867003636 -4.74503870210839 -1.02191702643684 -4.20191896689098 -3.76940740258948 0 -4.11126912553908 -3.88797405198209 0
          -4.0757801803039 -3.85423232920748 0.00567381799787106 -4.50552248288023 -3.54005940036926 -0.159804490056118 -4.53545367434366 -3.57026566396348 0 -4.36895236068158 -3.69240696480908 -0.0747162169072739
          -4.21548179785288 -3.86440257167841 0 -4.54578934250478 -3.62198650166841 -0.266822146377101 -4.57238210016909 -3.64927068651308 0 -4.46540548336116 -3.87504540474168 -0.387719332860289
          -4.40268040979526 -3.72319649847181 0 -4.89129298804568 -3.22068294553917 -0.237867142011248 -4.91875032295726 -3.24712731358404 0 -4.73728816266295 -3.41309390506416 0
          -4.70513098794486 -3.38586989657945 -0.150540245105729 -4.96284423214752 -3.28632882161931 -0.355949792445546 -4.98613927403306 -3.30978768972909 0 -4.90069830480557 -3.52224744817793 -0.494533177570157
          -3.96522350295535 -3.74960521890796 0.0195806782131426 -4.4110474108835 -3.44752776668946 -0.311009358260552 -4.2630255275662 -3.59644530110139 -0.137451355054013 -3.88959550253995 -3.45865907229469 -0.20949248571897
          -4.24130568036553 -3.28706276525546 -0.446221094786175 -4.46136062732609 -3.53798952517393 -0.524495098597449 -4.39279293878304 -3.80259749972388 -0.764286907155281 -3.9263811605914 -3.57577991236357 -0.496502083145505
          -4.30759134964674 -3.3908368563969 -0.764368903561808 -4.80327683124123 -3.13952913144358 -0.464349985929246 -4.60309420256233 -3.30087326791097 -0.285207552667946 -4.6409366868929 -2.9982277000656 -0.669297916658756
          -4.88730918879027 -3.21410482506807 -0.7003156109056 -4.83993436272408 -3.46242938564493 -0.97579003509329 -4.74503870210839 -3.08697867003636 -1.02191702643684 -4.11998822386684 -4.11998822386684 0
          -3.89824207966116 -4.48821302126837 0 -4.48821302126837 -3.89824207966116 0 -4.24676315437944 -4.24676315437944 -0.516364442397927 -3.54140117429648 -4.9192708123523 0
          -4.26515621486628 -4.26515621486628 0 -3.87759727366566 -4.6867351232122 -0.646162159637199 -3.89147663830721 -4.69990570157338 0 -4.9192708123523 -3.54140117429648 0
          -4.6867351232122 -3.87759727366566 -0.646162159637199 -4.69990570157338 -3.89147663830721 0 -4.30450462116979 -4.30450462116979 -0.802704979419462 -4.31241051985446 -4.31241051985446 0
          -4.18803139639489 -4.18803139639489 -1.01954926724098 -3.85944596467388 -3.85944596467388 -0.802870503606843 -3.67267455263869 -4.25920051129792 -1.11850178623532 -4.25920051129791 -3.67267455263869 -1.11850178623532
          -3.83313515007129 -4.64308553723409 -1.27772277837058 -3.35433192109195 -4.72324885853334 -1.43021293327514 -4.07873652204426 -4.07873652204427 -1.49593110807763 -3.74898962997206 -4.55689779086547 -1.87935914784385
          -4.64308553723409 -3.83313515007129 -1.27772277837058 -4.72324885853334 -3.35433192109195 -1.43021293327514 -4.55689779086547 -3.74898962997206 -1.87935914784385 -4.27767514454495 -4.27767514454495 -1.59063901726672
          -4.22173310841091 -4.22173310841092 -2.34811475180373 -3.39045579721464 -3.39045579721464 0.752386303384172 -3.51098840326388 -3.42295052980103 0.517827353370941 -3.42295052980103 -3.51098840326388 0.517827353370941
          -3.22211452414813 -3.22211452414813 0.374374060454043 -3.22326214006164 -3.13352433993685 0.694598945671156 -3.13352433993685 -3.22326214006164 0.694598945671156 -3.58561557008122 -3.54786456835666 0.281262638790015
          -3.25337044617677 -3.35810367128906 0.055491978086891 -3.30587931285247 -3.26349942223106 0.388186650381068 -3.20147887752854 -3.62279334721671 -0.258070545176223 -3.54786456835666 -3.58561557008122 0.281262638790015
          -3.35810367128906 -3.25337044617677 0.0554919780868909 -3.26349942223106 -3.30587931285247 0.388186650381067 -3.6227933472167 -3.20147887752854 -0.258070545176223 -3.38981878742364 -3.38981878742364 -0.287144334983354
          -3.33195324853037 -3.67525394547182 -0.634449667042601 -3.67525394547181 -3.33195324853037 -0.634449667042601 -3.09601969800644 -3.09601969800644 1.0063529944063 -2.85021088391747 -2.85021088391748 0.464409201852915
          -2.7139126973115 -2.7139126973115 1.24805739336059 -2.84363920893153 -2.7562438183231 0.862505396743431 -2.7562438183231 -2.84363920893154 0.862505396743431 -2.89055066199149 -2.99015758373331 0.0779258450568657
          -2.93148084162144 -2.88704442230181 0.494676903222149 -2.85519122360124 -3.25354214917845 -0.296676345401973 -2.99015758373331 -2.89055066199149 0.0779258450568656 -2.88704442230181 -2.93148084162144 0.494676903222149
          -3.25354214917845 -2.85519122360125 -0.296676345401973 -3.03424279643537 -3.03424279643537 -0.338150891320547 -2.99711557274234 -3.32252477839581 -0.754130725038981 -3.32252477839581 -2.99711557274234 -0.754130725038981
          -3.56802813272457 -3.7739291757492 0.0471946998200426 -3.42900098315268 -4.07662013358007 -0.179240922521376 -3.30071210868125 -3.49275759582707 0.0901789322274898 -3.05059683984708 -3.97950192269352 -0.561195762300383
          -3.15190764223515 -4.42022580107284 -0.391499012579658 -3.18050465973808 -3.79633255761581 -0.195302883805003 -2.7886344254138 -4.38237926138731 -0.846064617590621 -2.92930289153704 -4.13871072293234 -0.461573843941358
          -3.17054787317448 -4.06615760637855 -0.979524505574251 -3.63031988842149 -3.63031988842149 -1.03132493021436 -2.89513631990198 -4.51252177337831 -1.31132632693684 -3.47182586097224 -4.04634497321662 -1.43988588489043
          -3.18512933571035 -4.52777214113952 -1.84469130604622 -2.72955567057545 -3.6049539748275 -0.656377874723126 -2.93886930904819 -3.11184701436308 0.144005177063427 -2.84093320732788 -3.40657714549721 -0.188106004470205
          -2.50170405633897 -3.99984690036526 -0.993477004653792 -2.62258830907548 -3.73702867641258 -0.49600228998827 -2.86513125271257 -3.71369600118146 -1.16600949899327 -3.30445641494249 -3.30445641494249 -1.22989611235516
          -3.18229247352935 -3.72992579279338 -1.71984140673434 -2.62628318567586 -4.15880389730386 -1.56230922594739 -2.93712804410647 -4.22206208012975 -2.20767927279124 -3.7739291757492 -3.56802813272457 0.0471946998200424
          -4.07662013358007 -3.42900098315269 -0.179240922521376 -3.49275759582706 -3.30071210868125 0.0901789322274897 -3.97950192269351 -3.05059683984708 -0.561195762300383 -4.06615760637855 -3.17054787317448 -0.979524505574251
          -4.42022580107284 -3.15190764223516 -0.391499012579659 -3.79633255761581 -3.18050465973808 -0.195302883805004 -4.3823792613873 -2.7886344254138 -0.846064617590621 -4.13871072293234 -2.92930289153704 -0.461573843941358
          -4.51252177337831 -2.89513631990198 -1.31132632693684 -4.04634497321662 -3.47182586097224 -1.43988588489043 -4.52777214113951 -3.18512933571035 -1.84469130604622 -3.6049539748275 -2.72955567057545 -0.656377874723126
          -3.11184701436308 -2.9388693090482 0.144005177063427 -3.40657714549721 -2.84093320732788 -0.188106004470206 -3.71369600118146 -2.86513125271257 -1.16600949899327 -3.72992579279338 -3.18229247352936 -1.71984140673434
          -3.99984690036526 -2.50170405633897 -0.993477004653792 -3.73702867641258 -2.62258830907548 -0.496002289988271 -4.15880389730386 -2.62628318567586 -1.56230922594739 -4.22206208012975 -2.93712804410647 -2.20767927279124
          -3.90168400218243 -3.90168400218243 -1.93197067764704 -3.60941967980844 -4.4075864378846 -2.43546231278056 -4.4075864378846 -3.60941967980844 -2.43546231278056 -4.11886706392045 -4.11886706392045 -3.05902570569681
          -3.63295092245656 -3.63295092245656 -2.31525218419514 -3.3915399282461 -4.16566094419642 -2.93103405716724 -4.16566094419642 -3.3915399282461 -2.93103405716724 -3.9426101155409 -3.9426101155409 -3.70787191853959
          -2.77394296437667 -5.28113350797107 -0.308205089975042 -2.95427288008371 -5.07730497930622 0 -2.79604498367256 -5.30646447411041 0 -2.93129402996612 -5.04642735352557 -0.218629024132456
          -2.20612987225175 -5.63321616034245 -0.367419584793146 -2.35655809724344 -5.38636704691093 0 -2.22337977867063 -5.65688406899953 0 -2.33848412762409 -5.35642134474628 -0.275745902119319
          -1.53472035055245 -5.91202905794505 -0.412377846319117 -2.82476172879169 -5.38703124219886 -0.437314825458192 -2.8440354204218 -5.40734348148129 0 -3.03232974717058 -5.34761237122582 -0.59380784816092
          -2.2436493646667 -5.77191490104402 -0.506449965920645 -2.2585034519178 -5.7897852044062 0 -1.55973422915515 -6.07767611647949 -0.559238057560873 -2.41180870125068 -5.7566109090768 -0.679229453743819
          -2.70612266948145 -5.19857727629641 -0.602426514923562 -2.85956668060367 -4.94733679982343 -0.417726451427113 -2.58758779621921 -5.04208644058293 -0.869963253418562 -2.15334268011078 -5.5548080139819 -0.718603233681627
          -2.28218081756035 -5.25927623726239 -0.528790212418423 -1.49845744896605 -5.8363618601985 -0.806722254417111 -2.06079490040051 -5.40229724994059 -1.03864862001913 -2.76548530771399 -5.31952402283704 -0.860841162450664
          -2.98512744822949 -5.29815395365357 -1.17255515074274 -2.66058185731878 -5.18740991343392 -1.25711252881758 -2.19812445977159 -5.71090949253587 -0.997199475467855 -1.52869753338917 -6.02125608605677 -1.10120545369001
          -2.3766377638373 -5.71676134493359 -1.34186000259385 -2.11712651696651 -5.58666845119271 -1.45678984294685 -1.64199857432274 -5.63245241144121 0 -1.54665185571971 -5.93454268155218 0
          -1.62943519695144 -5.60311800450624 -0.318974880375193 -0.787442107304113 -6.09044782326153 -0.440616964539359 -0.793582950517572 -6.1122768398755 0 -0.83643738433253 -5.76161821550184 -0.346089506591194
          -0.842933524663216 -5.79060423174906 0 0 -6.15155056526713 -0.450440807606617 0 -5.84490785672743 0 0 -6.1732772933332 0
          0 -5.81602105916451 -0.355520499100071 -1.56994829858486 -6.09378879725682 0 -0.800030825012734 -6.2738180315578 -0.592463564318491 -0.805278701166261 -6.28887880666166 0
          -1.67843824942937 -6.08382592199048 -0.744953056580275 -0.861498136641925 -6.29483468830519 -0.786457408616351 0 -6.34117585210862 -0.6040348493853 0 -6.35591880733649 0
          0 -6.36763729030789 -0.800968350183634 -1.59050734034682 -5.50701701546249 -0.612741124687339 -0.768924573980251 -6.01623553743166 -0.861937609770507 -0.816486947092209 -5.66588707707194 -0.665262362019748
          -1.43476438074567 -5.68603663313261 -1.16642523017255 -0.73640687579608 -5.86675999348875 -1.24630257742325 0 -6.07781924599154 -0.881056665756607 0 -5.72022541938764 -0.683559867766929
          0 -5.9284560567486 -1.2738749357284 -0.784226699248193 -6.22003792114864 -1.16651106475364 -1.65487366097384 -6.0510401521195 -1.47196622594935 -0.849575707816355 -6.26627294408593 -1.5539290779438
          -1.47326206041583 -5.90218568950517 -1.60885106988243 -0.75597675813617 -6.10368356496559 -1.70408294415569 0 -6.28834722354268 -1.18905639410511 0 -6.34059065341727 -1.58227985868753
          0 -6.17281617027533 -1.7368029447368 -3.04746471470265 -5.36215260187939 0 -3.35243612524133 -5.14365345154973 -0.769140017293483 -3.36233840309074 -5.15162376418342 0
          -2.42313979725367 -5.76770554314204 0 -2.6762005335759 -5.5664256092884 -0.87644190952342 -2.68298089448015 -5.56977960476951 0 -1.86768705476551 -5.90787986315631 -0.95972878113802
          -3.74318075391338 -4.75395040501728 -0.953851799888301 -3.74695808533549 -4.75567706812028 0 -3.003765199242 -5.17533529390218 -1.08764375804522 -3.00508651154713 -5.17138859224318 0
          -2.10496027723268 -5.51964822561134 -1.19249219408038 -3.32065178211168 -5.11509147913679 -1.5228084764117 -2.89895272320681 -5.19756725781194 -1.72067643402678 -3.25891139619878 -5.05218384122955 -2.24454530414465
          -2.65453296887548 -5.55121187857858 -1.73672500362521 -1.85399026492103 -5.90280005564766 -1.90254119608029 -2.3116804590585 -5.62956933260056 -1.97054613317629 -2.61099061607992 -5.50865474311496 -2.56334980550294
          -3.72972041184045 -4.74548802523591 -1.89367766211132 -3.69787645760261 -4.71929352933695 -2.80440173829928 -2.99855886945482 -5.18370977761174 -2.16214017377825 -2.10349668807372 -5.54117882678057 -2.37223353514697
          -2.98195331550223 -5.18460937979042 -3.20898023654623 -1.68613114315654 -6.09235635393934 0 -0.865448686908532 -6.30180434866037 0 -1.87208002672374 -5.90769383810444 0
          -0.960308170751228 -6.12962392150624 -1.01254904634826 0 -6.37405451749827 0 -0.96254592675506 -6.12724486321892 0 0 -6.2064915137732 -1.03112825419872
          0 -6.20328322570759 0 -2.10532925563684 -5.51122896978702 0 -1.08513452046811 -5.74516713206048 -1.25932183398358 -1.0852662608445 -5.73392269203243 0
          0 -5.82368280181012 -1.28301000167276 0 -5.81130844167465 0 -0.953546099468989 -6.13074513984714 -2.00743485951023 -1.61092371909822 -5.9733033075813 -2.16216737598764
          -0.827245322687414 -6.1939084994362 -2.28249392333358 -1.82557175230474 -5.87524991695535 -2.80982257287911 0 -6.20983454643509 -2.04387343164555 0 -6.26999570932656 -2.32386652191996
          -0.939264836059989 -6.11203960489637 -2.96511454755527 0 -6.19412180278967 -3.01869538022919 -1.08482804921996 -5.77490017159523 -2.5057965309495 -2.0949697376863 -5.56277617187827 -3.52465700659483
          -1.08095537684577 -5.8090102232657 -3.72440341263672 0 -5.85633792512692 -2.55247098445405 0 -5.89470972585517 -3.79371821252523 -2.7333965754916 -4.76655263894373 -0.58149382855649
          -2.41062704989359 -4.78487696290408 -1.10198023161117 -2.54372359400309 -4.48203163687359 -0.69927810797273 -2.18288110952602 -5.07921894886976 -0.740495921022531 -1.92182456262864 -5.14453910909289 -1.31684637480455
          -2.03287795076958 -4.79046440120861 -0.897819660231979 -1.33868547804783 -5.42643069410163 -1.47932414024567 -2.50081647994667 -4.96212564893125 -1.61446007021326 -2.76186998177552 -5.01848501946105 -2.22279157099223
          -1.99261167952878 -5.36598244344468 -1.87159838291723 -1.3873685222 -5.68340598842227 -2.06696964631294 -2.20645731580522 -5.46329413442062 -2.54781425055741 -2.16643534429261 -4.39240343993498 -1.29589113908633
          -2.28054854006054 -4.06657940034108 -0.769952238990735 -1.72873388306501 -4.74099871548698 -1.54943744165364 -1.82361630613251 -4.36085609578272 -0.998237753444589 -1.2044962103565 -5.0123216124518 -1.74078574059836
          -2.27428978511944 -4.60525820033129 -1.92462329995567 -2.55684403230845 -4.72231614611367 -2.66471341347746 -1.81408910849623 -5.00358429228504 -2.23160502689442 -1.26312888946555 -5.31403846024642 -2.46413891132737
          -2.04572976890101 -5.17226396448721 -3.05692544544057 -1.52176760845849 -5.32669970379535 -0.86048486354575 -0.781277775735652 -5.4849042701982 -0.935351955111787 -1.41757124238127 -5.03342874787101 -1.04734221329779
          -0.687214222713445 -5.60515040761057 -1.58064087709422 0 -5.53877338878341 -0.961439128040755 -0.727790179229456 -5.18806101800074 -1.14038487528301 0 -5.66586489483275 -1.61547830055073
          0 -5.24034463235949 -1.17282275793507 -0.711983247770804 -5.88511429961675 -2.18893229371431 -1.53857864838312 -5.81497474769011 -2.7962020115089 0 -5.95405071808545 -2.23062424810233
          -0.790110585156866 -6.03932939261393 -2.95144857176996 0 -6.11643763412618 -3.00447647591215 -0.618280026585995 -5.18322756744675 -1.85977105553737 -1.27167762446788 -4.59121334731781 -1.16977847518821
          -0.652725853899537 -4.73698808614463 -1.27620277089787 0 -5.24089668778421 -1.90045330906296 0 -4.78581193582617 -1.3133132581662 -0.647991542993077 -5.50975216101456 -2.60872002121038
          -1.42616917921223 -5.52406934988447 -3.35500547009067 -0.731814091879365 -5.74612563574981 -3.54005294096928 0 -5.57618183621164 -2.65784272874024 0 -5.82188513189981 -3.60273458888075
          -3.15283928330641 -4.93115406174147 -2.9172714719438 -2.53281983559129 -5.41158097858098 -3.33765131830249 -3.63196584841699 -4.65599601613858 -3.67058925896673 -2.93994485163312 -5.15673024259908 -4.21289367698778
          -1.77246204494999 -5.7945987827636 -3.66102972466102 -2.06811223313323 -5.56060447158038 -4.63340571982993 -2.98062182444597 -4.7171093096139 -3.52397993266708 -2.40003401124175 -5.21900764575732 -4.0400526812445
          -1.67887924433933 -5.61354986303652 -4.43343474332987 -3.50751753566914 -4.5263605029863 -4.47772449809046 -2.8495345785512 -5.06690790380616 -5.15872015887442 -2.00399092430179 -5.49620403405697 -5.68022422750875
          -0.911903451315134 -6.04018036954588 -3.86345947566513 0 -6.1250115753536 -3.9327574466823 -1.06708242560876 -5.82136532433591 -4.89731670343539 0 -5.9117425673914 -4.98819338868911
          -0.862704577720325 -5.86302552490709 -4.6771436368596 0 -5.94852607699311 -4.75967964646606 -1.03240476401496 -5.76884994626479 -6.00292073169577 0 -5.86246250007769 -6.11292256174749
          -5.28113350797107 -2.77394296437667 -0.308205089975042 -5.30646447411041 -2.79604498367256 0 -5.07730497930622 -2.95427288008371 0 -5.04642735352556 -2.93129402996612 -0.218629024132455
          -5.38703124219886 -2.8247617287917 -0.437314825458192 -5.40734348148129 -2.8440354204218 0 -5.34761237122582 -3.03232974717058 -0.593807848160919 -5.63321616034245 -2.20612987225175 -0.367419584793145
          -5.65688406899953 -2.22337977867063 0 -5.38636704691093 -2.35655809724344 0 -5.35642134474628 -2.33848412762409 -0.275745902119319 -5.91202905794505 -1.53472035055245 -0.412377846319117
          -5.77191490104402 -2.2436493646667 -0.506449965920645 -5.7897852044062 -2.2585034519178 0 -5.7566109090768 -2.41180870125068 -0.679229453743817 -6.07767611647949 -1.55973422915515 -0.559238057560873
          -5.1985772762964 -2.70612266948145 -0.602426514923562 -4.94733679982343 -2.85956668060367 -0.417726451427113 -5.04208644058293 -2.58758779621921 -0.869963253418562 -5.31952402283704 -2.76548530771399 -0.860841162450664
          -5.29815395365357 -2.98512744822949 -1.17255515074274 -5.18740991343392 -2.66058185731879 -1.25711252881758 -5.5548080139819 -2.15334268011078 -0.718603233681627 -5.25927623726239 -2.28218081756035 -0.528790212418423
          -5.8363618601985 -1.49845744896605 -0.806722254417111 -5.40229724994059 -2.06079490040052 -1.03864862001913 -5.71090949253587 -2.1981244597716 -0.997199475467854 -5.71676134493359 -2.3766377638373 -1.34186000259385
          -6.02125608605677 -1.52869753338917 -1.10120545369001 -5.58666845119271 -2.11712651696651 -1.45678984294685 -5.36215260187939 -3.04746471470265 0 -5.14365345154973 -3.35243612524133 -0.769140017293482
          -5.15162376418341 -3.36233840309074 0 -4.75395040501728 -3.74318075391338 -0.9538517998883 -4.75567706812028 -3.74695808533549 0 -5.76770554314204 -2.42313979725367 0
          -5.5664256092884 -2.6762005335759 -0.876441909523418 -5.56977960476951 -2.68298089448015 0 -6.08382592199048 -1.67843824942937 -0.744953056580274 -5.90787986315631 -1.86768705476551 -0.95972878113802
          -5.17533529390218 -3.00376519924201 -1.08764375804522 -5.17138859224318 -3.00508651154713 0 -5.51964822561134 -2.10496027723268 -1.19249219408038 -5.11509147913679 -3.32065178211168 -1.5228084764117
          -5.19756725781194 -2.89895272320681 -1.72067643402678 -5.05218384122954 -3.25891139619878 -2.24454530414465 -4.74548802523591 -3.72972041184045 -1.89367766211132 -4.71929352933695 -3.69787645760261 -2.80440173829928
          -5.55121187857858 -2.65453296887548 -1.73672500362521 -6.0510401521195 -1.65487366097384 -1.47196622594935 -5.90280005564766 -1.85399026492104 -1.90254119608029 -5.62956933260056 -2.3116804590585 -1.97054613317629
          -5.50865474311496 -2.61099061607993 -2.56334980550294 -5.18370977761174 -2.99855886945482 -2.16214017377825 -5.54117882678057 -2.10349668807372 -2.37223353514697 -5.18460937979042 -2.98195331550224 -3.20898023654622
          -5.93454268155218 -1.54665185571971 0 -5.63245241144121 -1.64199857432274 0 -5.60311800450624 -1.62943519695145 -0.318974880375193 -6.09044782326153 -0.787442107304114 -0.44061696453936
          -6.11227683987551 -0.793582950517571 0 -5.76161821550184 -0.836437384332533 -0.346089506591194 -6.09378879725682 -1.56994829858486 0 -6.27381803155781 -0.800030825012736 -0.592463564318492
          -6.28887880666166 -0.805278701166262 0 -6.29483468830519 -0.861498136641926 -0.786457408616351 -5.79060423174906 -0.842933524663217 0 -6.15155056526713 0 -0.450440807606618
          -6.1732772933332 0 0 -5.84490785672743 0 0 -5.81602105916451 0 -0.355520499100072 -6.34117585210862 0 -0.604034849385302
          -6.35591880733649 0 0 -6.36763729030789 0 -0.800968350183637 -5.50701701546249 -1.59050734034682 -0.612741124687339 -6.01623553743166 -0.768924573980251 -0.861937609770508
          -5.66588707707194 -0.816486947092211 -0.665262362019748 -5.68603663313261 -1.43476438074567 -1.16642523017255 -5.86675999348875 -0.736406875796081 -1.24630257742325 -6.22003792114864 -0.784226699248194 -1.16651106475364
          -6.26627294408593 -0.849575707816356 -1.5539290779438 -5.90218568950517 -1.47326206041583 -1.60885106988243 -6.10368356496559 -0.755976758136172 -1.70408294415569 -6.07781924599154 0 -0.881056665756608
          -5.72022541938764 0 -0.683559867766929 -5.9284560567486 0 -1.2738749357284 -6.28834722354268 0 -1.18905639410512 -6.34059065341728 0 -1.58227985868753
          -6.17281617027533 0 -1.7368029447368 -6.09235635393934 -1.68613114315654 0 -5.90769383810444 -1.87208002672374 0 -6.30180434866037 -0.865448686908532 0
          -6.12962392150624 -0.96030817075123 -1.01254904634826 -5.51122896978702 -2.10532925563684 0 -6.12724486321892 -0.962545926755061 0 -5.74516713206048 -1.08513452046811 -1.25932183398358
          -5.73392269203244 -1.0852662608445 0 -6.37405451749828 0 0 -6.2064915137732 0 -1.03112825419872 -6.20328322570759 0 0
          -5.82368280181012 0 -1.28301000167276 -5.81130844167465 0 0 -6.13074513984714 -0.953546099468991 -2.00743485951023 -5.9733033075813 -1.61092371909822 -2.16216737598764
          -5.87524991695535 -1.82557175230475 -2.80982257287911 -6.1939084994362 -0.827245322687416 -2.28249392333358 -5.77490017159523 -1.08482804921996 -2.5057965309495 -5.56277617187827 -2.09496973768631 -3.52465700659483
          -6.11203960489638 -0.939264836059991 -2.96511454755527 -5.8090102232657 -1.08095537684577 -3.72440341263672 -6.2098345464351 0 -2.04387343164555 -6.26999570932656 0 -2.32386652191996
          -6.19412180278967 0 -3.01869538022919 -5.85633792512692 0 -2.55247098445405 -5.89470972585517 0 -3.79371821252524 -4.76655263894372 -2.73339657549161 -0.58149382855649
          -4.78487696290408 -2.41062704989359 -1.10198023161117 -4.48203163687359 -2.5437235940031 -0.699278107972731 -4.96212564893125 -2.50081647994668 -1.61446007021326 -5.01848501946105 -2.76186998177552 -2.22279157099223
          -5.07921894886976 -2.18288110952602 -0.740495921022532 -5.14453910909289 -1.92182456262864 -1.31684637480455 -4.79046440120861 -2.03287795076958 -0.897819660231981 -5.42643069410164 -1.33868547804783 -1.47932414024567
          -5.36598244344468 -1.99261167952878 -1.87159838291723 -5.46329413442062 -2.20645731580522 -2.54781425055741 -5.68340598842227 -1.3873685222 -2.06696964631294 -4.39240343993498 -2.16643534429261 -1.29589113908633
          -4.06657940034108 -2.28054854006055 -0.769952238990736 -4.60525820033129 -2.27428978511944 -1.92462329995568 -4.72231614611367 -2.55684403230845 -2.66471341347746 -4.74099871548698 -1.72873388306501 -1.54943744165364
          -4.36085609578272 -1.82361630613251 -0.998237753444592 -5.0123216124518 -1.2044962103565 -1.74078574059836 -5.00358429228504 -1.81408910849623 -2.23160502689442 -5.17226396448721 -2.04572976890101 -3.05692544544057
          -5.31403846024642 -1.26312888946555 -2.46413891132737 -4.93115406174147 -3.15283928330641 -2.9172714719438 -4.65599601613858 -3.63196584841699 -3.67058925896673 -5.41158097858097 -2.53281983559129 -3.33765131830248
          -5.81497474769011 -1.53857864838312 -2.7962020115089 -5.15673024259908 -2.93994485163312 -4.21289367698778 -5.7945987827636 -1.77246204494999 -3.66102972466102 -5.56060447158038 -2.06811223313323 -4.63340571982993
          -4.7171093096139 -2.98062182444597 -3.52397993266708 -4.52636050298629 -3.50751753566914 -4.47772449809045 -5.21900764575732 -2.40003401124175 -4.0400526812445 -5.52406934988447 -1.42616917921223 -3.35500547009067
          -5.61354986303652 -1.67887924433934 -4.43343474332987 -5.06690790380616 -2.84953457855121 -5.15872015887442 -5.49620403405697 -2.00399092430179 -5.68022422750875 -5.32669970379535 -1.5217676084585 -0.860484863545751
          -5.4849042701982 -0.781277775735657 -0.935351955111788 -5.03342874787101 -1.41757124238128 -1.04734221329779 -5.60515040761057 -0.687214222713446 -1.58064087709422 -5.88511429961675 -0.711983247770805 -2.18893229371431
          -5.53877338878341 0 -0.961439128040755 -5.18806101800075 -0.727790179229459 -1.14038487528301 -5.66586489483275 0 -1.61547830055074 -5.24034463235949 0 -1.17282275793507
          -5.95405071808545 0 -2.23062424810233 -6.03932939261393 -0.790110585156866 -2.95144857176996 -6.11643763412618 0 -3.00447647591216 -5.18322756744675 -0.618280026585995 -1.85977105553737
          -4.59121334731781 -1.27167762446788 -1.16977847518821 -4.73698808614463 -0.652725853899539 -1.27620277089787 -5.50975216101456 -0.647991542993078 -2.60872002121038 -5.74612563574981 -0.731814091879366 -3.54005294096928
          -5.24089668778421 0 -1.90045330906297 -4.78581193582617 0 -1.3133132581662 -5.57618183621164 0 -2.65784272874024 -5.82188513189981 0 -3.60273458888075