<?xml version="1.0"?>
<VTKFile type="UnstructuredGrid" version="0.1" byte_order="LittleEndian">
  <UnstructuredGrid>
    <Piece NumberOfCells="1670" NumberOfPoints="911">
      <CellData Scalars="S_aq">
        <DataArray type="Float32" Name="S_aq" NumberOfComponents="1" format="ascii">
          0.212244 0.160319 0.164426 0.277791 0.269112 0.269105 0.160545 0.277769 0.16466 0.216996 0.193505 0.230118
          0.21317 0.202187 0.184407 0.235342 0.20439 0.210921 0.197359 0.224139 0.24295 0.178757 0.226889 0.235877
          0.183555 0.242633 0.223925 0.192869 0.220562 0.160217 0.203325 0.277145 0.212074 0.162766 0.270667 0.217036
          0.198778 0.179361 0.225778 0.235595 0.226679 0.190639 0.20224 0.199066 0.219766 0.196315 0.18665 0.217995
          0.168807 0.259245 0.218659 0.197418 0.235282 0.184043 0.278101 0.159116 0.159442 0.277961 0.235197 0.184351
          0.204401 0.208686 0.269804 0.206574 0.16311 0.187544 0.251285 0.2293 0.188622 0.208055 0.249603 0.206522
          0.174653 0.203234 0.218413 0.189453 0.190927 0.226473 0.237975 0.173843 0.250595 0.17392 0.223685 0.229124
          0.184858 0.188526 0.217336 0.220969 0.158273 0.213278 0.279305 0.202098 0.240534 0.213599 0.20179 0.241147
          0.179937 0.270975 0.162278 0.162571 0.270858 0.241096 0.18024 0.229627 0.251819 0.173143 0.173033 0.250083
          0.181829 0.237644 0.182546 0.174592 0.158248 0.279497 0.250062 0.158498 0.279508 0.249987 0.174849 0.210554
          0.257774 0.204114 0.169395 0.170901 0.162741 0.270831 0.256397 0.162987 0.270849 0.256348 0.171151 0.179796
          0.240725 0.240784 0.180298 0.197369 0.201948 0.213423 0.229278 0.203952 0.248328 0.19968 0.211189 0.252099
          0.215958 0.175591 0.172985 0.228765 0.226332 0.259899 0.191219 0.22605 0.27146 0.189316 0.228446 0.168322
          0.272081 0.188735 0.162228 0.190256 0.260472 0.167747 0.161592 0.195102 0.18802 0.188549 0.17824 0.211062
          0.193072 0.204349 0.235313 0.196864 0.209806 0.205225 0.2055 0.209603 0.183215 0.242756 0.178826 0.169131
          0.258255 0.258341 0.242732 0.169415 0.179132 0.217692 0.212775 0.202053 0.241517 0.245132 0.227574 0.229402
          0.21833 0.197293 0.223545 0.192955 0.234693 0.184024 0.234742 0.184397 0.193969 0.192211 0.180651 0.178199
          0.192711 0.190103 0.173257 0.251753 0.169349 0.258361 0.258317 0.251695 0.169611 0.17352 0.209741 0.212149
          0.218383 0.219926 0.197278 0.195544 0.273278 0.261631 0.167137 0.160957 0.176725 0.223284 0.193236 0.280739
          0.156977 0.157735 0.280196 0.222876 0.193768 0.244109 0.218337 0.197411 0.202195 0.198011 0.216451 0.198048
          0.254973 0.170882 0.188381 0.209773 0.205328 0.212232 0.389896 0.399478 0.360733 0.354518 0.317704 0.305054
          0.307776 0.691378 0.300595 0.341455 0.313023 0.341645 0.647705 0.386799 0.310223 0.343941 0.564368 0.568104
          0.592708 0.473392 0.493019 0.434312 0.374921 0.36472 0.44057 0.451016 0.337092 0.42917 0.340326 0.379941
          0.372803 0.912726 0.290657 0.351216 0.811613 0.427828 0.494852 0.503487 0.42644 0.589893 0.331356 0.347522
          0.292947 0.304008 0.317569 0.50458 0.419816 0.399014 0.386106 0.519058 0.3331 0.339043 0.654107 0.301739
          0.695873 0.368552 0.28997 0.313062 0.330028 0.325943 0.57146 0.290124 0.642028 0.354217 0.388705 0.382581
          0.293255 0.372885 0.375995 0.332371 0.364573 0.326263 0.385269 0.71308 0.803025 0.912311 0.912622 0.337137
          0.590775 0.325607 0.465188 0.477882 0.517919 0.509324 0.400713 0.446641 0.443324 0.330672 0.442706 0.528525
          0.417997 0.470469 0.414351 0.351171 0.345179 0.344256 0.59674 0.293328 0.355913 0.310089 0.413903 0.6975
          0.34723 0.449004 0.310154 0.388381 0.430535 0.430487 0.581652 0.392069 0.508851 0.461528 0.470225 0.568056
          0.524391 0.65276 0.650104 0.323652 0.527643 0.338304 0.292891 0.660988 0.660764 0.607409 0.321037 0.36316
          0.531881 0.524573 0.377585 0.319805 0.356147 0.411167 0.338151 0.400727 0.302451 0.484286 0.370645 0.381152
          0.289823 0.334608 0.91344 0.531168 0.301656 0.474625 0.320915 0.298395 0.558852 0.401513 0.400579 0.292276
          0.364225 0.459234 0.362257 0.321305 0.389584 0.323897 0.47528 0.346913 0.502144 0.808829 0.810797 0.414401
          0.297188 0.828522 0.824538 0.313992 0.296614 0.389073 0.599796 0.292856 0.321412 0.521718 0.341741 0.337922
          0.514786 0.301507 0.315791 0.292111 0.308436 0.311685 0.331363 0.289754 0.554724 0.414136 0.637288 0.35966
          0.318583 0.41357 0.296958 0.662456 0.324085 0.298404 0.389218 0.29701 0.917279 0.916288 0.588757 0.465598
          0.311637 0.377885 0.719659 0.723007 0.569133 0.418838 0.292637 0.331158 0.707327 0.709705 0.307686 0.48064
          0.416842 0.820275 0.823531 0.324941 0.3004 0.411862 0.410755 0.388016 0.38106 0.315064 0.305796 0.29853
          0.305447 0.65463 0.542725 0.344829 0.316749 0.399547 0.402011 0.387833 0.440683 0.399776 0.308606 0.31597
          0.556243 0.462655 0.58718 0.442331 0.442201 0.301498 0.306224 0.300792 0.462434 0.310128 0.437443 0.510065
          0.659656 0.480491 0.34683 0.714731 0.712552 0.334574 0.425755 0.316836 0.33353 0.330876 0.440188 0.451814
          0.373815 0.508256 0.342021 0.345628 0.381441 0.298002 0.308913 0.372825 0.501838 0.325586 0.448022 0.384776
          0.304708 0.34054 0.33539 0.357409 0.37204 0.289288 0.485577 0.324724 0.301942 0.367898 0.350185 0.345494
          0.365171 0.30557 0.732716 0.4126 0.624583 0.307268 0.289374 0.400795 0.356894 0.443675 0.460634 0.315988
          0.833607 0.488056 0.411795 0.327792 0.546477 0.31219 0.316617 0.320137 0.359525 0.318647 0.299076 0.469263
          0.77428 0.772463 0.289196 0.320219 0.574738 0.325438 0.351956 0.353269 0.33336 0.294722 0.370496 0.320065
          0.327832 0.914934 0.913469 0.292126 0.678034 0.295591 0.313194 0.866536 0.865089 0.400055 0.303114 0.289214
          0.310115 0.399682 0.602456 0.327383 0.332859 0.359347 0.291801 0.615504 0.932724 0.288745 0.93249 0.328669
          0.480828 0.300246 0.352747 0.352765 0.434379 0.421718 0.296211 0.366303 0.291722 0.313 0.412861 0.509284
          0.613773 0.361866 0.428925 0.34846 0.322514 0.33372 0.869277 0.87008 0.291737 0.329593 0.314195 0.424231
          0.296812 0.546997 0.317207 0.322397 0.51911 0.36577 0.308647 0.338478 0.367506 0.359355 0.298025 0.41315
          0.349956 0.534142 0.558867 0.357499 0.354477 0.30491 0.323702 0.434265 0.442374 0.291248 0.344218 0.305762
          0.305747 0.581504 0.590015 0.310397 0.68547 0.628101 0.531795 0.53319 0.331511 0.326271 0.300663 0.292812
          0.303321 0.573524 0.492268 0.573539 0.515822 0.428262 0.341786 0.292631 0.493632 0.314862 0.336272 0.350159
          0.336272 0.29063 0.458465 0.289666 0.290408 0.367314 0.473003 0.446613 0.500265 0.455433 0.411729 0.48456
          0.506785 0.52436 0.560111 0.370529 0.423748 0.319541 0.315326 0.567033 0.297513 0.413176 0.346663 0.314277
          0.560559 0.422157 0.614254 0.340348 0.546661 0.643616 0.304935 0.334078 0.30275 0.477292 0.312247 0.301708
          0.308553 0.306153 0.791223 0.445041 0.577162 0.597122 0.444973 0.454917 0.445389 0.505141 0.331418 0.413966
          0.585183 0.633071 0.353038 0.911741 0.467092 0.338831 0.302347 0.342157 0.297311 0.314878 0.293063 0.319466
          0.543179 0.315789 0.313618 0.307402 0.33778 0.3397 0.376084 0.316026 0.325638 0.577603 0.418438 0.292593
          0.356858 0.435262 0.316129 0.328717 0.694243 0.690729 0.650586 0.306661 0.333491 0.327913 0.370573 0.539
          0.589991 0.654799 0.343268 0.363668 0.49778 0.499085 0.336956 0.293882 0.300644 0.914473 0.91387 0.290232
          0.911023 0.395153 0.712664 0.707977 0.444147 0.511157 0.476855 0.637611 0.340348 0.312129 0.80298 0.748427
          0.74831 0.561324 0.52709 0.595302 0.440945 0.310042 0.397637 0.320463 0.384981 0.427224 0.705246 0.535932
          0.478779 0.365625 0.394006 0.323842 0.406659 0.366968 0.438772 0.366387 0.309668 0.326052 0.37653 0.483314
          0.379671 0.390568 0.844554 0.843118 0.389636 0.416945 0.451381 0.397411 0.444229 0.47776 0.561031 0.357735
          0.455366 0.449062 0.499734 0.290463 0.316107 0.382436 0.304455 0.392094 0.322411 0.292665 0.342874 0.537683
          0.470384 0.338048 0.289696 0.378078 0.40172 0.331158 0.349347 0.325822 0.408779 0.71798 0.718927 0.311523
          0.465704 0.37625 0.308711 0.391148 0.817912 0.821429 0.371857 0.332915 0.358863 0.400787 0.350998 0.367582
          0.349125 0.296684 0.601435 0.29235 0.343031 0.315365 0.301017 0.292276 0.416436 0.310378 0.323592 0.415063
          0.464056 0.305976 0.331503 0.350303 0.289868 0.388714 0.423079 0.381193 0.324908 0.386351 0.384633 0.314969
          0.318204 0.348846 0.606034 0.337538 0.385638 0.81477 0.814107 0.510488 0.316805 0.643708 0.48566 0.289536
          0.292545 0.305509 0.658464 0.380442 0.916531 0.91678 0.300859 0.442566 0.725812 0.344495 0.667983 0.292023
          0.505853 0.82749 0.356553 0.297307 0.37305 0.388062 0.37969 0.523086 0.350437 0.529374 0.36366 0.37327
          0.487745 0.472763 0.41712 0.339044 0.304627 0.360516 0.352465 0.430512 0.333418 0.344853 0.320154 0.327804
          0.426336 0.507965 0.351854 0.335913 0.669875 0.560011 0.337742 0.314406 0.355702 0.366417 0.414214 0.305967
          0.325121 0.620825 0.364538 0.410987 0.318864 0.358698 0.304176 0.299301 0.314377 0.365472 0.415208 0.448536
          0.376439 0.55221 0.325776 0.308823 0.396697 0.289411 0.401495 0.591885 0.308635 0.453434 0.347861 0.922264
          0.922143 0.326434 0.297377 0.914222 0.911911 0.323035 0.325984 0.340651 0.390776 0.483296 0.378596 0.842892
          0.841784 0.352424 0.389362 0.61638 0.296931 0.289257 0.300849 0.376034 0.360214 0.616492 0.329459 0.292509
          0.296776 0.356629 0.300717 0.511717 0.423345 0.319927 0.532999 0.297356 0.401234 0.402373 0.3189 0.394283
          0.316994 0.344088 0.674099 0.673436 0.404599 0.300344 0.34838 0.405624 0.352512 0.39561 0.351188 0.298365
          0.366457 0.360699 0.305319 0.310027 0.362255 0.445258 0.308617 0.323139 0.318488 0.422067 0.325613 0.358084
          0.425531 0.351313 0.544222 0.359241 0.369282 0.297198 0.629482 0.653298 0.304435 0.310443 0.312137 0.320245
          0.389344 0.299389 0.737226 0.737089 0.712713 0.712141 0.428276 0.409785 0.37192 0.381424 0.498431 0.507746
          0.469131 0.462704 0.42313 0.409264 0.412255 0.760508 0.404387 0.448937 0.41798 0.449142 0.724882 0.49536
          0.41492 0.451598 0.655298 0.658495 0.67938 0.576137 0.593596 0.540634 0.483569 0.473228 0.546398 0.555966
          0.444272 0.535859 0.447728 0.488581 0.481437 0.934268 0.393714 0.459275 0.855938 0.534592 0.595228 0.602851
          0.533297 0.677015 0.438034 0.45538 0.396167 0.408083 0.422999 0.603792 0.52711 0.507278 0.494678 0.61647
          0.439949 0.446366 0.730112 0.405621 0.764178 0.477169 0.393027 0.418052 0.436608 0.432161 0.661367 0.393159
          0.720393 0.462391 0.497255 0.491219 0.396485 0.481535 0.484641 0.439149 0.473095 0.432488 0.493887 0.777951
          0.849495 0.933871 0.934128 0.444317 0.677706 0.43177 0.568803 0.580199 0.615444 0.607913 0.508914 0.551975
          0.548945 0.437323 0.548349 0.624598 0.525399 0.573515 0.521953 0.459224 0.452907 0.451935 0.682736 0.396489
          0.464163 0.414716 0.521531 0.765598 0.455054 0.554134 0.414833 0.496939 0.537132 0.537088 0.669971 0.50054
          0.607516 0.565479 0.573316 0.658471 0.621045 0.726822 0.72903 0.429638 0.623914 0.445573 0.396055 0.735831
          0.735637 0.69159 0.426788 0.471648 0.627565 0.621209 0.486253 0.425437 0.46443 0.518935 0.445376 0.508926
          0.406392 0.585856 0.479276 0.489811 0.392839 0.441564 0.934606 0.626922 0.405565 0.577296 0.426673 0.402037
          0.650642 0.509704 0.508783 0.395448 0.472742 0.563435 0.470719 0.427082 0.498114 0.429928 0.577863 0.454743
          0.601636 0.853621 0.855323 0.522001 0.40067 0.869415 0.866326 0.419032 0.400078 0.497609 0.685274 0.395983
          0.427191 0.618748 0.449236 0.445134 0.612709 0.405359 0.421059 0.39526 0.41292 0.416514 0.438065 0.392716
          0.647131 0.52173 0.71641 0.468067 0.424104 0.521194 0.400469 0.737048 0.430133 0.402014 0.497759 0.400502
          0.937495 0.936691 0.676035 0.569177 0.416448 0.486529 0.783264 0.785956 0.659394 0.52617 0.395822 0.437856
          0.773409 0.775396 0.412132 0.582595 0.524305 0.865308 0.862751 0.431059 0.404173 0.51959 0.518543 0.496573
          0.489717 0.420198 0.410076 0.402084 0.40965 0.730598 0.636824 0.45251 0.422045 0.507809 0.510181 0.496398
          0.546493 0.508008 0.413158 0.421227 0.648397 0.566491 0.674686 0.548009 0.547911 0.405301 0.410488 0.404565
          0.5663 0.4148 0.543503 0.608612 0.73468 0.582492 0.454663 0.779641 0.777874 0.441524 0.532659 0.422177
          0.440413 0.43753 0.546037 0.556674 0.482472 0.606992 0.449527 0.453353 0.490101 0.401569 0.413472 0.481488
          0.601337 0.431793 0.553239 0.493386 0.408856 0.447922 0.442443 0.465704 0.480689 0.392202 0.587034 0.430853
          0.40583 0.476494 0.458189 0.453232 0.473717 0.409797 0.793846 0.520281 0.705873 0.411665 0.392391 0.509008
          0.465201 0.54924 0.564701 0.421263 0.873193 0.589235 0.519521 0.434183 0.640054 0.417068 0.421941 0.425799
          0.467918 0.424157 0.402716 0.572472 0.826734 0.8253 0.392173 0.425917 0.664189 0.431609 0.460029 0.461396
          0.440231 0.397969 0.479125 0.425696 0.434218 0.9355 0.93437 0.395302 0.749739 0.398967 0.41819 0.899028
          0.897942 0.508295 0.407121 0.392198 0.414798 0.507932 0.687425 0.433753 0.4397 0.467709 0.394861 0.698315
          0.949013 0.949186 0.391629 0.43515 0.582796 0.404029 0.460871 0.460896 0.54069 0.528888 0.399635 0.474847
          0.394821 0.417986 0.520525 0.607868 0.696981 0.470309 0.535613 0.456359 0.428428 0.440619 0.901102 0.901701
          0.394756 0.436157 0.419273 0.531234 0.400323 0.64053 0.422567 0.428275 0.616444 0.47433 0.413195 0.445749
          0.476102 0.467747 0.401581 0.520798 0.45793 0.629444 0.650682 0.465824 0.462689 0.409096 0.429716 0.540589
          0.548074 0.394311 0.451864 0.410008 0.409996 0.669846 0.677045 0.415101 0.352564 0.334042 0.387058 0.291902
          0.29618 0.383878 0.296142 0.383812 0.291857 0.386982 0.348161 0.338765 0.351603 0.335176 0.362064 0.32348
          0.366179 0.318641 0.353771 0.33285 0.312329 0.358539 0.32757 0.317648 0.360617 0.325215 0.312647 0.371095
          0.347898 0.339086 0.386722 0.292336 0.352416 0.334283 0.295385 0.384403 0.31793 0.366771 0.352076 0.334666
          0.352399 0.334271 0.345525 0.330911 0.355497 0.341459 0.353727 0.33288 0.301673 0.379682 0.387094 0.291795
          0.366595 0.318137 0.318173 0.366581 0.29188 0.387045 0.347648 0.339327 0.384111 0.342461 0.295877 0.344586
          0.376508 0.322976 0.306637 0.375851 0.374677 0.307772 0.342951 0.344074 0.35296 0.333674 0.326379 0.337203
          0.332378 0.349683 0.354178 0.368332 0.306995 0.316054 0.368325 0.339736 0.327795 0.347248 0.358318 0.337966
          0.348935 0.387574 0.291166 0.369867 0.31412 0.384531 0.295194 0.37027 0.313616 0.313653 0.370244 0.29527
          0.384475 0.306218 0.362575 0.362578 0.322921 0.37562 0.31612 0.307386 0.375265 0.324009 0.291004 0.387658
          0.375206 0.307454 0.307435 0.375167 0.291006 0.387626 0.378783 0.340604 0.30255 0.346401 0.295298 0.384512
          0.378312 0.303474 0.30345 0.378265 0.295283 0.384467 0.370308 0.313825 0.314021 0.369995 0.359919 0.36151
          0.325687 0.323843 0.374304 0.376258 0.30856 0.306076 0.351419 0.347003 0.335349 0.339932 0.384983 0.380552
          0.379984 0.359955 0.301244 0.361789 0.325871 0.384714 0.294934 0.325691 0.360147 0.323772 0.294603 0.3009
          0.323577 0.361979 0.373664 0.359426 0.354899 0.326845 0.331519 0.359572 0.362364 0.365944 0.323291 0.318638
          0.369985 0.357011 0.357337 0.329211 0.328853 0.361986 0.379247 0.371205 0.302223 0.312513 0.31255 0.371174
          0.302287 0.379183 0.369986 0.310937 0.313381 0.338218 0.33343 0.3487 0.353187 0.360767 0.324986 0.362529
          0.322945 0.366882 0.318389 0.318562 0.366215 0.346658 0.341968 0.345058 0.340313 0.366597 0.37289 0.379231
          0.376115 0.302299 0.306304 0.306289 0.302286 0.376076 0.379189 0.385487 0.381074 0.293985 0.300298 0.33153
          0.354909 0.332926 0.353618 0.388083 0.290364 0.35748 0.328683 0.328453 0.357689 0.290618 0.387843 0.371859
          0.311702 0.342915 0.344121 0.340476 0.346518 0.377789 0.304211 0.334732 0.351956 0.368645 0.354742 0.331688
          0.348229 0.338695
        </DataArray>
        <DataArray type="Float32" Name="p_aq" NumberOfComponents="1" format="ascii">
          100097 100144 100143 100049 100052 100052 100144 100049 100143 100091 100120 100077
          100096 100109 100129 100072 100107 100098 100115 100083 100066 100134 100081 100072
          100130 100067 100083 100121 100087 100144 100108 100050 100097 100143 100052 100091
          100114 100134 100081 100072 100081 100123 100109 100113 100088 100116 100127 100090
          100141 100057 100089 100115 100072 100130 100049 100144 100144 100049 100072 100130
          100107 100101 100052 100104 100143 100126 100061 100078 100125 100102 100062 100104
          100137 100108 100089 100124 100123 100081 100070 100138 100061 100138 100084 100078
          100129 100125 100090 100086 100144 100096 100049 100110 100068 100095 100110 100068
          100133 100052 100143 100143 100052 100068 100133 100078 100061 100138 100138 100062
          100132 100070 100132 100138 100144 100049 100062 100144 100049 100062 100138 100099
          100057 100107 100140 100140 100143 100052 100058 100143 100052 100058 100140 100133
          100068 100068 100133 100115 100109 100095 100078 100107 100063 100113 100098 100060
          100092 100137 100138 100078 100081 100056 100123 100081 100051 100125 100079 100141
          100051 100125 100143 100124 100056 100141 100143 100118 100126 100125 100135 100098
          100120 100107 100072 100116 100100 100105 100105 100100 100130 100067 100134 100140
          100057 100057 100067 100140 100134 100090 100096 100109 100067 100065 100079 100078
          100089 100115 100084 100120 100073 100130 100073 100130 100119 100121 100133 100135
          100121 100124 100138 100061 100140 100057 100057 100061 100140 100138 100100 100097
          100089 100088 100115 100117 100051 100056 100141 100143 100136 100084 100120 100048
          100144 100144 100048 100084 100120 100066 100089 100115 100109 100114 100092 100114
          100059 100139 100125 100099 100105 100097 100011 100009 100016 100018 100031 100037
          100036 100000 100040 100021 100033 100021 100001 100011 100035 100021 100001 100001
          100001 100004 100003 100006 100013 100015 100006 100005 100023 100006 100022 100012
          100013 100000 100045 100019 100000 100006 100003 100003 100007 100001 100025 100020
          100044 100038 100031 100003 100007 100009 100011 100002 100024 100022 100001 100039
          100000 100014 100045 100033 100026 100027 100001 100045 100001 100018 100011 100012
          100043 100013 100013 100025 100015 100027 100011 100000 100000 100000 100000 100023
          100001 100027 100004 100004 100002 100003 100009 100005 100005 100025 100005 100002
          100007 100004 100008 100019 100020 100021 100001 100043 100017 100035 100008 100000
          100020 100005 100035 100011 100006 100006 100001 100010 100003 100004 100004 100001
          100002 100001 100001 100028 100002 100023 100044 100001 100001 100001 100029 100016
          100002 100002 100013 100030 100017 100008 100023 100009 100039 100003 100014 100012
          100045 100024 100000 100002 100039 100004 100029 100041 100002 100009 100009 100044
          100015 100004 100016 100029 100011 100028 100004 100020 100003 100000 100000 100008
          100041 100000 100000 100033 100042 100011 100001 100044 100029 100002 100021 100023
          100002 100039 100032 100044 100036 100034 100025 100045 100002 100008 100001 100016
          100031 100008 100041 100001 100028 100041 100011 100041 100000 100000 100001 100004
          100034 100013 100000 100000 100001 100007 100044 100025 100000 100000 100036 100003
          100007 100000 100000 100028 100040 100008 100008 100011 100012 100032 100037 100041
          100037 100001 100002 100020 100031 100009 100009 100011 100005 100009 100035 100032
          100002 100004 100001 100005 100005 100039 100037 100039 100004 100035 100006 100003
          100001 100003 100020 100000 100000 100024 100007 100031 100024 100025 100006 100005
          100013 100003 100021 100020 100012 100041 100035 100013 100003 100027 100005 100011
          100037 100022 100024 100017 100014 100046 100003 100028 100039 100014 100019 100020
          100015 100037 100000 100008 100001 100036 100045 100009 100017 100005 100004 100032
          100000 100003 100008 100027 100002 100034 100031 100030 100016 100031 100040 100004
          100000 100000 100046 100030 100001 100028 100018 100018 100024 100043 100014 100030
          100027 100000 100000 100044 100000 100042 100033 100000 100000 100009 100038 100046
          100035 100009 100001 100027 100025 100016 100044 100001 100000 100046 100000 100026
          100003 100040 100018 100018 100006 100007 100042 100015 100044 100033 100008 100003
          100001 100016 100006 100019 100029 100024 100000 100000 100044 100026 100033 100007
          100042 100002 100031 100029 100002 100015 100035 100022 100014 100016 100041 100008
          100019 100002 100002 100017 100018 100037 100028 100006 100005 100044 100021 100037
          100037 100001 100001 100034 100000 100001 100002 100002 100025 100027 100039 100044
          100038 100001 100003 100001 100002 100006 100021 100044 100003 100032 100023 100019
          100023 100045 100004 100045 100045 100015 100004 100005 100003 100005 100008 100003
          100003 100002 100001 100014 100007 100030 100032 100001 100041 100008 100020 100033
          100002 100007 100001 100022 100002 100001 100037 100024 100038 100004 100034 100039
          100035 100037 100000 100005 100001 100001 100005 100005 100005 100003 100025 100008
          100001 100001 100018 100000 100004 100022 100039 100021 100041 100032 100044 100030
          100002 100032 100033 100036 100023 100022 100013 100032 100027 100001 100007 100044
          100017 100006 100032 100026 100000 100000 100001 100036 100024 100026 100014 100002
          100001 100001 100021 100015 100003 100003 100023 100043 100039 100000 100000 100045
          100000 100010 100000 100000 100005 100002 100004 100001 100022 100034 100000 100000
          100000 100001 100002 100001 100005 100035 100010 100030 100011 100006 100000 100002
          100004 100015 100010 100028 100008 100015 100006 100015 100035 100027 100013 100003
          100012 100011 100000 100000 100011 100007 100005 100010 100005 100004 100002 100017
          100005 100005 100003 100045 100032 100012 100037 100010 100029 100044 100021 100002
          100004 100023 100045 100013 100009 100025 100019 100027 100008 100000 100000 100034
          100004 100013 100035 100010 100000 100000 100014 100024 100016 100009 100018 100014
          100019 100042 100001 100044 100021 100032 100039 100044 100007 100034 100028 100008
          100004 100037 100025 100019 100045 100011 100007 100012 100028 100011 100011 100032
          100031 100019 100001 100023 100011 100000 100000 100003 100031 100001 100003 100045
          100044 100037 100001 100012 100000 100000 100039 100005 100000 100020 100001 100044
          100003 100000 100017 100041 100013 100011 100012 100002 100019 100002 100015 100013
          100003 100004 100007 100022 100037 100016 100018 100006 100024 100020 100030 100026
          100007 100003 100018 100023 100001 100002 100023 100032 100017 100015 100008 100037
          100028 100001 100015 100008 100030 100017 100038 100040 100033 100015 100008 100005
          100013 100002 100027 100035 100010 100045 100009 100001 100035 100005 100019 100000
          100000 100027 100041 100000 100000 100028 100027 100022 100010 100003 100012 100000
          100000 100018 100011 100001 100041 100045 100039 100013 100016 100001 100026 100044
          100041 100017 100040 100002 100007 100030 100002 100041 100009 100009 100030 100010
          100031 100021 100001 100001 100009 100040 100019 100009 100018 100010 100018 100041
          100015 100016 100037 100035 100016 100005 100035 100028 100031 100007 100027 100017
          100007 100018 100002 100016 100014 100041 100001 100001 100037 100034 100034 100030
          100011 100040 100000 100000 100000 100000 100006 100008 100014 100012 100009 100008
          100012 100013 100022 100026 100025 100001 100027 100016 100023 100016 100001 100009
          100024 100015 100002 100002 100001 100004 100003 100005 100010 100012 100005 100005
          100017 100006 100016 100010 100011 100000 100031 100014 100000 100006 100003 100003
          100006 100001 100018 100015 100030 100026 100022 100003 100006 100008 100009 100002
          100018 100016 100001 100027 100001 100011 100031 100023 100018 100020 100002 100031
          100001 100013 100009 100009 100030 100011 100010 100018 100012 100019 100009 100000
          100000 100000 100000 100017 100001 100020 100004 100004 100002 100003 100008 100005
          100005 100018 100005 100002 100006 100004 100007 100014 100015 100015 100001 100030
          100013 100024 100007 100001 100015 100005 100024 100009 100006 100006 100001 100008
          100003 100004 100004 100002 100002 100001 100001 100020 100002 100017 100030 100001
          100001 100001 100021 100012 100002 100002 100010 100021 100013 100007 100017 100008
          100027 100003 100011 100010 100031 100017 100000 100002 100027 100004 100021 100028
          100002 100008 100008 100030 100012 100004 100012 100021 100009 100020 100004 100015
          100003 100000 100000 100007 100028 100000 100000 100023 100029 100009 100001 100030
          100021 100002 100016 100017 100003 100027 100022 100030 100025 100024 100018 100031
          100002 100007 100001 100012 100022 100007 100029 100001 100020 100028 100009 100029
          100000 100000 100001 100004 100024 100010 100000 100000 100002 100006 100030 100018
          100000 100000 100025 100003 100006 100000 100000 100020 100027 100007 100007 100009
          100010 100023 100026 100028 100026 100001 100002 100015 100022 100008 100008 100009
          100005 100008 100025 100022 100002 100004 100001 100005 100005 100027 100025 100027
          100004 100024 100005 100003 100001 100003 100015 100000 100000 100017 100006 100022
          100018 100018 100005 100004 100010 100003 100016 100015 100010 100028 100025 100011
          100003 100020 100005 100009 100026 100016 100017 100013 100011 100031 100003 100020
          100027 100011 100014 100015 100012 100026 100000 100007 100001 100025 100031 100008
          100013 100005 100004 100022 100000 100003 100007 100019 100002 100024 100022 100021
          100013 100022 100028 100004 100000 100000 100031 100021 100002 100020 100014 100014
          100018 100029 100011 100021 100019 100000 100000 100030 100001 100029 100023 100000
          100000 100008 100026 100031 100024 100008 100001 100019 100018 100013 100030 100001
          100000 100000 100031 100019 100003 100027 100014 100014 100005 100006 100029 100012
          100030 100023 100007 100003 100001 100012 100006 100014 100020 100018 100000 100000
          100030 100019 100023 100006 100029 100002 100022 100020 100002 100012 100025 100016
          100011 100013 100028 100007 100014 100002 100002 100013 100013 100026 100020 100005
          100005 100031 100015 100026 100026 100001 100001 100024 100043 100047 100033 100047
          100048 100034 100048 100034 100047 100033 100044 100046 100043 100046 100041 100048
          100040 100048 100043 100047 100048 100042 100047 100048 100041 100048 100048 100038
          100044 100046 100033 100047 100043 100047 100048 100034 100048 100039 100043 100047
          100043 100047 100045 100047 100042 100045 100043 100047 100048 100035 100033 100047
          100039 100048 100048 100039 100047 100033 100044 100046 100034 100045 100048 100045
          100036 100048 100048 100037 100037 100048 100045 100045 100043 100047 100047 100046
          100047 100044 100043 100039 100048 100048 100039 100046 100047 100044 100042 100046
          100044 100033 100047 100038 100048 100034 100047 100038 100048 100048 100038 100047
          100034 100048 100041 100041 100048 100037 100048 100048 100037 100048 100047 100033
          100037 100048 100048 100037 100047 100033 100036 100046 100048 100045 100048 100034
          100036 100048 100048 100036 100048 100034 100038 100048 100048 100038 100041 100041
          100048 100048 100037 100036 100048 100048 100043 100044 100046 100046 100034 100035
          100035 100041 100048 100041 100048 100034 100047 100048 100041 100048 100047 100048
          100048 100041 100037 100041 100043 100047 100047 100041 100041 100040 100048 100048
          100038 100042 100042 100047 100047 100041 100036 100038 100048 100048 100048 100038
          100048 100036 100038 100048 100048 100046 100047 100044 100043 100041 100048 100041
          100048 100039 100048 100048 100040 100044 100045 100045 100046 100039 100038 100036
          100037 100048 100048 100048 100048 100037 100036 100033 100035 100047 100048 100047
          100043 100047 100043 100033 100047 100042 100047 100047 100042 100047 100033 100038
          100048 100045 100045 100046 100044 100036 100048 100047 100043 100039 100043 100047
          100044 100046
        </DataArray>
        <DataArray type="Float32" Name="rho_aq" NumberOfComponents="1" format="ascii">
          1000 1000 1000 1000 1000 1000 1000 1000 1000 1000 1000 1000
          1000 1000 1000 1000 1000 1000 1000 1000 1000 1000 1000 1000