<?xml version="1.0"?>
<VTKFile type="UnstructuredGrid" version="0.1" byte_order="LittleEndian">
  <UnstructuredGrid>
    <Piece NumberOfCells="125" NumberOfPoints="216">
      <CellData Scalars="wallDistance">
        <DataArray type="Float32" Name="wallDistance" NumberOfComponents="1" format="ascii">
          0.0801906 0.240572 0.0801906 0.240572 0.400953 0.22248 0.149668 0.240572 0.0768566 0.0801906 0.0801906 0.240572
          0.0801906 0.240572 0.400953 0.22248 0.149668 0.240572 0.0768566 0.0801906 0.0801906 0.240572 0.400953 0.240572
          0.0801906 0.0801906 0.240572 0.400953 0.240572 0.0801906 0.0768566 0.0801906 0.149668 0.240572 0.22248 0.240572
          0.0801906 0.400953 0.240572 0.0801906 0.0768566 0.0801906 0.149668 0.240572 0.22248 0.240572 0.0801906 0.400953
          0.240572 0.0801906 0.0801906 0.240572 0.0801906 0.240572 0.0801906 0.240572 0.400953 0.0801906 0.240572 0.400953
          0.22248 0.149668 0.240572 0.0768566 0.0801906 0.22248 0.149668 0.240572 0.0768566 0.0801906 0.0801906 0.240572
          0.0801906 0.240572 0.400953 0.22248 0.149668 0.240572 0.0768566 0.0801906 0.0801906 0.240572 0.400953 0.240572
          0.0801906 0.240572 0.400953 0.240572 0.0801906 0.0801906 0.0801906 0.240572 0.400953 0.240572 0.0801906 0.0768566
          0.0801906 0.149668 0.240572 0.22248 0.0768566 0.0801906 0.149668 0.240572 0.22248 0.240572 0.0801906 0.240572
          0.0801906 0.400953 0.240572 0.0801906 0.400953 0.240572 0.0801906 0.0768566 0.0801906 0.149668 0.240572 0.22248
          0.240572 0.0801906 0.400953 0.240572 0.0801906
        </DataArray>
        <DataArray type="Float32" Name="wallElementIndex" NumberOfComponents="1" format="ascii">
          0 0 2 2 2 6 6 9 8 9 10 10
          12 12 12 16 16 19 18 19 20 20 24 24
          24 25 25 29 29 29 30 31 32 31 32 36
          36 39 39 39 40 41 42 41 42 46 46 49
          49 49 50 50 52 52 54 54 54 57 57 57
          61 61 64 63 64 66 66 69 68 69 70 70
          72 72 72 76 76 79 78 79 80 80 88 88
          84 84 89 89 88 89 90 90 94 94 94 95
          96 97 96 97 100 101 102 101 102 106 106 108
          108 111 111 111 114 114 114 115 116 117 116 117
          121 121 124 124 124
        </DataArray>
      </CellData>
      <Points>
        <DataArray type="Float32" Name="Coordinates" NumberOfComponents="3" format="ascii">
          -0.663394 -0.481984 0 -0.809017 -0.587785 0 -1.50632e-16 -0.82 0 -1.83697e-16 -1 0
          -0.663394 -0.481984 0.2 -0.809017 -0.587785 0.2 -1.50632e-16 -0.82 0.2 -1.83697e-16 -1 0.2
          -0.517771 -0.376183 0 -1.17566e-16 -0.64 0 -0.517771 -0.376183 0.2 -1.17566e-16 -0.64 0.2
          -0.779866 0.253394 0 -0.951057 0.309017 0 -0.779866 0.253394 0.2 -0.951057 0.309017 0.2
          -0.608676 0.197771 0 -0.608676 0.197771 0.2 -0.437486 0.142148 0 -0.372148 -0.270381 0
          -0.437486 0.142148 0.2 -0.372148 -0.270381 0.2 -8.45006e-17 -0.46 0 -8.45006e-17 -0.46 0.2
          -0.226525 -0.16458 0 -5.14352e-17 -0.28 0 -0.226525 -0.16458 0.2 -5.14352e-17 -0.28 0.2
          -0.266296 0.0865248 0 -0.266296 0.0865248 0.2 -0.0809017 -0.0587785 0 -1.83697e-17 -0.1 0
          -0.0809017 -0.0587785 0.2 -1.83697e-17 -0.1 0.2 -0.0951056 0.0309017 0 -0.0951056 0.0309017 0.2
          -0.663394 -0.481984 0.4 -0.809017 -0.587785 0.4 -1.50632e-16 -0.82 0.4 -1.83697e-16 -1 0.4
          -0.517771 -0.376183 0.4 -1.17566e-16 -0.64 0.4 -0.779866 0.253394 0.4 -0.951057 0.309017 0.4
          -0.608676 0.197771 0.4 -0.437486 0.142148 0.4 -0.372148 -0.270381 0.4 -8.45006e-17 -0.46 0.4
          -0.226525 -0.16458 0.4 -5.14352e-17 -0.28 0.4 -0.266296 0.0865248 0.4 -0.0809017 -0.0587785 0.4
          -1.83697e-17 -0.1 0.4 -0.0951056 0.0309017 0.4 -0.0309017 0.0951056 0 -0.0865248 0.266296 0
          -0.0309017 0.0951056 0.2 -0.0865248 0.266296 0.2 -0.142148 0.437486 0 -0.142148 0.437486 0.2
          -0.197771 0.608676 0 -0.197771 0.608676 0.2 -0.253394 0.779866 0 -0.253394 0.779866 0.2
          -0.309017 0.951057 0 -0.309017 0.951057 0.2 -0.0309017 0.0951056 0.4 -0.0865248 0.266296 0.4
          -0.142148 0.437486 0.4 -0.197771 0.608676 0.4 -0.253394 0.779866 0.4 -0.309017 0.951057 0.4
          0.1 0 0 0.28 0 0 0.0587785 0.0809017 0 0.16458 0.226525 0
          0.1 0 0.2 0.28 0 0.2 0.0587785 0.0809017 0.2 0.16458 0.226525 0.2
          0.46 0 0 0.270381 0.372148 0 0.46 0 0.2 0.270381 0.372148 0.2
          0.64 0 0 0.376183 0.517771 0 0.64 0 0.2 0.376183 0.517771 0.2
          0.82 0 0 0.481984 0.663394 0 0.82 0 0.2 0.481984 0.663394 0.2
          1 0 0 0.587785 0.809017 0 1 0 0.2 0.587785 0.809017 0.2
          0.1 0 0.4 0.28 0 0.4 0.0587785 0.0809017 0.4 0.16458 0.226525 0.4
          0.46 0 0.4 0.270381 0.372148 0.4 0.64 0 0.4 0.376183 0.517771 0.4
          0.82 0 0.4 0.481984 0.663394 0.4 1 0 0.4 0.587785 0.809017 0.4
          -0.663394 -0.481984 0.6 -0.809017 -0.587785 0.6 -1.50632e-16 -0.82 0.6 -1.83697e-16 -1 0.6
          -0.517771 -0.376183 0.6 -1.17566e-16 -0.64 0.6 -0.663394 -0.481984 0.8 -0.809017 -0.587785 0.8
          -1.50632e-16 -0.82 0.8 -1.83697e-16 -1 0.8 -0.517771 -0.376183 0.8 -1.17566e-16 -0.64 0.8
          -0.779866 0.253394 0.6 -0.951057 0.309017 0.6 -0.608676 0.197771 0.6 -0.437486 0.142148 0.6
          -0.372148 -0.270381 0.6 -0.779866 0.253394 0.8 -0.951057 0.309017 0.8 -0.608676 0.197771 0.8
          -0.437486 0.142148 0.8 -0.372148 -0.270381 0.8 -8.45006e-17 -0.46 0.6 -0.226525 -0.16458 0.6
          -5.14352e-17 -0.28 0.6 -0.266296 0.0865248 0.6 -0.0809017 -0.0587785 0.6 -1.83697e-17 -0.1 0.6
          -0.0951056 0.0309017 0.6 -8.45006e-17 -0.46 0.8 -0.226525 -0.16458 0.8 -5.14352e-17 -0.28 0.8
          -0.266296 0.0865248 0.8 -0.0809017 -0.0587785 0.8 -1.83697e-17 -0.1 0.8 -0.0951056 0.0309017 0.8
          -0.663394 -0.481984 1 -0.809017 -0.587785 1 -1.50632e-16 -0.82 1 -1.83697e-16 -1 1
          -0.517771 -0.376183 1 -1.17566e-16 -0.64 1 -0.779866 0.253394 1 -0.951057 0.309017 1
          -0.608676 0.197771 1 -0.437486 0.142148 1 -0.372148 -0.270381 1 -8.45006e-17 -0.46 1
          -0.226525 -0.16458 1 -5.14352e-17 -0.28 1 -0.266296 0.0865248 1 -0.0809017 -0.0587785 1
          -1.83697e-17 -0.1 1 -0.0951056 0.0309017 1 -0.0309017 0.0951056 0.6 -0.0865248 0.266296 0.6
          -0.142148 0.437486 0.6 -0.197771 0.608676 0.6 -0.253394 0.779866 0.6 -0.0309017 0.0951056 0.8
          -0.0865248 0.266296 0.8 -0.142148 0.437486 0.8 -0.197771 0.608676 0.8 -0.253394 0.779866 0.8
          -0.309017 0.951057 0.6 -0.309017 0.951057 0.8 -0.0309017 0.0951056 1 -0.0865248 0.266296 1
          -0.142148 0.437486 1 -0.197771 0.608676 1 -0.253394 0.779866 1 -0.309017 0.951057 1
          0.1 0 0.6 0.28 0 0.6 0.0587785 0.0809017 0.6 0.16458 0.226525 0.6
          0.46 0 0.6 0.270381 0.372148 0.6 0.64 0 0.6 0.376183 0.517771 0.6
          0.1 0 0.8 0.28 0 0.8 0.0587785 0.0809017 0.8 0.16458 0.226525 0.8
          0.46 0 0.8 0.270381 0.372148 0.8 0.64 0 0.8 0.376183 0.517771 0.8
          0.82 0 0.6 0.481984 0.663394 0.6 1 0 0.6 0.587785 0.809017 0.6
          0.82 0 0.8 0.481984 0.663394 0.8 1 0 0.8 0.587785 0.809017 0.8
          0.1 0 1 0.28 0 1 0.0587785 0.0809017 1 0.16458 0.226525 1
          0.46 0 1 0.270381 0.372148 1 0.64 0 1 0.376183 0.517771 1
          0.82 0 1 0.481984 0.663394 1 1 0 1 0.587785 0.809017 1
        </DataArray>
      </Points>
      <Cells>
        <DataArray type="Int32" Name="connectivity" NumberOfComponents="1" format="ascii">
          0 1 3 2 4 5 7 6 8 0 2 9
          10 4 6 11 12 13 1 0 14 15 5 4
          16 12 0 8 17 14 4 10 18 16 8 19
          20 17 10 21 19 8 9 22 21 10 11 23
          24 19 22 25 26 21 23 27 28 18 19 24
          29 20 21 26 30 24 25 31 32 26 27 33
          34 28 24 30 35 29 26 32 4 5 7 6
          36 37 39 38 10 4 6 11 40 36 38 41
          14 15 5 4 42 43 37 36 17 14 4 10
          44 42 36 40 20 17 10 21 45 44 40 46
          21 10 11 23 46 40 41 47 26 21 23 27
          48 46 47 49 29 20 21 26 50 45 46 48
          32 26 27 33 51 48 49 52 35 29 26 32
          53 50 48 51 54 55 28 34 56 57 29 35
          55 58 18 28 57 59 20 29 58 60 16 18
          59 61 17 20 60 62 12 16 61 63 14 17
          62 64 13 12 63 65 15 14 56 57 29 35
          66 67 50 53 57 59 20 29 67 68 45 50
          59 61 17 20 68 69 44 45 61 63 14 17
          69 70 42 44 63 65 15 14 70 71 43 42
          72 73 75 74 76 77 79 78 74 75 55 54
          78 79 57 56 73 80 81 75 77 82 83 79
          75 81 58 55 79 83 59 57 80 84 85 81
          82 86 87 83 84 88 89 85 86 90 91 87
          88 92 93 89 90 94 95 91 81 85 60 58
          83 87 61 59 85 89 62 60 87 91 63 61
          89 93 64 62 91 95 65 63 76 77 79 78
          96 97 99 98 78 79 57 56 98 99 67 66
          77 82 83 79 97 100 101 99 79 83 59 57
          99 101 68 67 82 86 87 83 100 102 103 101
          86 90 91 87 102 104 105 103 90 94 95 91
          104 106 107 105 83 87 61 59 101 103 69 68
          87 91 63 61 103 105 70 69 91 95 65 63
          105 107 71 70 36 37 39 38 108 109 111 110
          40 36 38 41 112 108 110 113 108 109 111 110
          114 115 117 116 112 108 110 113 118 114 116 119
          42 43 37 36 120 121 109 108 44 42 36 40
          122 120 108 112 45 44 40 46 123 122 112 124
          120 121 109 108 125 126 115 114 122 120 108 112
          127 125 114 118 123 122 112 124 128 127 118 129
          46 40 41 47 124 112 113 130 48 46 47 49
          131 124 130 132 50 45 46 48 133 123 124 131
          51 48 49 52 134 131 132 135 53 50 48 51
          136 133 131 134 124 112 113 130 129 118 119 137
          131 124 130 132 138 129 137 139 133 123 124 131
          140 128 129 138 134 131 132 135 141 138 139 142
          136 133 131 134 143 140 138 141 114 115 117 116
          144 145 147 146 118 114 116 119 148 144 146 149
          125 126 115 114 150 151 145 144 127 125 114 118
          152 150 144 148 128 127 118 129 153 152 148 154
          129 118 119 137 154 148 149 155 138 129 137 139
          156 154 155 157 140 128 129 138 158 153 154 156
          141 138 139 142 159 156 157 160 143 140 138 141
          161 158 156 159 66 67 50 53 162 163 133 136
          67 68 45 50 163 164 123 133 68 69 44 45
          164 165 122 123 69 70 42 44 165 166 120 122
          162 163 133 136 167 168 140 143 163 164 123 133
          168 169 128 140 164 165 122 123 169 170 127 128
          165 166 120 122 170 171 125 127 70 71 43 42
          166 172 121 120 166 172 121 120 171 173 126 125
          167 168 140 143 174 175 158 161 168 169 128 140
          175 176 153 158 169 170 127 128 176 177 152 153
          170 171 125 127 177 178 150 152 171 173 126 125
          178 179 151 150 96 97 99 98 180 181 183 182
          98 99 67 66 182 183 163 162 97 100 101 99
          181 184 185 183 99 101 68 67 183 185 164 163
          100 102 103 101 184 186 187 185 180 181 183 182
          188 189 191 190 182 183 163 162 190 191 168 167
          181 184 185 183 189 192 193 191 183 185 164 163
          191 193 169 168 184 186 187 185 192 194 195 193
          102 104 105 103 186 196 197 187 104 106 107 105
          196 198 199 197 186 196 197 187 194 200 201 195
          196 198 199 197 200 202 203 201 101 103 69 68
          185 187 165 164 103 105 70 69 187 197 166 165
          105 107 71 70 197 199 172 166 185 187 165 164
          193 195 170 169 187 197 166 165 195 201 171 170
          197 199 172 166 201 203 173 171 188 189 191 190
          204 205 207 206 190 191 168 167 206 207 175 174
          189 192 193 191 205 208 209 207 191 193 169 168
          207 209 176 175 192 194 195 193 208 210 211 209
          194 200 201 195 210 212 213 211 200 202 203 201
          212 214 215 213 193 195 170 169 209 211 177 176
          195 201 171 170 211 213 178 177 201 203 173 171
          213 215 179 178
        </DataArray>
        <DataArray type="Int32" Name="offsets" NumberOfComponents="1" format="ascii">
          8 16 24 32 40 48 56 64 72 80 88 96
          104 112 120 128 136 144 152 160 168 176 184 192
          200 208 216 224 232 240 248 256 264 272 280 288
          296 304 312 320 328 336 344 352 360 368 376 384
          392 400 408 416 424 432 440 448 456 464 472 480
          488 496 504 512 520 528 536 544 552 560 568 576
          584 592 600 608 616 624 632 640 648 656 664 672
          680 688 696 704 712 720 728 736 744 752 760 768
          776 784 792 800 808 816 824 832 840 848 856 864
          872 880 888 896 904 912 920 928 936 944 952 960
          968 976 984 992 1000
        </DataArray>
        <DataArray type="UInt8" Name="types" NumberOfComponents="1" format="ascii">
          12 12 12 12 12 12 12 12 12 12 12 12
          12 12 12 12 12 12 12 12 12 12 12 12
          12 12 12 12 12 12 12 12 12 12 12 12
          12 12 12 12 12 12 12 12 12 12 12 12
          12 12 12 12 12 12 12 12 12 12 12 12
          12 12 12 12 12 12 12 12 12 12 12 12
          12 12 12 12 12 12 12 12 12 12 12 12
          12 12 12 12 12 12 12 12 12 12 12 12
          12 12 12 12 12 12 12 12 12 12 12 12
          12 12 12 12 12 12 12 12 12 12 12 12
          12 12 12 12 12
        </DataArray>
      </Cells>
    </Piece>
  </UnstructuredGrid>
</VTKFile>
