<?xml version="1.0"?>
<VTKFile type="UnstructuredGrid" version="0.1" byte_order="LittleEndian">
  <UnstructuredGrid>
    <Piece NumberOfCells="728" NumberOfPoints="783">
      <CellData Scalars="p">
        <DataArray type="Float32" Name="p" NumberOfComponents="1" format="ascii">
          100000 100000 100000 100000 100000 100000 100000 100000 100000 100000 100000 100000
          100000 100000 100000 100000 100000 100000 100000 100000 100000 100000 100000 100000
          100000 100000 100000 100000 100000 100000 100000 100000 100000 100000 100000 100000
          100000 100000 100000 100000 100000 100000 100000 100000 100000 100000 100000 100000
          100000 100000 100000 100000 100000 100000 100000 100000 100000 100000 100000 100000
          100000 100000 100000 100000 100000 100000 100000 100000 100000 100000 100000 100000
          100000 100000 100000 100000 100000 100000 100000 100000 100000 100000 100000 100000
          100000 100000 100000 100000 100000 100000 100000 100000 100000 100000 100000 100000
          100000 100000 100000 100000 100000 100000 100000 100000 100000 100000 100000 100000
          100000 100000 100000 100000 100000 100000 100000 100000 100000 100000 100000 100000
          100000 100000 100000 100000 100000 100000 100000 100000 100000 100000 100000 100000
          100000 100000 100000 100000 100000 100000 100000 100000 100000 100000 100000 100000
          100000 100000 100000 100000 100000 100000 100000 100000 100000 100000 100000 100000
          100000 100000 100000 100000 100000 100000 100000 100000 100000 100000 100000 100000
          100000 100000 100000 100000 100000 100000 100000 100000 100000 100000 100000 100000
          100000 100000 100000 100000 100000 100000 100000 100000 100000 100000 100000 100000
          100000 100000 100000 100000 100000 100000 100000 100000 100000 100000 100000 100000
          100000 100000 100000 100000 100000 100000 100000 100000 100000 100000 100000 100000
          100000 100000 100000 100000 100000 100000 100000 100000 100000 100000 100000 100000
          100000 100000 100000 100000 100000 100000 100000 100000 100000 100000 100000 100000
          100000 100000 100000 100000 100000 100000 100000 100000 100000 100000 100000 100000
          100000 100000 100000 100000 100000 100000 100000 100000 100000 100000 100000 100000
          100000 100000 100000 100000 100000 100000 100000 100000 100000 100000 100000 100000
          100000 100000 100000 100000 100000 100000 100000 100000 100000 100000 100000 100000
          100000 100000 100000 100000 100000 100000 100000 100000 100000 100000 100000 100000
          100000 100000 100000 100000 100000 100000 100000 100000 100000 100000 100000 100000
          100000 100000 100000 100000 100000 100000 100000 100000 100000 100000 100000 100000
          100000 100000 100000 100000 100000 100000 100000 100000 100000 100000 100000 100000
          100000 100000 100000 100000 100000 100000 100000 100000 100000 100000 100000 100000
          100000 100000 100000 100000 100000 100000 100000 100000 100000 100000 100000 100000
          100000 100000 100000 100000 100000 100000 100000 100000 100000 100000 100000 100000
          100000 100000 100000 100000 100000 100000 100000 100000 100000 100000 100000 100000
          100000 100000 100000 100000 100000 100000 100000 100000 100000 100000 100000 100000
          100000 100000 100000 100000 100000 100000 100000 100000 100000 100000 100000 100000
          100000 100000 100000 100000 100000 100000 100000 100000 100000 100000 100000 100000
          100000 100000 100000 100000 100000 100000 100000 100000 100000 100000 100000 100000
          100000 100000 100000 100000 100000 100000 100000 100000 100000 100000 100000 100000
          100000 100000 100000 100000 100000 100000 100000 100000 100000 100000 100000 100000
          100000 100000 100000 100000 100000 100000 100000 100000 100000 100000 100000 100000
          100000 100000 100000 100000 100000 100000 100000 100000 100000 100000 100000 100000
          100000 100000 100000 100000 100000 100000 100000 100000 100000 100000 100000 100000
          100000 100000 100000 100000 100000 100000 100000 100000 100000 100000 100000 100000
          100000 100000 100000 100000 100000 100000 100000 100000 100000 100000 100000 100000
          100000 100000 100000 100000 100000 100000 100000 100000 100000 100000 100000 100000
          100000 100000 100000 100000 100000 100000 100000 100000 100000 100000 100000 100000
          100000 100000 100000 100000 100000 100000 100000 100000 100000 100000 100000 100000
          100000 100000 100000 100000 100000 100000 100000 100000 100000 100000 100000 100000
          100000 100000 100000 100000 100000 100000 100000 100000 100000 100000 100000 100000
          100000 100000 100000 100000 100000 100000 100000 100000 100000 100000 100000 100000
          100000 100000 100000 100000 100000 100000 100000 100000 100000 100000 100000 100000
          100000 100000 100000 100000 100000 100000 100000 100000 100000 100000 100000 100000
          100000 100000 100000 100000 100000 100000 100000 100000 100000 100000 100000 100000
          100000 100000 100000 100000 100000 100000 100000 100000 100000 100000 100000 100000
          100000 100000 100000 100000 100000 100000 100000 100000 100000 100000 100000 100000
          100000 100000 100000 100000 100000 100000 100000 100000 100000 100000 100000 100000
          100000 100000 100000 100000 100000 100000 100000 100000 100000 100000 100000 100000
          100000 100000 100000 100000 100000 100000 100000 100000 100000 100000 100000 100000
          100000 100000 100000 100000 100000 100000 100000 100000 100000 100000 100000 100000
          100000 100000 100000 100000 100000 100000 100000 100000 100000 100000 100000 100000
          100000 100000 100000 100000 100000 100000 100000 100000 100000 100000 100000 100000
          100000 100000 100000 100000 100000 100000 100000 100000
        </DataArray>
        <DataArray type="Float32" Name="rho" NumberOfComponents="1" format="ascii">
          999.689 999.689 999.689 999.689 999.689 999.689 999.689 999.689 999.689 999.689 999.689 999.689
          999.689 999.689 999.689 999.689 999.689 999.689 999.689 999.689 999.689 999.689 999.689 999.689
          999.689 999.689 999.689 999.689 999.689 999.689 999.689 999.689 999.689 999.689 999.689 999.689
          999.689 999.689 999.689 999.689 999.689 999.689 999.689 999.689 999.689 999.689 999.689 999.689
          999.689 999.689 999.689 999.689 999.689 999.689 999.689 999.689 999.689 999.689 999.689 999.689
          999.689 999.689 999.689 999.689 999.689 999.689 999.689 999.689 999.689 999.689 999.689 999.689
          999.689 999.689 999.689 999.689 999.689 999.689 999.689 999.689 999.689 999.689 999.689 999.689
          999.689 999.689 999.689 999.689 999.689 999.689 999.689 999.689 999.689 999.689 999.689 999.689
          999.689 999.689 999.689 999.689 999.689 999.689 999.689 999.689 999.689 999.689 999.689 999.689
          999.689 999.689 999.689 999.689 999.689 999.689 999.689 999.689 999.689 999.689 999.689 999.689
          999.689 999.689 999.689 999.689 999.689 999.689 999.689 999.689 999.689 999.689 999.689 999.689
          999.689 999.689 999.689 999.689 999.689 999.689 999.689 999.689 999.689 999.689 999.689 999.689
          999.689 999.689 999.689 999.689 999.689 999.689 999.689 999.689 999.689 999.689 999.689 999.689
          999.689 999.689 999.689 999.689 999.689 999.689 999.689 999.689 999.689 999.689 999.689 999.689
          999.689 999.689 999.689 999.689 999.689 999.689 999.689 999.689 999.689 999.689 999.689 999.689
          999.689 999.689 999.689 999.689 999.689 999.689 999.689 999.689 999.689 999.689 999.689 999.689
          999.689 999.689 999.689 999.689 999.689 999.689 999.689 999.689 999.689 999.689 999.689 999.689
          999.689 999.689 999.689 999.689 999.689 999.689 999.689 999.689 999.689 999.689 999.689 999.689
          999.689 999.689 999.689 999.689 999.689 999.689 999.689 999.689 999.689 999.689 999.689 999.689
          999.689 999.689 999.689 999.689 999.689 999.689 999.689 999.689 999.689 999.689 999.689 999.689
          999.689 999.689 999.689 999.689 999.689 999.689 999.689 999.689 999.689 999.689 999.689 999.689
          999.689 999.689 999.689 999.689 999.689 999.689 999.689 999.689 999.689 999.689 999.689 999.689
          999.689 999.689 999.689 999.689 999.689 999.689 999.689 999.689 999.689 999.689 999.689 999.689
          999.689 999.689 999.689 999.689 999.689 999.689 999.689 999.689 999.689 999.689 999.689 999.689
          999.689 999.689 999.689 999.689 999.689 999.689 999.689 999.689 999.689 999.689 999.689 999.689
          999.689 999.689 999.689 999.689 999.689 999.689 999.689 999.689 999.689 999.689 999.689 999.689
          999.689 999.689 999.689 999.689 999.689 999.689 999.689 999.689 999.689 999.689 999.689 999.689
          999.689 999.689 999.689 999.689 999.689 999.689 999.689 999.689 999.689 999.689 999.689 999.689
          999.689 999.689 999.689 999.689 999.689 999.689 999.689 999.689 999.689 999.689 999.689 999.689
          999.689 999.689 999.689 999.689 999.689 999.689 999.689 999.689 999.689 999.689 999.689 999.689
          999.689 999.689 999.689 999.689 999.689 999.689 999.689 999.689 999.689 999.689 999.689 999.689
          999.689 999.689 999.689 999.689 999.689 999.689 999.689 999.689 999.689 999.689 999.689 999.689
          999.689 999.689 999.689 999.689 999.689 999.689 999.689 999.689 999.689 999.689 999.689 999.689
          999.689 999.689 999.689 999.689 999.689 999.689 999.689 999.689 999.689 999.689 999.689 999.689
          999.689 999.689 999.689 999.689 999.689 999.689 999.689 999.689 999.689 999.689 999.689 999.689
          999.689 999.689 999.689 999.689 999.689 999.689 999.689 999.689 999.689 999.689 999.689 999.689
          999.689 999.689 999.689 999.689 999.689 999.689 999.689 999.689 999.689 999.689 999.689 999.689
          999.689 999.689 999.689 999.689 999.689 999.689 999.689 999.689 999.689 999.689 999.689 999.689
          999.689 999.689 999.689 999.689 999.689 999.689 999.689 999.689 999.689 999.689 999.689 999.689
          999.689 999.689 999.689 999.689 999.689 999.689 999.689 999.689 999.689 999.689 999.689 999.689
          999.689 999.689 999.689 999.689 999.689 999.689 999.689 999.689 999.689 999.689 999.689 999.689
          999.689 999.689 999.689 999.689 999.689 999.689 999.689 999.689 999.689 999.689 999.689 999.689
          999.689 999.689 999.689 999.689 999.689 999.689 999.689 999.689 999.689 999.689 999.689 999.689
          999.689 999.689 999.689 999.689 999.689 999.689 999.689 999.689 999.689 999.689 999.689 999.689
          999.689 999.689 999.689 999.689 999.689 999.689 999.689 999.689 999.689 999.689 999.689 999.689
          999.689 999.689 999.689 999.689 999.689 999.689 999.689 999.689 999.689 999.689 999.689 999.689
          999.689 999.689 999.689 999.689 999.689 999.689 999.689 999.689 999.689 999.689 999.689 999.689
          999.689 999.689 999.689 999.689 999.689 999.689 999.689 999.689 999.689 999.689 999.689 999.689
          999.689 999.689 999.689 999.689 999.689 999.689 999.689 999.689 999.689 999.689 999.689 999.689
          999.689 999.689 999.689 999.689 999.689 999.689 999.689 999.689 999.689 999.689 999.689 999.689
          999.689 999.689 999.689 999.689 999.689 999.689 999.689 999.689 999.689 999.689 999.689 999.689
          999.689 999.689 999.689 999.689 999.689 999.689 999.689 999.689 999.689 999.689 999.689 999.689
          999.689 999.689 999.689 999.689 999.689 999.689 999.689 999.689 999.689 999.689 999.689 999.689
          999.689 999.689 999.689 999.689 999.689 999.689 999.689 999.689 999.689 999.689 999.689 999.689
          999.689 999.689 999.689 999.689 999.689 999.689 999.689 999.689 999.689 999.689 999.689 999.689
          999.689 999.689 999.689 999.689 999.689 999.689 999.689 999.689 999.689 999.689 999.689 999.689
          999.689 999.689 999.689 999.689 999.689 999.689 999.689 999.689 999.689 999.689 999.689 999.689
          999.689 999.689 999.689 999.689 999.689 999.689 999.689 999.689 999.689 999.689 999.689 999.689
          999.689 999.689 999.689 999.689 999.689 999.689 999.689 999.689 999.689 999.689 999.689 999.689
          999.689 999.689 999.689 999.689 999.689 999.689 999.689 999.689 999.689 999.689 999.689 999.689
          999.689 999.689 999.689 999.689 999.689 999.689 999.689 999.689
        </DataArray>
        <DataArray type="Float32" Name="mu" NumberOfComponents="1" format="ascii">
          0.00130753 0.00130753 0.00130753 0.00130753 0.00130753 0.00130753 0.00130753 0.00130753 0.00130753 0.00130753 0.00130753 0.00130753
          0.00130753 0.00130753 0.00130753 0.00130753 0.00130753 0.00130753 0.00130753 0.00130753 0.00130753 0.00130753 0.00130753 0.00130753
          0.00130753 0.00130753 0.00130753 0.00130753 0.00130753 0.00130753 0.00130753 0.00130753 0.00130753 0.00130753 0.00130753 0.00130753
          0.00130753 0.00130753 0.00130753 0.00130753 0.00130753 0.00130753 0.00130753 0.00130753 0.00130753 0.00130753 0.00130753 0.00130753
          0.00130753 0.00130753 0.00130753 0.00130753 0.00130753 0.00130753 0.00130753 0.00130753 0.00130753 0.00130753 0.00130753 0.00130753
          0.00130753 0.00130753 0.00130753 0.00130753 0.00130753 0.00130753 0.00130753 0.00130753 0.00130753 0.00130753 0.00130753 0.00130753
          0.00130753 0.00130753 0.00130753 0.00130753 0.00130753 0.00130753 0.00130753 0.00130753 0.00130753 0.00130753 0.00130753 0.00130753
          0.00130753 0.00130753 0.00130753 0.00130753 0.00130753 0.00130753 0.00130753 0.00130753 0.00130753 0.00130753 0.00130753 0.00130753
          0.00130753 0.00130753 0.00130753 0.00130753 0.00130753 0.00130753 0.00130753 0.00130753 0.00130753 0.00130753 0.00130753 0.00130753
          0.00130753 0.00130753 0.00130753 0.00130753 0.00130753 0.00130753 0.00130753 0.00130753 0.00130753 0.00130753 0.00130753 0.00130753
          0.00130753 0.00130753 0.00130753 0.00130753 0.00130753 0.00130753 0.00130753 0.00130753 0.00130753 0.00130753 0.00130753 0.00130753
          0.00130753 0.00130753 0.00130753 0.00130753 0.00130753 0.00130753 0.00130753 0.00130753 0.00130753 0.00130753 0.00130753 0.00130753
          0.00130753 0.00130753 0.00130753 0.00130753 0.00130753 0.00130753 0.00130753 0.00130753 0.00130753 0.00130753 0.00130753 0.00130753
          0.00130753 0.00130753 0.00130753 0.00130753 0.00130753 0.00130753 0.00130753 0.00130753 0.00130753 0.00130753 0.00130753 0.00130753
          0.00130753 0.00130753 0.00130753 0.00130753 0.00130753 0.00130753 0.00130753 0.00130753 0.00130753 0.00130753 0.00130753 0.00130753
          0.00130753 0.00130753 0.00130753 0.00130753 0.00130753 0.00130753 0.00130753 0.00130753 0.00130753 0.00130753 0.00130753 0.00130753
          0.00130753 0.00130753 0.00130753 0.00130753 0.00130753 0.00130753 0.00130753 0.00130753 0.00130753 0.00130753 0.00130753 0.00130753
          0.00130753 0.00130753 0.00130753 0.00130753 0.00130753 0.00130753 0.00130753 0.00130753 0.00130753 0.00130753 0.00130753 0.00130753
          0.00130753 0.00130753 0.00130753 0.00130753 0.00130753 0.00130753 0.00130753 0.00130753 0.00130753 0.00130753 0.00130753 0.00130753
          0.00130753 0.00130753 0.00130753 0.00130753 0.00130753 0.00130753 0.00130753 0.00130753 0.00130753 0.00130753 0.00130753 0.00130753
          0.00130753 0.00130753 0.00130753 0.00130753 0.00130753 0.00130753 0.00130753 0.00130753 0.00130753 0.00130753 0.00130753 0.00130753
          0.00130753 0.00130753 0.00130753 0.00130753 0.00130753 0.00130753 0.00130753 0.00130753 0.00130753 0.00130753 0.00130753 0.00130753
          0.00130753 0.00130753 0.00130753 0.00130753 0.00130753 0.00130753 0.00130753 0.00130753 0.00130753 0.00130753 0.00130753 0.00130753
          0.00130753 0.00130753 0.00130753 0.00130753 0.00130753 0.00130753 0.00130753 0.00130753 0.00130753 0.00130753 0.00130753 0.00130753
          0.00130753 0.00130753 0.00130753 0.00130753 0.00130753 0.00130753 0.00130753 0.00130753 0.00130753 0.00130753 0.00130753 0.00130753
          0.00130753 0.00130753 0.00130753 0.00130753 0.00130753 0.00130753 0.00130753 0.00130753 0.00130753 0.00130753 0.00130753 0.00130753
          0.00130753 0.00130753 0.00130753 0.00130753 0.00130753 0.00130753 0.00130753 0.00130753 0.00130753 0.00130753 0.00130753 0.00130753
          0.00130753 0.00130753 0.00130753 0.00130753 0.00130753 0.00130753 0.00130753 0.00130753 0.00130753 0.00130753 0.00130753 0.00130753
          0.00130753 0.00130753 0.00130753 0.00130753 0.00130753 0.00130753 0.00130753 0.00130753 0.00130753 0.00130753 0.00130753 0.00130753
          0.00130753 0.00130753 0.00130753 0.00130753 0.00130753 0.00130753 0.00130753 0.00130753 0.00130753 0.00130753 0.00130753 0.00130753
          0.00130753 0.00130753 0.00130753 0.00130753 0.00130753 0.00130753 0.00130753 0.00130753 0.00130753 0.00130753 0.00130753 0.00130753
          0.00130753 0.00130753 0.00130753 0.00130753 0.00130753 0.00130753 0.00130753 0.00130753 0.00130753 0.00130753 0.00130753 0.00130753
          0.00130753 0.00130753 0.00130753 0.00130753 0.00130753 0.00130753 0.00130753 0.00130753 0.00130753 0.00130753 0.00130753 0.00130753
          0.00130753 0.00130753 0.00130753 0.00130753 0.00130753 0.00130753 0.00130753 0.00130753 0.00130753 0.00130753 0.00130753 0.00130753
          0.00130753 0.00130753 0.00130753 0.00130753 0.00130753 0.00130753 0.00130753 0.00130753 0.00130753 0.00130753 0.00130753 0.00130753
          0.00130753 0.00130753 0.00130753 0.00130753 0.00130753 0.00130753 0.00130753 0.00130753 0.00130753 0.00130753 0.00130753 0.00130753
          0.00130753 0.00130753 0.00130753 0.00130753 0.00130753 0.00130753 0.00130753 0.00130753 0.00130753 0.00130753 0.00130753 0.00130753
          0.00130753 0.00130753 0.00130753 0.00130753 0.00130753 0.00130753 0.00130753 0.00130753 0.00130753 0.00130753 0.00130753 0.00130753
          0.00130753 0.00130753 0.00130753 0.00130753 0.00130753 0.00130753 0.00130753 0.00130753 0.00130753 0.00130753 0.00130753 0.00130753
          0.00130753 0.00130753 0.00130753 0.00130753 0.00130753 0.00130753 0.00130753 0.00130753 0.00130753 0.00130753 0.00130753 0.00130753
          0.00130753 0.00130753 0.00130753 0.00130753 0.00130753 0.00130753 0.00130753 0.00130753 0.00130753 0.00130753 0.00130753 0.00130753
          0.00130753 0.00130753 0.00130753 0.00130753 0.00130753 0.00130753 0.00130753 0.00130753 0.00130753 0.00130753 0.00130753 0.00130753
          0.00130753 0.00130753 0.00130753 0.00130753 0.00130753 0.00130753 0.00130753 0.00130753 0.00130753 0.00130753 0.00130753 0.00130753
          0.00130753 0.00130753 0.00130753 0.00130753 0.00130753 0.00130753 0.00130753 0.00130753 0.00130753 0.00130753 0.00130753 0.00130753
          0.00130753 0.00130753 0.00130753 0.00130753 0.00130753 0.00130753 0.00130753 0.00130753 0.00130753 0.00130753 0.00130753 0.00130753
          0.00130753 0.00130753 0.00130753 0.00130753 0.00130753 0.00130753 0.00130753 0.00130753 0.00130753 0.00130753 0.00130753 0.00130753
          0.00130753 0.00130753 0.00130753 0.00130753 0.00130753 0.00130753 0.00130753 0.00130753 0.00130753 0.00130753 0.00130753 0.00130753
          0.00130753 0.00130753 0.00130753 0.00130753 0.00130753 0.00130753 0.00130753 0.00130753 0.00130753 0.00130753 0.00130753 0.00130753
          0.00130753 0.00130753 0.00130753 0.00130753 0.00130753 0.00130753 0.00130753 0.00130753 0.00130753 0.00130753 0.00130753 0.00130753
          0.00130753 0.00130753 0.00130753 0.00130753 0.00130753 0.00130753 0.00130753 0.00130753 0.00130753 0.00130753 0.00130753 0.00130753
          0.00130753 0.00130753 0.00130753 0.00130753 0.00130753 0.00130753 0.00130753 0.00130753 0.00130753 0.00130753 0.00130753 0.00130753
          0.00130753 0.00130753 0.00130753 0.00130753 0.00130753 0.00130753 0.00130753 0.00130753 0.00130753 0.00130753 0.00130753 0.00130753
          0.00130753 0.00130753 0.00130753 0.00130753 0.00130753 0.00130753 0.00130753 0.00130753 0.00130753 0.00130753 0.00130753 0.00130753
          0.00130753 0.00130753 0.00130753 0.00130753 0.00130753 0.00130753 0.00130753 0.00130753 0.00130753 0.00130753 0.00130753 0.00130753
          0.00130753 0.00130753 0.00130753 0.00130753 0.00130753 0.00130753 0.00130753 0.00130753 0.00130753 0.00130753 0.00130753 0.00130753
          0.00130753 0.00130753 0.00130753 0.00130753 0.00130753 0.00130753 0.00130753 0.00130753 0.00130753 0.00130753 0.00130753 0.00130753
          0.00130753 0.00130753 0.00130753 0.00130753 0.00130753 0.00130753 0.00130753 0.00130753 0.00130753 0.00130753 0.00130753 0.00130753
          0.00130753 0.00130753 0.00130753 0.00130753 0.00130753 0.00130753 0.00130753 0.00130753 0.00130753 0.00130753 0.00130753 0.00130753
          0.00130753 0.00130753 0.00130753 0.00130753 0.00130753 0.00130753 0.00130753 0.00130753 0.00130753 0.00130753 0.00130753 0.00130753
          0.00130753 0.00130753 0.00130753 0.00130753 0.00130753 0.00130753 0.00130753 0.00130753 0.00130753 0.00130753 0.00130753 0.00130753
          0.00130753 0.00130753 0.00130753 0.00130753 0.00130753 0.00130753 0.00130753 0.00130753
        </DataArray>
        <DataArray type="Float32" Name="delp" NumberOfComponents="1" format="ascii">
          -2.91038e-11 -2.91038e-11 -8.73115e-11 -8.73115e-11 -2.91038e-11 -2.91038e-11 -8.73115e-11 -8.73115e-11 -1.60071e-10 -1.60071e-10 -1.60071e-10 -1.60071e-10
          -2.91038e-11 -1.01863e-10 -2.91038e-11 -2.91038e-11 -1.01863e-10 -1.01863e-10 -1.60071e-10 -1.60071e-10 -1.60071e-10 -2.18279e-10 -2.18279e-10 -2.61934e-10
          -2.61934e-10 -2.18279e-10 -2.18279e-10 -2.76486e-10 -2.76486e-10 -3.20142e-10 -3.20142e-10 -3.20142e-10 -3.20142e-10 -2.18279e-10 -2.76486e-10 -2.18279e-10
          -2.18279e-10 -2.76486e-10 -2.76486e-10 -3.20142e-10 -3.34694e-10 -3.34694e-10 -2.91038e-11 -2.91038e-11 -1.01863e-10 -1.01863e-10 -2.91038e-11 -2.91038e-11
          -1.01863e-10 -1.01863e-10 -1.60071e-10 -1.60071e-10 -1.60071e-10 -1.74623e-10 -2.91038e-11 -1.01863e-10 -2.91038e-11 -2.91038e-11 -1.01863e-10 -1.01863e-10
          -1.74623e-10 -1.74623e-10 -1.74623e-10 -2.32831e-10 -2.32831e-10 -2.91038e-10 -2.91038e-10 -2.32831e-10 -2.32831e-10 -2.91038e-10 -3.0559e-10 -3.49246e-10
          -3.49246e-10 -3.49246e-10 -3.63798e-10 -2.32831e-10 -3.0559e-10 -2.47383e-10 -2.47383e-10 -3.0559e-10 -3.0559e-10 -3.7835e-10 -3.7835e-10 -3.92902e-10
          -3.63798e-10 -3.63798e-10 -3.92902e-10 -3.92902e-10 -3.63798e-10 -3.63798e-10 -3.92902e-10 -4.07454e-10 -4.22006e-10 -4.22006e-10 -4.22006e-10 -4.36557e-10
          -3.63798e-10 -4.07454e-10 -3.7835e-10 -3.7835e-10 -4.07454e-10 -4.22006e-10 -4.36557e-10 -4.51109e-10 -4.51109e-10 -4.51109e-10 -4.51109e-10 -4.65661e-10
          -4.65661e-10 -4.51109e-10 -4.51109e-10 -4.65661e-10 -4.80213e-10 -4.80213e-10 -4.80213e-10 -4.80213e-10 -4.94765e-10 -4.80213e-10 -4.94765e-10 -4.94765e-10
          -4.94765e-10 -4.65661e-10 -4.80213e-10 -4.65661e-10 -4.80213e-10 -4.94765e-10 -4.94765e-10 -4.94765e-10 -5.09317e-10 -5.09317e-10 -5.09317e-10 -5.09317e-10
          -5.23869e-10 -3.92902e-10 -3.92902e-10 -4.36557e-10 -4.36557e-10 -4.07454e-10 -4.22006e-10 -4.51109e-10 -4.65661e-10 -4.65661e-10 -4.80213e-10 -4.94765e-10
          -5.09317e-10 -4.36557e-10 -4.80213e-10 -4.51109e-10 -4.65661e-10 -4.94765e-10 -5.23869e-10 -5.23869e-10 -5.38421e-10 -5.67525e-10 -4.94765e-10 -5.09317e-10
          -5.09317e-10 -5.23869e-10 -5.23869e-10 -5.38421e-10 -5.38421e-10 -5.52973e-10 -5.23869e-10 -5.38421e-10 -5.38421e-10 -5.52973e-10 -5.52973e-10 -5.67525e-10
          -5.67525e-10 -5.82077e-10 -5.52973e-10 -5.82077e-10 -5.67525e-10 -5.96629e-10 -5.96629e-10 -6.25732e-10 -5.96629e-10 -5.96629e-10 -6.1118e-10 -6.40284e-10
          -6.25732e-10 -6.40284e-10 -2.91038e-11 -2.91038e-11 -1.01863e-10 -1.01863e-10 -2.91038e-11 -2.91038e-11 -1.01863e-10 -1.01863e-10 -1.74623e-10 -1.74623e-10
          -1.74623e-10 -2.91038e-11 -1.01863e-10 -2.91038e-11 -2.91038e-11 -1.01863e-10 -1.01863e-10 -1.74623e-10 -1.60071e-10 -1.60071e-10 -1.60071e-10 -2.47383e-10
          -2.47383e-10 -3.0559e-10 -3.0559e-10 -2.32831e-10 -2.32831e-10 -3.0559e-10 -3.92902e-10 -3.7835e-10 -3.7835e-10 -2.32831e-10 -3.0559e-10 -2.91038e-10
          -2.32831e-10 -2.32831e-10 -2.91038e-10 -2.91038e-10 -3.63798e-10 -3.63798e-10 -3.49246e-10 -3.49246e-10 -2.91038e-11 -2.91038e-11 -1.01863e-10 -1.01863e-10
          -2.91038e-11 -1.01863e-10 -1.60071e-10 -1.60071e-10 -1.60071e-10 -2.91038e-11 -2.91038e-11 -8.73115e-11 -8.73115e-11 -2.91038e-11 -2.91038e-11 -8.73115e-11
          -8.73115e-11 -1.60071e-10 -1.60071e-10 -1.60071e-10 -1.60071e-10 -2.18279e-10 -2.18279e-10 -2.76486e-10 -2.76486e-10 -2.18279e-10 -2.18279e-10 -2.76486e-10
          -2.76486e-10 -3.34694e-10 -3.34694e-10 -3.20142e-10 -3.20142e-10 -2.18279e-10 -2.76486e-10 -2.18279e-10 -2.18279e-10 -2.61934e-10 -2.61934e-10 -3.20142e-10
          -3.20142e-10 -3.20142e-10 -4.65661e-10 -4.51109e-10 -5.23869e-10 -4.94765e-10 -4.36557e-10 -4.80213e-10 -4.65661e-10 -5.67525e-10 -5.38421e-10 -5.23869e-10
          -4.22006e-10 -4.07454e-10 -4.51109e-10 -3.92902e-10 -3.92902e-10 -4.36557e-10 -4.36557e-10 -5.09317e-10 -4.94765e-10 -4.80213e-10 -4.65661e-10 -5.96629e-10
          -5.67525e-10 -6.25732e-10 -5.96629e-10 -5.52973e-10 -5.82077e-10 -5.52973e-10 -6.40284e-10 -6.1118e-10 -6.40284e-10 -6.25732e-10 -5.96629e-10 -5.67525e-10
          -5.96629e-10 -5.38421e-10 -5.23869e-10 -5.38421e-10 -5.09317e-10 -4.94765e-10 -5.23869e-10 -5.09317e-10 -5.52973e-10 -5.82077e-10 -5.67525e-10 -5.38421e-10
          -5.23869e-10 -5.52973e-10 -5.38421e-10 -3.7835e-10 -3.7835e-10 -4.22006e-10 -4.07454e-10 -3.7835e-10 -3.63798e-10 -4.07454e-10 -4.07454e-10 -4.51109e-10
          -4.51109e-10 -4.36557e-10 -4.36557e-10 -3.63798e-10 -3.92902e-10 -3.63798e-10 -3.63798e-10 -3.92902e-10 -3.92902e-10 -4.22006e-10 -4.22006e-10 -4.22006e-10
          -4.80213e-10 -4.65661e-10 -4.94765e-10 -4.94765e-10 -4.65661e-10 -4.51109e-10 -4.80213e-10 -5.09317e-10 -5.09317e-10 -5.23869e-10 -5.09317e-10 -4.94765e-10
          -5.09317e-10 -4.51109e-10 -4.80213e-10 -4.65661e-10 -4.51109e-10 -4.51109e-10 -4.65661e-10 -4.65661e-10 -4.94765e-10 -4.80213e-10 -4.94765e-10 -4.94765e-10
          -4.80213e-10 -4.80213e-10 -4.94765e-10 -4.80213e-10 -4.80213e-10 -4.94765e-10 -4.80213e-10 -4.80213e-10 -4.94765e-10 -4.94765e-10 -4.80213e-10 -4.94765e-10
          -4.65661e-10 -4.65661e-10 -4.65661e-10 -4.80213e-10 -5.09317e-10 -4.94765e-10 -5.09317e-10 -5.23869e-10 -5.09317e-10 -5.09317e-10 -4.80213e-10 -4.94765e-10
          -4.94765e-10 -4.51109e-10 -4.51109e-10 -4.22006e-10 -4.22006e-10 -4.51109e-10 -4.51109e-10 -4.22006e-10 -4.36557e-10 -3.92902e-10 -3.92902e-10 -3.63798e-10
          -3.63798e-10 -3.92902e-10 -4.07454e-10 -3.63798e-10 -3.63798e-10 -4.65661e-10 -4.36557e-10 -4.65661e-10 -4.80213e-10 -4.51109e-10 -4.51109e-10 -4.07454e-10
          -3.63798e-10 -4.07454e-10 -4.22006e-10 -3.7835e-10 -3.7835e-10 -5.38421e-10 -5.38421e-10 -5.23869e-10 -5.38421e-10 -5.67525e-10 -5.82077e-10 -5.52973e-10
          -5.67525e-10 -5.09317e-10 -5.23869e-10 -5.38421e-10 -5.52973e-10 -5.96629e-10 -5.96629e-10 -6.25732e-10 -6.40284e-10 -6.1118e-10 -6.40284e-10 -5.67525e-10
          -5.96629e-10 -6.1118e-10 -4.94765e-10 -5.09317e-10 -4.65661e-10 -4.80213e-10 -5.23869e-10 -5.38421e-10 -4.80213e-10 -5.09317e-10 -4.22006e-10 -4.36557e-10
          -3.92902e-10 -3.92902e-10 -4.51109e-10 -4.65661e-10 -4.07454e-10 -4.22006e-10 -5.52973e-10 -5.23869e-10 -5.67525e-10 -5.96629e-10 -5.38421e-10 -5.67525e-10
          -4.80213e-10 -4.36557e-10 -4.94765e-10 -5.23869e-10 -4.51109e-10 -4.65661e-10 -3.20142e-10 -3.20142e-10 -3.20142e-10 -3.20142e-10 -2.61934e-10 -2.61934e-10
          -2.18279e-10 -2.18279e-10 -2.61934e-10 -2.76486e-10 -2.18279e-10 -2.18279e-10 -3.20142e-10 -3.34694e-10 -3.34694e-10 -2.76486e-10 -2.76486e-10 -2.76486e-10
          -2.18279e-10 -2.18279e-10 -2.18279e-10 -1.60071e-10 -1.60071e-10 -8.73115e-11 -8.73115e-11 -1.60071e-10 -1.60071e-10 -8.73115e-11 -8.73115e-11 -2.91038e-11
          -2.91038e-11 -2.91038e-11 -2.91038e-11 -1.60071e-10 -1.01863e-10 -1.60071e-10 -1.60071e-10 -1.01863e-10 -1.01863e-10 -2.91038e-11 -2.91038e-11 -2.91038e-11
          -3.49246e-10 -3.49246e-10 -3.49246e-10 -3.63798e-10 -2.91038e-10 -2.91038e-10 -2.18279e-10 -2.32831e-10 -2.91038e-10 -3.0559e-10 -2.32831e-10 -2.32831e-10
          -3.7835e-10 -3.7835e-10 -3.7835e-10 -3.0559e-10 -2.32831e-10 -3.0559e-10 -3.0559e-10 -2.47383e-10 -2.47383e-10 -1.60071e-10 -1.60071e-10 -1.01863e-10
          -1.01863e-10 -1.60071e-10 -1.74623e-10 -1.01863e-10 -1.01863e-10 -2.91038e-11 -2.91038e-11 -2.91038e-11 -2.91038e-11 -1.74623e-10 -1.01863e-10 -1.74623e-10
          -1.74623e-10 -1.01863e-10 -1.01863e-10 -2.91038e-11 -2.91038e-11 -2.91038e-11 -6.40284e-10 -6.25732e-10 -6.40284e-10 -6.1118e-10 -5.96629e-10 -5.96629e-10
          -6.25732e-10 -5.96629e-10 -5.82077e-10 -5.82077e-10 -5.67525e-10 -5.67525e-10 -5.52973e-10 -5.52973e-10 -5.38421e-10 -5.38421e-10 -5.23869e-10 -5.52973e-10
          -5.38421e-10 -5.23869e-10 -5.09317e-10 -5.96629e-10 -5.67525e-10 -5.67525e-10 -5.38421e-10 -5.52973e-10 -5.23869e-10 -5.23869e-10 -4.94765e-10 -4.65661e-10
          -4.51109e-10 -4.80213e-10 -4.36557e-10 -5.38421e-10 -5.23869e-10 -5.09317e-10 -4.94765e-10 -5.09317e-10 -4.94765e-10 -4.80213e-10 -4.65661e-10 -4.65661e-10
          -4.51109e-10 -4.22006e-10 -4.07454e-10 -4.36557e-10 -4.36557e-10 -3.92902e-10 -3.92902e-10 -5.23869e-10 -5.09317e-10 -5.09317e-10 -5.09317e-10 -5.09317e-10
          -4.94765e-10 -4.94765e-10 -4.94765e-10 -4.80213e-10 -4.94765e-10 -4.94765e-10 -4.94765e-10 -4.80213e-10 -4.94765e-10 -4.80213e-10 -4.80213e-10 -4.80213e-10
          -4.80213e-10 -4.65661e-10 -4.65661e-10 -4.65661e-10 -4.80213e-10 -4.65661e-10 -4.51109e-10 -4.51109e-10 -4.65661e-10 -4.36557e-10 -4.22006e-10 -4.07454e-10