<?xml version="1.0"?>
<VTKFile type="UnstructuredGrid" version="0.1" byte_order="LittleEndian">
  <UnstructuredGrid>
    <Piece NumberOfCells="267" NumberOfPoints="457">
      <CellData Scalars="wetting potential" Vectors="wetting-velocity">
        <DataArray type="Float32" Name="wetting potential" NumberOfComponents="1" format="ascii">
          1.22402 1.16945 1.15552 1.17903 1.19267 1.16332 1.15106 1.16637 1.13824 1.12109 1.11853 1.13441
          1.13885 1.12227 1.11927 1.13417 1.12744 1.11391 1.10926 1.11851 1.12672 1.114 1.10888 1.11733
          1.1496 1.14035 1.12915 1.13426 1.14528 1.1379 1.1272 1.13169 1.16745 1.15399 1.14448 1.1529
          1.15385 1.14645 1.1382 1.14342 1.13753 1.12229 1.11839 1.13202 1.13442 1.12104 1.11588 1.12815
          1.12371 1.11255 1.10776 1.11395 1.11843 1.11006 1.10666 1.10988 1.13898 1.13354 1.12213 1.12631
          1.13136 1.12725 1.11497 1.11847 1.11145 1.10843 1.10791 1.10986 1.11228 1.10847 1.10781 1.11027
          1.10772 1.10738 1.10695 1.10726 1.1076 1.10722 1.10672 1.10708 1.10572 1.10789 1.10711 1.10606
          1.10672 1.10784 1.10693 1.10575 1.10653 1.11238 1.10825 1.1075 1.10981 1.11145 1.10786 1.10704
          1.10875 1.10732 1.10689 1.10627 1.10668 1.10691 1.10644 1.10565 1.10608 1.10438 1.10741 1.10648
          1.10502 1.10595 1.10684 1.10577 1.10398 1.10499 1.12278 1.11796 1.10974 1.11257 1.11987 1.11588
          1.10859 1.11046 1.11096 1.10696 1.10561 1.10747 1.10977 1.10661 1.10511 1.10689 1.1045 1.10803
          1.10731 1.1065 1.1072 1.10732 1.10663 1.10582 1.10651 1.11457 1.11163 1.10712 1.10805 1.10945
          1.10792 1.10571 1.10642 1.10783 1.10571 1.1039 1.10575 1.10628 1.10442 1.10241 1.10432 1.10168
          1.10468 1.10436 1.1036 1.10207 1.10268 1.10188 1.10047 1.09537 1.0977 1.1387 1.13456 1.12732
          1.13085 1.12078 1.11873 1.11392 1.11592 1.12658 1.11622 1.1118 1.11987 1.11439 1.10998 1.10842
          1.11074 1.11206 1.10802 1.10566 1.10743 1.1081 1.10674 1.10485 1.10619 1.12033 1.11718 1.10933
          1.1112 1.11058 1.10937 1.10704 1.10743 1.10989 1.10917 1.10806 1.10846 1.10744 1.10731 1.10692
          1.10708 1.10824 1.10744 1.10675 1.10747 1.10702 1.10656 1.10605 1.10657 1.10519 1.10727 1.10701
          1.10573 1.10606 1.10634 1.10614 1.1051 1.10536 1.10938 1.10727 1.10629 1.10768 1.10779 1.10617
          1.10521 1.1067 1.10475 1.10185 1.1039 1.10491 1.10286 1.09932 1.10255 1.10694 1.1063 1.10449
          1.10522 1.10573 1.1052 1.10375 1.10437 1.10296 1.09977 1.10283 1.10379 1.10247 1.10027 1.1022
          1.09888 1.09548 1.08221 1.09258 1.0983 1.09117 1.07994 1.07012 1.05044 1.06925 1.07743 1.06102
          1.01979 1.06668 1.09371
        </DataArray>
        <DataArray type="Float32" Name="wetting pressure" NumberOfComponents="1" format="ascii">
          1.22402 1.16945 1.15552 1.17903 1.19267 1.16332 1.15106 1.16637 1.13824 1.12109 1.11853 1.13441
          1.13885 1.12227 1.11927 1.13417 1.12744 1.11391 1.10926 1.11851 1.12672 1.114 1.10888 1.11733
          1.1496 1.14035 1.12915 1.13426 1.14528 1.1379 1.1272 1.13169 1.16745 1.15399 1.14448 1.1529
          1.15385 1.14645 1.1382 1.14342 1.13753 1.12229 1.11839 1.13202 1.13442 1.12104 1.11588 1.12815
          1.12371 1.11255 1.10776 1.11395 1.11843 1.11006 1.10666 1.10988 1.13898 1.13354 1.12213 1.12631
          1.13136 1.12725 1.11497 1.11847 1.11145 1.10843 1.10791 1.10986 1.11228 1.10847 1.10781 1.11027
          1.10772 1.10738 1.10695 1.10726 1.1076 1.10722 1.10672 1.10708 1.10572 1.10789 1.10711 1.10606
          1.10672 1.10784 1.10693 1.10575 1.10653 1.11238 1.10825 1.1075 1.10981 1.11145 1.10786 1.10704
          1.10875 1.10732 1.10689 1.10627 1.10668 1.10691 1.10644 1.10565 1.10608 1.10438 1.10741 1.10648
          1.10502 1.10595 1.10684 1.10577 1.10398 1.10499 1.12278 1.11796 1.10974 1.11257 1.11987 1.11588
          1.10859 1.11046 1.11096 1.10696 1.10561 1.10747 1.10977 1.10661 1.10511 1.10689 1.1045 1.10803
          1.10731 1.1065 1.1072 1.10732 1.10663 1.10582 1.10651 1.11457 1.11163 1.10712 1.10805 1.10945
          1.10792 1.10571 1.10642 1.10783 1.10571 1.1039 1.10575 1.10628 1.10442 1.10241 1.10432 1.10168
          1.10468 1.10436 1.1036 1.10207 1.10268 1.10188 1.10047 1.09537 1.0977 1.1387 1.13456 1.12732
          1.13085 1.12078 1.11873 1.11392 1.11592 1.12658 1.11622 1.1118 1.11987 1.11439 1.10998 1.10842
          1.11074 1.11206 1.10802 1.10566 1.10743 1.1081 1.10674 1.10485 1.10619 1.12033 1.11718 1.10933
          1.1112 1.11058 1.10937 1.10704 1.10743 1.10989 1.10917 1.10806 1.10846 1.10744 1.10731 1.10692
          1.10708 1.10824 1.10744 1.10675 1.10747 1.10702 1.10656 1.10605 1.10657 1.10519 1.10727 1.10701
          1.10573 1.10606 1.10634 1.10614 1.1051 1.10536 1.10938 1.10727 1.10629 1.10768 1.10779 1.10617
          1.10521 1.1067 1.10475 1.10185 1.1039 1.10491 1.10286 1.09932 1.10255 1.10694 1.1063 1.10449
          1.10522 1.10573 1.1052 1.10375 1.10437 1.10296 1.09977 1.10283 1.10379 1.10247 1.10027 1.1022
          1.09888 1.09548 1.08221 1.09258 1.0983 1.09117 1.07994 1.07012 1.05044 1.06925 1.07743 1.06102
          1.01979 1.06668 1.09371
        </DataArray>
        <DataArray type="Float32" Name="nonwetting pressure" NumberOfComponents="1" format="ascii">
          1.22402 1.16945 1.15552 1.17903 1.19267 1.16332 1.15106 1.16637 1.13824 1.12109 1.11853 1.13441
          1.13885 1.12227 1.11927 1.13417 1.12744 1.11391 1.10926 1.11851 1.12672 1.114 1.10888 1.11733
          1.1496 1.14035 1.12915 1.13426 1.14528 1.1379 1.1272 1.13169 1.16745 1.15399 1.14448 1.1529
          1.15385 1.14645 1.1382 1.14342 1.13753 1.12229 1.11839 1.13202 1.13442 1.12104 1.11588 1.12815
          1.12371 1.11255 1.10776 1.11395 1.11843 1.11006 1.10666 1.10988 1.13898 1.13354 1.12213 1.12631
          1.13136 1.12725 1.11497 1.11847 1.11145 1.10843 1.10791 1.10986 1.11228 1.10847 1.10781 1.11027
          1.10772 1.10738 1.10695 1.10726 1.1076 1.10722 1.10672 1.10708 1.10572 1.10789 1.10711 1.10606
          1.10672 1.10784 1.10693 1.10575 1.10653 1.11238 1.10825 1.1075 1.10981 1.11145 1.10786 1.10704
          1.10875 1.10732 1.10689 1.10627 1.10668 1.10691 1.10644 1.10565 1.10608 1.10438 1.10741 1.10648
          1.10502 1.10595 1.10684 1.10577 1.10398 1.10499 1.12278 1.11796 1.10974 1.11257 1.11987 1.11588
          1.10859 1.11046 1.11096 1.10696 1.10561 1.10747 1.10977 1.10661 1.10511 1.10689 1.1045 1.10803
          1.10731 1.1065 1.1072 1.10732 1.10663 1.10582 1.10651 1.11457 1.11163 1.10712 1.10805 1.10945
          1.10792 1.10571 1.10642 1.10783 1.10571 1.1039 1.10575 1.10628 1.10442 1.10241 1.10432 1.10168
          1.10468 1.10436 1.1036 1.10207 1.10268 1.10188 1.10047 1.09537 1.0977 1.1387 1.13456 1.12732
          1.13085 1.12078 1.11873 1.11392 1.11592 1.12658 1.11622 1.1118 1.11987 1.11439 1.10998 1.10842
          1.11074 1.11206 1.10802 1.10566 1.10743 1.1081 1.10674 1.10485 1.10619 1.12033 1.11718 1.10933
          1.1112 1.11058 1.10937 1.10704 1.10743 1.10989 1.10917 1.10806 1.10846 1.10744 1.10731 1.10692
          1.10708 1.10824 1.10744 1.10675 1.10747 1.10702 1.10656 1.10605 1.10657 1.10519 1.10727 1.10701
          1.10573 1.10606 1.10634 1.10614 1.1051 1.10536 1.10938 1.10727 1.10629 1.10768 1.10779 1.10617
          1.10521 1.1067 1.10475 1.10185 1.1039 1.10491 1.10286 1.09932 1.10255 1.10694 1.1063 1.10449
          1.10522 1.10573 1.1052 1.10375 1.10437 1.10296 1.09977 1.10283 1.10379 1.10247 1.10027 1.1022
          1.09888 1.09548 1.08221 1.09258 1.0983 1.09117 1.07994 1.07012 1.05044 1.06925 1.07743 1.06102
          1.01979 1.06668 1.09371
        </DataArray>
        <DataArray type="Float32" Name="nonwetting potential" NumberOfComponents="1" format="ascii">
          1.22402 1.16945 1.15552 1.17903 1.19267 1.16332 1.15106 1.16637 1.13824 1.12109 1.11853 1.13441
          1.13885 1.12227 1.11927 1.13417 1.12744 1.11391 1.10926 1.11851 1.12672 1.114 1.10888 1.11733
          1.1496 1.14035 1.12915 1.13426 1.14528 1.1379 1.1272 1.13169 1.16745 1.15399 1.14448 1.1529
          1.15385 1.14645 1.1382 1.14342 1.13753 1.12229 1.11839 1.13202 1.13442 1.12104 1.11588 1.12815
          1.12371 1.11255 1.10776 1.11395 1.11843 1.11006 1.10666 1.10988 1.13898 1.13354 1.12213 1.12631
          1.13136 1.12725 1.11497 1.11847 1.11145 1.10843 1.10791 1.10986 1.11228 1.10847 1.10781 1.11027
          1.10772 1.10738 1.10695 1.10726 1.1076 1.10722 1.10672 1.10708 1.10572 1.10789 1.10711 1.10606
          1.10672 1.10784 1.10693 1.10575 1.10653 1.11238 1.10825 1.1075 1.10981 1.11145 1.10786 1.10704
          1.10875 1.10732 1.10689 1.10627 1.10668 1.10691 1.10644 1.10565 1.10608 1.10438 1.10741 1.10648
          1.10502 1.10595 1.10684 1.10577 1.10398 1.10499 1.12278 1.11796 1.10974 1.11257 1.11987 1.11588
          1.10859 1.11046 1.11096 1.10696 1.10561 1.10747 1.10977 1.10661 1.10511 1.10689 1.1045 1.10803
          1.10731 1.1065 1.1072 1.10732 1.10663 1.10582 1.10651 1.11457 1.11163 1.10712 1.10805 1.10945
          1.10792 1.10571 1.10642 1.10783 1.10571 1.1039 1.10575 1.10628 1.10442 1.10241 1.10432 1.10168
          1.10468 1.10436 1.1036 1.10207 1.10268 1.10188 1.10047 1.09537 1.0977 1.1387 1.13456 1.12732
          1.13085 1.12078 1.11873 1.11392 1.11592 1.12658 1.11622 1.1118 1.11987 1.11439 1.10998 1.10842
          1.11074 1.11206 1.10802 1.10566 1.10743 1.1081 1.10674 1.10485 1.10619 1.12033 1.11718 1.10933
          1.1112 1.11058 1.10937 1.10704 1.10743 1.10989 1.10917 1.10806 1.10846 1.10744 1.10731 1.10692
          1.10708 1.10824 1.10744 1.10675 1.10747 1.10702 1.10656 1.10605 1.10657 1.10519 1.10727 1.10701
          1.10573 1.10606 1.10634 1.10614 1.1051 1.10536 1.10938 1.10727 1.10629 1.10768 1.10779 1.10617
          1.10521 1.1067 1.10475 1.10185 1.1039 1.10491 1.10286 1.09932 1.10255 1.10694 1.1063 1.10449
          1.10522 1.10573 1.1052 1.10375 1.10437 1.10296 1.09977 1.10283 1.10379 1.10247 1.10027 1.1022
          1.09888 1.09548 1.08221 1.09258 1.0983 1.09117 1.07994 1.07012 1.05044 1.06925 1.07743 1.06102
          1.01979 1.06668 1.09371
        </DataArray>
        <DataArray type="Float32" Name="wetting-velocity" NumberOfComponents="3" format="ascii">
          1.66738e-05 1.96722e-05 2.04769e-05 2.06579e-05 4.39813e-06 3.97122e-06 8.73507e-06 7.56238e-06 1.98945e-06 5.73555e-06 2.3643e-05 5.76482e-06
          7.79603e-06 7.96084e-06 3.22006e-05 1.21226e-05 2.99729e-06 8.889e-06 5.95945e-06 5.46036e-06 4.57672e-06 3.38034e-06 1.16043e-05 1.08058e-05
          5.2932e-06 7.25754e-07 3.98645e-07 2.54548e-06 2.91355e-07 1.8314e-07 2.18769e-06 6.24386e-07 1.80461e-07 4.3999e-06 1.82433e-06 4.68156e-07
          5.63661e-06 8.24199e-07 1.40196e-06 2.64623e-06 3.14016e-07 5.68651e-07 2.28334e-06 6.74201e-07 5.83181e-07 4.01731e-06 1.86499e-06 1.33085e-06
          2.87461e-06 2.22029e-06 3.48901e-07 1.3936e-06 7.02291e-07 1.1836e-07 8.90748e-07 3.37562e-07 1.76416e-08 2.12434e-06 1.90761e-06 2.87095e-07
          2.62871e-06 2.07055e-06 1.02033e-06 1.41832e-06 7.72573e-07 3.26458e-07 8.0733e-07 3.74965e-07 5.7755e-08 1.95095e-06 1.84011e-06 7.03423e-07
          1.81186e-06 9.16914e-06 1.37913e-06 3.57568e-06 5.88788e-06 9.36795e-07 2.17112e-06 3.99821e-06 5.58138e-07 9.26177e-07 4.87795e-06 6.53731e-07
          1.47639e-06 7.10863e-06 2.98755e-06 3.04559e-06 4.96342e-06 2.09931e-06 1.99522e-06 3.76726e-06 1.64249e-06 8.50786e-07 4.36489e-06 1.74969e-06
          4.15466e-06 3.96262e-06 1.81089e-05 7.3901e-06 2.60834e-06 9.12684e-06 4.84708e-06 4.48381e-06 5.64924e-06 2.50068e-06 6.28323e-06 9.29233e-06
          2.43983e-06 2.57015e-06 1.02419e-05 4.94432e-06 2.05943e-06 7.19101e-06 3.69471e-06 3.77078e-06 5.83908e-06 1.66933e-06 4.41385e-06 7.19695e-06
          5.07317e-06 7.67423e-07 2.39596e-06 2.66723e-06 3.41166e-07 1.0031e-06 2.24056e-06 6.80744e-07 9.74104e-07 3.77864e-06 1.80231e-06 2.0546e-06
          4.21985e-06 6.10201e-07 3.00624e-06 2.57505e-06 3.01784e-07 1.41815e-06 1.9734e-06 7.13881e-07 1.21212e-06 3.34526e-06 1.54094e-06 2.61538e-06
          2.24704e-06 1.90608e-06 1.62801e-06 1.21771e-06 5.81213e-07 4.23129e-07 4.42464e-07 2.16039e-07 5.47593e-08 1.08571e-06 1.21935e-06 7.8816e-07
          1.9833e-06 1.81464e-06 1.89696e-06 1.02344e-06 4.09379e-07 3.08522e-07 8.4076e-09 9.1795e-09 3.21668e-09 4.23267e-07 8.3112e-07 5.54423e-07
          7.95087e-07 4.28542e-06 3.06155e-06 2.07317e-06 3.32378e-06 2.35276e-06 1.09812e-06 2.36469e-06 1.78851e-06 4.49696e-07 2.71253e-06 2.02276e-06
          5.44756e-07 3.2071e-06 3.23609e-06 1.58551e-06 2.86548e-06 2.77605e-06 6.52877e-07 1.4739e-06 1.38107e-06 2.42822e-07 2.07344e-06 1.85155e-06
          1.04835e-06 6.24641e-08 5.67047e-08 2.38651e-07 2.34104e-13 1.09315e-13 2.74145e-08 2.02895e-13 1.01472e-14 7.89938e-07 7.69208e-08 8.24828e-09
          1.30762e-06 8.52218e-08 1.98725e-07 4.20587e-07 5.72364e-12 6.38062e-12 6.02704e-08 4.96062e-12 7.44185e-13 9.10786e-07 1.2499e-07 4.62536e-08
          4.51529e-13 2.42e-35 1.63467e-35 2.73564e-35 2.38487e-35 1.45518e-35 2.52897e-35 6.36561e-35 1.72193e-35 7.37013e-18 6.8951e-35 1.86075e-35
          1.05072e-11 2.38691e-35 4.48279e-35 2.88058e-35 2.41821e-35 4.10681e-35 2.64201e-35 6.51317e-35 4.8386e-35 1.84244e-16 7.12617e-35 5.1424e-35
          1.99057e-24 1.54762e-34 1.54762e-35 2.96928e-07 2.01116e-08 1.00714e-09 8.01033e-12 4.9546e-18 2.4773e-19 4.14991e-22 1.39611e-24 2.97632e-25
          2.2379e-09 6.25007e-12 3.12504e-13 3.61231e-07 4.51259e-08 6.7767e-09 1.28533e-11 1.12072e-16 1.68108e-17 3.18704e-23 1.50488e-24 8.92314e-25
          1.15423e-09 9.28959e-12 1.39344e-12 1.33293e-06 1.14608e-07 3.30631e-07 4.29758e-07 3.32956e-12 1.10324e-11 2.4932e-08 2.88562e-12 7.2149e-13
          9.61192e-07 1.19146e-07 6.86386e-08 1.21013e-06 8.38143e-08 4.32403e-07 2.36383e-07 4.04593e-14 4.88682e-12 6.88739e-10 3.50647e-14 1.22736e-14
          8.20061e-07 7.31046e-08 4.20091e-08 6.8897e-12 1.96036e-36 2.86113e-35 1.37956e-36 1.99712e-36 2.65065e-35 1.28487e-36 5.35083e-36 2.78907e-35
          1.72378e-18 5.82296e-36 2.90828e-35 1.0905e-13 2.04446e-36 7.21435e-36 2.31274e-36 2.17106e-36 6.57468e-36 2.05978e-36 5.75739e-36 7.8591e-36
          2.13029e-24 6.20356e-36 8.56645e-36 3.58207e-26 1.33762e-35 4.01287e-36 2.05069e-07 1.74872e-08 4.37776e-09 1.67737e-13 9.97824e-19 2.49456e-19
          -4.3687e-26 2.82644e-26 4.37814e-25 7.58438e-12 1.17642e-13 2.94105e-14 1.21856e-08 4.10767e-10 1.43834e-10 4.70532e-20 1.31813e-24 4.77016e-25
          2.09008e-26 3.21112e-26 2.9915e-26 5.66248e-20 4.04627e-20 1.4162e-20 3.61379e-07 2.77324e-06 3.19395e-07 9.2077e-07 2.48469e-06 2.10385e-07
          7.38985e-08 8.731e-07 4.42305e-08 7.19407e-08 1.10568e-06 8.83432e-08 2.2335e-07 2.63233e-06 8.06689e-07 7.19249e-07 2.05194e-06 5.70032e-07
          7.90976e-09 5.63084e-07 8.50787e-08 6.84505e-09 9.95073e-07 1.9124e-07 5.86882e-07 8.13253e-07 4.97132e-08 2.65629e-08 2.52023e-09 1.26011e-10
          1.9476e-18 5.25184e-19 2.62592e-20 1.14043e-09 2.81992e-08 1.40996e-09 5.08803e-07 8.14479e-07 1.34318e-07 3.92839e-09 1.01966e-09 1.52949e-10
          1.46811e-22 1.86501e-22 2.79795e-23 1.78279e-11 3.52135e-09 5.28203e-10 5.07222e-24 1.4369e-18 1.4369e-19 1.31621e-15 1.16201e-07 5.81005e-09
          1.34488e-15 1.3894e-09 6.94699e-11 9.50569e-28 3.0317e-24 1.51942e-25 3.39433e-28 2.13849e-15 1.06924e-16 -2.99704e-17 1.07132e-08 1.60698e-09
          1.55789e-20 2.36561e-11 3.54841e-12 9.87109e-28 5.24667e-28 1.00419e-27 3.48188e-28 1.87548e-20 2.81322e-21 1.28217e-07 1.46548e-06 8.39162e-07
          2.00177e-07 1.09772e-06 5.12432e-07 1.3201e-12 5.55943e-08 1.39135e-08 -2.00036e-10 4.06734e-07 1.09447e-07 -4.77252e-09 8.44614e-07 5.49539e-07
          -2.69848e-09 4.32389e-07 2.11838e-07 -2.55772e-18 5.43233e-12 1.90135e-12 -7.59266e-14 2.88571e-09 1.01291e-09 7.8452e-08 3.72504e-07 9.59374e-08
          1.97072e-12 5.80933e-12 1.45233e-12 1.60062e-26 1.34456e-26 1.23362e-26 4.12788e-17 1.75634e-12 4.39085e-13 4.75791e-12 5.90068e-09 2.06651e-09
          9.21532e-22 5.00125e-20 1.75044e-20 1.70095e-26 1.27262e-26 1.60131e-26 1.50323e-26 7.31759e-22 2.56126e-22 1.12999e-37 2.05382e-26 6.16145e-27
          -1.43833e-21 2.99425e-12 8.98275e-13 5.84671e-19 4.44093e-22 4.44093e-23 0 0 0 0 0 0
          0 0 0 3.75264e-26 6.09191e-26 1.82757e-26 0 0 0 0 0 0
          0 0 0 6.23283e-07 4.51033e-07 5.02516e-06 1.74717e-06 4.05244e-07 4.24191e-06 1.38558e-06 1.13146e-06 3.6878e-06
          4.59802e-07 1.33436e-06 4.03998e-06 1.95785e-07 1.29155e-07 2.67522e-06 4.91284e-07 1.24084e-07 2.33761e-06 2.31028e-07 3.26282e-07 1.48604e-06
          8.67086e-08 4.19214e-07 1.80973e-06 2.22913e-06 3.5734e-07 2.81474e-06 1.78943e-06 1.12787e-07 1.59859e-06 9.63146e-07 1.70913e-07 6.49797e-07
          1.74411e-06 8.52569e-07 2.57472e-06 6.44052e-07 1.13113e-07 1.57749e-06 2.11344e-07 3.56029e-10 8.77278e-07 -2.0576e-08 3.84512e-10 7.99462e-08
          -4.66445e-08 1.27278e-07 1.25383e-06 4.74985e-07 5.75889e-07 8.94471e-07 1.27671e-07 5.33722e-08 2.89146e-08 2.01294e-16 3.18273e-15 1.11399e-15
          -9.75284e-10 7.52099e-08 3.24732e-08 -2.83374e-08 5.56124e-09 9.52711e-08 -8.59978e-16 4.54035e-17 2.48825e-15 7.90317e-28 7.85673e-28 6.65924e-28
          -3.98833e-17 1.68917e-16 1.61879e-16 2.96534e-07 1.54736e-06 2.56447e-06 6.6765e-07 1.37144e-06 2.15492e-06 -4.93818e-08 6.77048e-07 6.53819e-07
          -2.10669e-09 7.24623e-07 7.7893e-07 -5.12313e-08 3.15028e-07 1.05804e-06 -1.30442e-07 2.09212e-07 8.13793e-07 -1.73497e-10 2.41644e-10 9.27898e-10
          -2.85579e-09 1.20232e-08 4.58427e-08 -5.09813e-08 2.76478e-09 1.03702e-06 -1.39849e-07 2.36913e-10 9.1956e-07 -3.70879e-08 2.55889e-10 2.2082e-07
          -2.73975e-08 2.99042e-09 4.89749e-07 -1.6391e-10 4.69288e-23 3.16112e-09 -4.8841e-11 1.22906e-26 3.13978e-10 -5.85899e-15 1.46813e-26 3.48749e-14
          -3.03373e-13 5.06846e-23 5.41737e-12 -9.12276e-08 1.19898e-13 3.53495e-07 -3.65477e-10 8.36702e-26 1.00772e-09 -2.74108e-17 9.289e-26 6.99278e-17
          -1.97814e-09 1.2949e-13 7.06489e-09 -7.15209e-14 1.00253e-27 2.75866e-13 -7.13306e-26 1.15822e-27 2.09966e-25 4.35107e-27 3.33484e-27 2.25453e-27
          -1.77919e-22 2.88539e-27 6.35438e-22 -5.46075e-17 7.02214e-22 1.4302e-16 -6.25903e-10 4.84811e-12 1.02834e-08 -4.83511e-11 2.41017e-14 2.64784e-10
          -6.81107e-25 1.57856e-26 3.41602e-24 -1.68975e-18 9.93303e-21 2.53477e-17 -4.53569e-22 2.51631e-27 7.45149e-21 -5.93902e-28 2.57572e-27 9.22499e-27
          1.24532e-27 2.17603e-27 7.94607e-28 3.9286e-28 2.0794e-27 7.19506e-28 8.61577e-07 5.54412e-10 2.15043e-07 1.38732e-09 3.86781e-24 5.0065e-14
          3.22157e-16 4.36625e-24 2.78924e-24 9.14871e-08 5.98766e-10 6.14241e-10 9.59303e-10 7.50818e-24 9.21933e-10 1.74131e-23 1.02771e-25 7.83993e-24
          3.71307e-25 3.12571e-25 3.70839e-25 1.71845e-17 8.3127e-24 1.68744e-16 8.94682e-24 0 1.15892e-35 0 0 0
          3.96045e-15 2.29897e-16 6.89904e-17 -3.4334e-24 0 1.17583e-23 0 0 0 0 0 0
          0 0 0 -2.08511e-10 4.25672e-08 1.77283e-08 -8.55792e-13 1.0438e-09 3.69202e-10 4.74526e-27 1.21963e-24 4.35021e-25
          -5.84479e-24 2.1412e-17 7.49427e-18 -1.05587e-18 3.0283e-17 2.19005e-17 -1.94057e-25 4.51865e-24 2.03363e-24 5.73136e-27 5.37835e-27 5.06901e-27
          1.62339e-27 5.09608e-27 4.93587e-27 -2.4694e-22 1.76322e-16 5.28971e-17 0 0 0 -1.52981e-38 1.00805e-26 3.02416e-27
          -1.25263e-27 5.16918e-27 8.56952e-27 0 0 0 0 0 0 0 0 0
          0 0 0 0 0 0 0 0 0 0 0 0
          0 0 0 0 0 0 0 0 0 0 0 0
          0 0 0 0 0 0 0 0 0 0 0 0
          0 0 0 0 0 0 0 0 0
        </DataArray>
        <DataArray type="Float32" Name="nonwetting-velocity" NumberOfComponents="3" format="ascii">
          2.87581e-09 3.39296e-09 3.53177e-09 1.01604e-08 1.01657e-08 9.17897e-09 2.77666e-08 3.29209e-08 1.20042e-08 9.36374e-09 1.37054e-08 8.16684e-09
          6.91834e-09 6.45166e-09 1.30908e-08 1.97003e-08 1.1748e-08 2.85317e-08 3.52405e-08 3.78566e-08 3.65472e-08 1.22438e-08 2.21306e-08 2.61632e-08
          4.7215e-08 1.67057e-08 9.17616e-09 1.54274e-07 4.27911e-08 2.68976e-08 2.15116e-07 1.2428e-07 4.12068e-08 6.28246e-08 5.18585e-08 1.43804e-08
          4.92617e-08 1.75486e-08 3.05044e-08 1.3738e-07 3.98284e-08 7.56571e-08 1.99049e-07 1.1628e-07 1.20327e-07 7.21608e-08 5.45435e-08 4.29641e-08
          8.76438e-08 1.11092e-07 2.14962e-08 3.10128e-07 3.95457e-07 9.06388e-08 7.20699e-07 1.02523e-06 2.54158e-07 1.76125e-07 2.36117e-07 4.866e-08
          8.92803e-08 1.14486e-07 6.86952e-08 3.36892e-07 4.1497e-07 2.37702e-07 7.6634e-07 9.9175e-07 7.93557e-07 2.02654e-07 3.01683e-07 1.42121e-07
          1.47504e-08 3.67798e-08 9.33422e-09 3.00124e-08 4.36098e-08 7.74522e-09 1.90414e-08 3.48251e-08 4.88481e-09 8.11678e-09 4.0882e-08 5.63577e-09
          1.24694e-08 3.95494e-08 2.1859e-08 2.62966e-08 4.5936e-08 1.87389e-08 1.75078e-08 3.31767e-08 1.44328e-08 7.46226e-09 3.74058e-08 1.52116e-08
          1.21277e-09 1.38281e-09 1.14554e-08 1.21578e-09 1.73196e-09 2.14689e-08 5.61848e-10 3.0609e-09 2.34163e-08 7.71681e-10 2.68818e-09 1.81086e-08
          4.87657e-10 5.54451e-10 3.04753e-09 8.36157e-10 4.54889e-10 3.33001e-09 6.5421e-10 8.23928e-10 2.46724e-09 3.18381e-10 9.52342e-10 2.5995e-09
          3.65364e-08 1.77936e-08 5.37676e-08 1.28117e-07 4.04811e-08 1.21983e-07 2.07862e-07 1.17475e-07 1.97756e-07 4.31457e-08 5.46297e-08 6.8758e-08
          3.58581e-08 1.65804e-08 7.64039e-08 1.36529e-07 3.73225e-08 1.72456e-07 2.37057e-07 1.6947e-07 3.07714e-07 4.17733e-08 5.49033e-08 9.70015e-08
          1.25649e-07 1.15004e-07 1.24814e-07 3.75418e-07 5.10456e-07 5.02851e-07 9.63615e-07 1.06727e-06 1.10666e-06 3.94958e-07 3.98666e-07 3.55629e-07
          1.89742e-07 1.77601e-07 2.10846e-07 7.25874e-07 7.79803e-07 1.15749e-06 1.44968e-06 1.3308e-06 1.22818e-06 9.62803e-07 7.93007e-07 1.05753e-06
          1.87446e-08 4.19373e-08 4.1564e-08 6.25697e-08 4.74264e-08 4.54262e-08 1.14541e-07 1.75207e-07 1.04155e-07 3.44443e-08 1.19123e-07 8.33588e-08
          1.98148e-08 4.58193e-08 7.80836e-08 6.84434e-08 5.2537e-08 9.04214e-08 2.57766e-07 2.84497e-07 3.45852e-07 4.96233e-08 2.20806e-07 2.13723e-07
          5.36414e-07 1.17103e-07 1.06306e-07 8.71729e-07 2.3155e-07 1.08123e-07 1.00072e-06 5.27469e-07 1.68305e-07 7.52277e-07 6.00326e-07 1.26395e-07
          4.46855e-07 8.07034e-08 2.33577e-07 7.95412e-07 2.58226e-07 3.71996e-07 9.61581e-07 5.46066e-07 4.39414e-07 6.53782e-07 5.49781e-07 3.90866e-07
          6.46239e-07 1.86696e-07 1.2611e-07 2.11047e-07 1.83986e-07 1.12263e-07 1.95103e-07 4.91089e-07 1.32842e-07 6.14324e-07 5.31937e-07 1.43551e-07
          6.65539e-07 1.84143e-07 3.45835e-07 2.22229e-07 1.86558e-07 3.16828e-07 2.03824e-07 5.02473e-07 3.73284e-07 6.45504e-07 5.49764e-07 3.96722e-07
          1.21582e-06 1.65578e-06 4.39482e-07 7.24684e-07 8.72472e-07 1.40112e-07 7.64578e-07 7.49255e-07 1.66301e-07 7.0649e-07 8.69197e-07 1.87588e-07
          9.85901e-07 8.76646e-07 2.03149e-07 7.4536e-07 8.56882e-07 4.83449e-07 8.06762e-07 7.59433e-07 4.43748e-07 7.28282e-07 9.32185e-07 5.61522e-07
          1.08991e-06 9.47819e-07 5.71716e-07 4.35077e-07 1.09071e-07 3.14065e-07 7.63231e-07 2.37767e-07 6.56404e-07 1.03246e-06 5.29855e-07 6.34163e-07
          6.61321e-07 6.02674e-07 7.95602e-07 3.58231e-07 1.43458e-07 6.16326e-07 8.10128e-07 2.04211e-07 6.99309e-07 1.17357e-06 5.52795e-07 7.76628e-07
          7.45034e-07 6.30035e-07 1.12378e-06 6.7665e-07 1.90285e-07 5.22588e-07 2.29683e-07 1.93854e-07 4.97818e-07 2.09554e-07 5.19388e-07 5.86369e-07
          6.64854e-07 5.65216e-07 6.1225e-07 7.1361e-07 1.98449e-07 7.00274e-07 2.2449e-07 2.10738e-07 6.38183e-07 1.99937e-07 5.58851e-07 7.62858e-07
          6.90171e-07 6.02159e-07 8.31518e-07 1.33247e-06 1.91512e-06 1.17205e-06 8.3254e-07 9.04908e-07 7.18796e-07 8.09192e-07 8.1126e-07 6.94187e-07
          8.07753e-07 1.0826e-06 8.77339e-07 1.18601e-06 1.02491e-06 9.16017e-07 1.24177e-06 1.0199e-06 9.14074e-07 8.44984e-07 9.02223e-07 9.15957e-07
          8.00896e-07 1.23047e-06 1.14631e-06 1.17165e-06 1.23454e-06 1.18451e-06 4.85504e-08 1.59011e-07 3.22316e-08 2.02661e-07 2.77672e-07 3.77312e-08
          8.52598e-07 9.81514e-07 3.31183e-07 3.11944e-07 6.79253e-07 1.77312e-07 4.66655e-08 2.36785e-07 1.07075e-07 3.0221e-07 3.33116e-07 1.64378e-07
          8.81165e-07 1.01425e-06 8.46777e-07 4.20715e-07 8.42013e-07 6.8211e-07 7.55008e-07 8.8316e-07 2.58888e-07 1.15484e-06 1.22341e-06 2.56979e-07
          1.02132e-06 9.00403e-07 2.56301e-07 1.10915e-06 1.15275e-06 2.86521e-07 9.1706e-07 9.54441e-07 8.86446e-07 1.27369e-06 1.19959e-06 7.42761e-07
          1.03785e-06 9.31655e-07 8.14499e-07 1.05297e-06 1.16858e-06 7.67232e-07 2.17364e-06 1.5642e-06 6.96537e-07 1.92169e-07 8.41063e-07 2.16477e-07
          6.751e-07 9.98761e-07 2.35917e-07 5.96196e-07 2.94198e-07 2.38332e-07 2.1289e-07 3.12223e-07 2.22793e-07 1.95573e-07 8.59344e-07 7.01242e-07
          6.78435e-07 9.16659e-07 7.50362e-07 6.19118e-07 2.3406e-07 6.15581e-07 2.18385e-07 2.51976e-07 5.73974e-07 9.74913e-08 4.01418e-07 3.24117e-07
          6.89765e-07 6.10494e-07 7.09166e-07 7.40032e-07 9.29034e-07 9.93206e-07 3.24509e-07 7.68372e-07 1.00241e-06 4.35377e-07 7.41276e-07 9.17905e-07
          9.46326e-07 9.00224e-07 1.20949e-06 7.14609e-07 1.02497e-06 1.09578e-06 2.42754e-07 9.3078e-07 1.02941e-06 1.23464e-06 1.02203e-06 1.25761e-06
          1.26312e-06 1.22428e-06 1.10903e-06 1.26413e-06 1.07609e-06 1.22482e-06 1.04465e-06 1.08288e-06 1.06836e-06 1.15825e-06 1.2187e-06 1.25879e-06
          1.31075e-06 1.26121e-06 1.3563e-06 1.39413e-06 1.04306e-06 1.31246e-06 1.13676e-06 1.02091e-06 1.16415e-06 1.45768e-06 1.67931e-06 1.68567e-06
          4.64993e-07 1.55238e-06 2.36155e-06 2.39755e-06 2.10192e-06 7.32843e-07 2.53394e-07 6.91825e-07 6.11068e-07 1.90419e-07 2.65657e-07 8.1903e-07
          5.40594e-07 3.0699e-07 8.13999e-07 3.32939e-06 2.98995e-06 2.06813e-06 4.0816e-07 1.31116e-06 1.65054e-06 6.5986e-07 6.82474e-07 3.81016e-06
          1.55138e-06 5.78861e-07 2.65604e-06 2.57067e-08 1.4586e-08 5.54674e-08 8.02449e-08 1.61813e-08 5.9271e-08 9.68254e-08 5.8517e-08 8.36683e-08
          2.87409e-08 5.65805e-08 7.44164e-08 5.13802e-08 2.44415e-08 2.29908e-07 1.61297e-07 3.38257e-08 2.82927e-07 4.24427e-07 2.92365e-07 3.95511e-07
          8.34e-08 1.79406e-07 3.35107e-07 1.39275e-07 2.84235e-08 1.39986e-07 3.03014e-07 3.85644e-08 3.73009e-07 6.73983e-07 4.78171e-07 9.43805e-07
          1.81589e-07 9.99325e-08 2.40939e-07 5.17895e-07 1.01137e-07 3.94026e-07 1.16554e-06 2.90679e-07 1.0738e-06 1.43411e-06 7.93676e-07 1.59305e-06
          1.19117e-06 5.97587e-07 9.04782e-07 7.71238e-07 4.91328e-07 7.61777e-07 1.22546e-06 1.15413e-06 1.56603e-06 1.34177e-06 1.43297e-06 1.30699e-06
          1.23454e-06 1.08823e-06 1.44543e-06 1.09135e-06 1.13219e-06 1.28626e-06 1.20801e-06 1.11236e-06 1.24194e-06 1.29405e-06 1.28644e-06 1.09036e-06
          9.32893e-07 1.19478e-06 1.13684e-06 5.60773e-08 1.44123e-07 2.26942e-07 1.75946e-07 2.12648e-07 3.02425e-07 9.93649e-07 8.40395e-07 1.02668e-06
          3.57242e-07 5.69432e-07 7.3995e-07 3.97153e-07 7.35321e-07 7.92797e-07 9.19799e-07 8.74061e-07 1.03557e-06 5.0287e-07 1.23262e-06 1.3241e-06
          1.70298e-07 1.14813e-06 1.21293e-06 2.82599e-07 3.07384e-07 5.32487e-07 7.68421e-07 3.1262e-07 6.4019e-07 5.36534e-07 6.26591e-07 7.63686e-07
          2.25474e-07 6.75579e-07 7.14184e-07 7.84565e-08 1.18376e-07 3.57368e-07 2.48599e-07 1.2849e-07 4.20735e-07 2.96804e-07 4.38566e-07 4.76411e-07
          9.535e-08 4.12371e-07 4.37955e-07 8.87612e-07 2.20171e-07 7.68114e-07 7.90892e-07 1.62138e-07 1.18353e-06 7.77517e-07 5.87262e-07 1.17296e-06
          6.42306e-07 6.01395e-07 1.07384e-06 4.43412e-07 1.63287e-07 5.14742e-07 6.44386e-07 1.88965e-07 4.16213e-07 7.09886e-07 5.44085e-07 3.67831e-07
          5.25694e-07 4.70457e-07 3.97428e-07 1.37073e-06 2.07554e-06 2.06572e-06 1.24288e-07 7.70793e-07 9.18618e-07 3.99257e-07 7.52463e-07 1.07587e-06
          4.85971e-07 9.45317e-07 8.45146e-07 1.59385e-07 8.92743e-07 8.16e-07 1.24832e-07 6.86417e-07 3.60758e-07 3.57119e-07 7.29492e-07 3.36013e-07
          4.80575e-07 8.39741e-07 3.06644e-07 1.51607e-07 8.02453e-07 2.77662e-07 8.20079e-07 3.50023e-07 1.16003e-06 1.16819e-06 2.27052e-07 8.49832e-07
          1.04387e-06 7.26442e-07 9.57628e-07 1.23849e-06 8.68572e-07 1.2157e-06 1.41835e-06 3.00904e-07 1.20255e-06 1.04703e-06 2.61664e-07 9.50927e-07
          9.45375e-07 7.95829e-07 9.44184e-07 1.31394e-06 8.44049e-07 1.09071e-06 1.74509e-06 3.97181e-07 1.64334e-06 4.89513e-07 1.34164e-06 1.20579e-06
          3.50513e-06 2.95939e-06 2.58834e-06 2.18608e-06 4.09137e-07 1.56557e-06 3.85712e-07 5.71532e-07 3.67685e-07 6.39595e-07 2.2609e-06 6.24461e-07
          1.16272e-06 1.27618e-06 5.25301e-07 2.19643e-07 1.00719e-06 1.19527e-06 7.42215e-07 1.21924e-06 1.22898e-06 8.15111e-07 8.78019e-07 1.04059e-06
          2.6682e-07 8.81877e-07 9.12932e-07 2.08479e-07 9.987e-07 8.93197e-07 7.0377e-07 1.09124e-06 9.33821e-07 8.44762e-07 7.92731e-07 7.47136e-07
          2.39276e-07 7.51125e-07 7.27512e-07 2.74234e-06 3.37962e-06 3.17251e-06 1.93079e-06 6.00459e-07 1.1808e-06 5.51621e-07 1.4858e-06 1.00016e-06
          2.21703e-07 2.27786e-06 1.41468e-06 1.06818e-06 9.92699e-07 4.75487e-07 1.64536e-06 5.32391e-07 4.62075e-07 4.82502e-07 3.63917e-07 2.85129e-07
          1.68669e-06 1.86215e-06 1.63495e-06 7.95766e-07 2.83288e-06 2.44995e-06 1.99181e-06 2.27161e-06 9.64694e-06 4.1815e-06 1.32243e-06 2.8502e-06
          2.14253e-06 1.85228e-06 5.71135e-07 1.36852e-06 5.88773e-06 1.33887e-06 5.15485e-06 5.02245e-06 4.04328e-06 4.45093e-06 8.88506e-06 8.2043e-06
          8.56081e-06 8.93357e-06 2.36365e-05 1.00992e-05 4.78106e-06 7.11403e-06 7.34259e-06 5.95571e-06 2.43966e-06 6.4271e-06 1.96699e-05 6.08677e-06
          2.57045e-05 3.20597e-05 4.93808e-05 2.04242e-05 5.58431e-06 4.84378e-06 5.08222e-06 1.1359e-06 8.95428e-07
        </DataArray>
        <DataArray type="Float32" Name="wetting saturation" NumberOfComponents="1" format="ascii">