<?xml version="1.0"?>
<VTKFile type="UnstructuredGrid" version="0.1" byte_order="LittleEndian">
  <UnstructuredGrid>
    <Piece NumberOfCells="126" NumberOfPoints="154">
      <PointData Scalars="S_liq">
        <DataArray type="Float32" Name="S_liq" NumberOfComponents="1" format="ascii">
          0.300016 0.300016 0.300014 0.300014 0.300016 0.300014 0.300016 0.300014 0.300016 0.300014 0.300016 0.300014
          0.300016 0.300014 0.300016 0.300014 0.300016 0.300014 0.300016 0.300014 0.300016 0.300014 0.300016 0.300014
          0.300016 0.300014 0.300016 0.300014 0.300016 0.300014 0.300016 0.300014 0.300016 0.300014 0.300016 0.300014
          0.300016 0.300014 0.300016 0.300014 0.300016 0.300014 0.300016 0.300014 0.300011 0.300011 0.300011 0.300011
          0.300011 0.300011 0.300011 0.300011 0.300011 0.300011 0.300011 0.300011 0.300011 0.300011 0.300011 0.300011
          0.300011 0.300011 0.300011 0.300011 0.300011 0.300011 0.300008 0.300008 0.300008 0.300008 0.300008 0.300008
          0.300008 0.300008 0.300008 0.300008 0.300008 0.300008 0.300008 0.300008 0.300008 0.300008 0.300008 0.300008
          0.300008 0.300008 0.300008 0.300008 0.300005 0.300005 0.300005 0.300005 0.300005 0.300005 0.300005 0.300005
          0.300005 0.300005 0.300005 0.300005 0.300005 0.300005 0.300005 0.300005 0.300005 0.300005 0.300005 0.300005
          0.300005 0.300005 0.300003 0.300003 0.300003 0.300003 0.300003 0.300003 0.300003 0.300003 0.300003 0.300003
          0.300003 0.300003 0.300003 0.300003 0.300003 0.300003 0.300003 0.300003 0.300003 0.300003 0.300003 0.300003
          0.3 0.3 0.3 0.3 0.3 0.3 0.3 0.3 0.3 0.3 0.3 0.3
          0.3 0.3 0.3 0.3 0.3 0.3 0.3 0.3 0.3 0.3
        </DataArray>
        <DataArray type="Float32" Name="p_liq" NumberOfComponents="1" format="ascii">
          114005 114005 114005 114005 114005 114005 114005 114005 114005 114005 114005 114005
          114005 114005 114005 114005 114005 114005 114005 114005 114005 114005 114005 114005
          114005 114005 114005 114005 114005 114005 114005 114005 114005 114005 114005 114005
          114005 114005 114005 114005 114005 114005 114005 114005 114005 114005 114005 114005
          114005 114005 114005 114005 114005 114005 114005 114005 114005 114005 114005 114005
          114005 114005 114005 114005 114005 114005 114005 114005 114005 114005 114005 114005
          114005 114005 114005 114005 114005 114005 114005 114005 114005 114005 114005 114005
          114005 114005 114005 114005 114005 114005 114005 114005 114005 114005 114005 114005
          114005 114005 114005 114005 114005 114005 114005 114005 114005 114005 114005 114005
          114005 114005 114005 114005 114005 114005 114005 114005 114005 114005 114005 114005
          114005 114005 114005 114005 114005 114005 114005 114005 114005 114005 114005 114005
          114005 114005 114005 114005 114005 114005 114005 114005 114005 114005 114005 114005
          114005 114005 114005 114005 114005 114005 114005 114005 114005 114005
        </DataArray>
        <DataArray type="Float32" Name="rho_liq" NumberOfComponents="1" format="ascii">
          998.155 998.155 998.167 998.167 998.155 998.167 998.155 998.167 998.155 998.167 998.155 998.167
          998.155 998.167 998.155 998.167 998.155 998.167 998.155 998.167 998.155 998.167 998.155 998.167
          998.155 998.167 998.155 998.167 998.155 998.167 998.155 998.167 998.155 998.167 998.155 998.167
          998.155 998.167 998.155 998.167 998.155 998.167 998.155 998.167 998.178 998.178 998.178 998.178
          998.178 998.178 998.178 998.178 998.178 998.178 998.178 998.178 998.178 998.178 998.178 998.178
          998.178 998.178 998.178 998.178 998.178 998.178 998.189 998.189 998.189 998.189 998.189 998.189
          998.189 998.189 998.189 998.189 998.189 998.189 998.189 998.189 998.189 998.189 998.189 998.189
          998.189 998.189 998.189 998.189 998.2 998.2 998.2 998.2 998.2 998.2 998.2 998.2
          998.2 998.2 998.2 998.2 998.2 998.2 998.2 998.2 998.2 998.2 998.2 998.2
          998.2 998.2 998.211 998.211 998.211 998.211 998.211 998.211 998.211 998.211 998.211 998.211
          998.211 998.211 998.211 998.211 998.211 998.211 998.211 998.211 998.211 998.211 998.211 998.211
          998.222 998.222 998.222 998.222 998.222 998.222 998.222 998.222 998.222 998.222 998.222 998.222
          998.222 998.222 998.222 998.222 998.222 998.222 998.222 998.222 998.222 998.222
        </DataArray>
        <DataArray type="Float32" Name="mob_liq" NumberOfComponents="1" format="ascii">
          176.421 176.421 176.193 176.193 176.421 176.193 176.421 176.193 176.421 176.193 176.421 176.193
          176.421 176.193 176.421 176.193 176.421 176.193 176.421 176.193 176.421 176.193 176.421 176.193
          176.421 176.193 176.421 176.193 176.421 176.193 176.421 176.193 176.421 176.193 176.421 176.193
          176.421 176.193 176.421 176.193 176.421 176.193 176.421 176.193 175.964 175.964 175.964 175.964
          175.964 175.964 175.964 175.964 175.964 175.964 175.964 175.964 175.964 175.964 175.964 175.964
          175.964 175.964 175.964 175.964 175.964 175.964 175.736 175.736 175.736 175.736 175.736 175.736
          175.736 175.736 175.736 175.736 175.736 175.736 175.736 175.736 175.736 175.736 175.736 175.736
          175.736 175.736 175.736 175.736 175.508 175.508 175.508 175.508 175.508 175.508 175.508 175.508
          175.508 175.508 175.508 175.508 175.508 175.508 175.508 175.508 175.508 175.508 175.508 175.508
          175.508 175.508 175.28 175.28 175.28 175.28 175.28 175.28 175.28 175.28 175.28 175.28
          175.28 175.28 175.28 175.28 175.28 175.28 175.28 175.28 175.28 175.28 175.28 175.28
          175.053 175.053 175.053 175.053 175.053 175.053 175.053 175.053 175.053 175.053 175.053 175.053
          175.053 175.053 175.053 175.053 175.053 175.053 175.053 175.053 175.053 175.053
        </DataArray>
        <DataArray type="Float32" Name="S_gas" NumberOfComponents="1" format="ascii">
          0.699984 0.699984 0.699986 0.699986 0.699984 0.699986 0.699984 0.699986 0.699984 0.699986 0.699984 0.699986
          0.699984 0.699986 0.699984 0.699986 0.699984 0.699986 0.699984 0.699986 0.699984 0.699986 0.699984 0.699986
          0.699984 0.699986 0.699984 0.699986 0.699984 0.699986 0.699984 0.699986 0.699984 0.699986 0.699984 0.699986
          0.699984 0.699986 0.699984 0.699986 0.699984 0.699986 0.699984 0.699986 0.699989 0.699989 0.699989 0.699989
          0.699989 0.699989 0.699989 0.699989 0.699989 0.699989 0.699989 0.699989 0.699989 0.699989 0.699989 0.699989
          0.699989 0.699989 0.699989 0.699989 0.699989 0.699989 0.699992 0.699992 0.699992 0.699992 0.699992 0.699992
          0.699992 0.699992 0.699992 0.699992 0.699992 0.699992 0.699992 0.699992 0.699992 0.699992 0.699992 0.699992
          0.699992 0.699992 0.699992 0.699992 0.699995 0.699995 0.699995 0.699995 0.699995 0.699995 0.699995 0.699995
          0.699995 0.699995 0.699995 0.699995 0.699995 0.699995 0.699995 0.699995 0.699995 0.699995 0.699995 0.699995
          0.699995 0.699995 0.699997 0.699997 0.699997 0.699997 0.699997 0.699997 0.699997 0.699997 0.699997 0.699997
          0.699997 0.699997 0.699997 0.699997 0.699997 0.699997 0.699997 0.699997 0.699997 0.699997 0.699997 0.699997
          0.7 0.7 0.7 0.7 0.7 0.7 0.7 0.7 0.7 0.7 0.7 0.7
          0.7 0.7 0.7 0.7 0.7 0.7 0.7 0.7 0.7 0.7
        </DataArray>
        <DataArray type="Float32" Name="p_gas" NumberOfComponents="1" format="ascii">
          99999.7 99999.7 99999.7 99999.7 99999.7 99999.7 99999.7 99999.7 99999.7 99999.7 99999.7 99999.7
          99999.7 99999.7 99999.7 99999.7 99999.7 99999.7 99999.7 99999.7 99999.7 99999.7 99999.7 99999.7
          99999.7 99999.7 99999.7 99999.7 99999.7 99999.7 99999.7 99999.7 99999.7 99999.7 99999.7 99999.7
          99999.7 99999.7 99999.7 99999.7 99999.7 99999.7 99999.7 99999.7 99999.8 99999.8 99999.8 99999.8
          99999.8 99999.8 99999.8 99999.8 99999.8 99999.8 99999.8 99999.8 99999.8 99999.8 99999.8 99999.8
          99999.8 99999.8 99999.8 99999.8 99999.8 99999.8 99999.8 99999.8 99999.8 99999.8 99999.8 99999.8
          99999.8 99999.8 99999.8 99999.8 99999.8 99999.8 99999.8 99999.8 99999.8 99999.8 99999.8 99999.8
          99999.8 99999.8 99999.8 99999.8 99999.9 99999.9 99999.9 99999.9 99999.9 99999.9 99999.9 99999.9
          99999.9 99999.9 99999.9 99999.9 99999.9 99999.9 99999.9 99999.9 99999.9 99999.9 99999.9 99999.9
          99999.9 99999.9 99999.9 99999.9 99999.9 99999.9 99999.9 99999.9 99999.9 99999.9 99999.9 99999.9
          99999.9 99999.9 99999.9 99999.9 99999.9 99999.9 99999.9 99999.9 99999.9 99999.9 99999.9 99999.9
          100000 100000 100000 100000 100000 100000 100000 100000 100000 100000 100000 100000
          100000 100000 100000 100000 100000 100000 100000 100000 100000 100000
        </DataArray>
        <DataArray type="Float32" Name="rho_gas" NumberOfComponents="1" format="ascii">
          1.16267 1.16267 1.16683 1.16683 1.16267 1.16683 1.16267 1.16683 1.16267 1.16683 1.16267 1.16683
          1.16267 1.16683 1.16267 1.16683 1.16267 1.16683 1.16267 1.16683 1.16267 1.16683 1.16267 1.16683
          1.16267 1.16683 1.16267 1.16683 1.16267 1.16683 1.16267 1.16683 1.16267 1.16683 1.16267 1.16683
          1.16267 1.16683 1.16267 1.16683 1.16267 1.16683 1.16267 1.16683 1.17088 1.17088 1.17088 1.17088
          1.17088 1.17088 1.17088 1.17088 1.17088 1.17088 1.17088 1.17088 1.17088 1.17088 1.17088 1.17088
          1.17088 1.17088 1.17088 1.17088 1.17088 1.17088 1.17482 1.17482 1.17482 1.17482 1.17482 1.17482
          1.17482 1.17482 1.17482 1.17482 1.17482 1.17482 1.17482 1.17482 1.17482 1.17482 1.17482 1.17482
          1.17482 1.17482 1.17482 1.17482 1.17865 1.17865 1.17865 1.17865 1.17865 1.17865 1.17865 1.17865
          1.17865 1.17865 1.17865 1.17865 1.17865 1.17865 1.17865 1.17865 1.17865 1.17865 1.17865 1.17865
          1.17865 1.17865 1.18238 1.18238 1.18238 1.18238 1.18238 1.18238 1.18238 1.18238 1.18238 1.18238
          1.18238 1.18238 1.18238 1.18238 1.18238 1.18238 1.18238 1.18238 1.18238 1.18238 1.18238 1.18238
          1.18602 1.18602 1.18602 1.18602 1.18602 1.18602 1.18602 1.18602 1.18602 1.18602 1.18602 1.18602
          1.18602 1.18602 1.18602 1.18602 1.18602 1.18602 1.18602 1.18602 1.18602 1.18602
        </DataArray>
        <DataArray type="Float32" Name="mob_gas" NumberOfComponents="1" format="ascii">
          9411.89 9411.89 9377.59 9377.59 9411.89 9377.59 9411.89 9377.59 9411.89 9377.59 9411.89 9377.59
          9411.89 9377.59 9411.89 9377.59 9411.89 9377.59 9411.89 9377.59 9411.89 9377.59 9411.89 9377.59
          9411.89 9377.59 9411.89 9377.59 9411.89 9377.59 9411.89 9377.59 9411.89 9377.59 9411.89 9377.59
          9411.89 9377.59 9411.89 9377.59 9411.89 9377.59 9411.89 9377.59 9344.57 9344.57 9344.57 9344.57
          9344.57 9344.57 9344.57 9344.57 9344.57 9344.57 9344.57 9344.57 9344.57 9344.57 9344.57 9344.57
          9344.57 9344.57 9344.57 9344.57 9344.57 9344.57 9312.77 9312.77 9312.77 9312.77 9312.77 9312.77
          9312.77 9312.77 9312.77 9312.77 9312.77 9312.77 9312.77 9312.77 9312.77 9312.77 9312.77 9312.77
          9312.77 9312.77 9312.77 9312.77 9282.13 9282.13 9282.13 9282.13 9282.13 9282.13 9282.13 9282.13
          9282.13 9282.13 9282.13 9282.13 9282.13 9282.13 9282.13 9282.13 9282.13 9282.13 9282.13 9282.13
          9282.13 9282.13 9252.61 9252.61 9252.61 9252.61 9252.61 9252.61 9252.61 9252.61 9252.61 9252.61
          9252.61 9252.61 9252.61 9252.61 9252.61 9252.61 9252.61 9252.61 9252.61 9252.61 9252.61 9252.61
          9224.17 9224.17 9224.17 9224.17 9224.17 9224.17 9224.17 9224.17 9224.17 9224.17 9224.17 9224.17
          9224.17 9224.17 9224.17 9224.17 9224.17 9224.17 9224.17 9224.17 9224.17 9224.17
        </DataArray>
        <DataArray type="Float32" Name="pc" NumberOfComponents="1" format="ascii">
          14005.7 14005.7 14005.6 14005.6 14005.7 14005.6 14005.7 14005.6 14005.7 14005.6 14005.7 14005.6
          14005.7 14005.6 14005.7 14005.6 14005.7 14005.6 14005.7 14005.6 14005.7 14005.6 14005.7 14005.6
          14005.7 14005.6 14005.7 14005.6 14005.7 14005.6 14005.7 14005.6 14005.7 14005.6 14005.7 14005.6
          14005.7 14005.6 14005.7 14005.6 14005.7 14005.6 14005.7 14005.6 14005.6 14005.6 14005.6 14005.6
          14005.6 14005.6 14005.6 14005.6 14005.6 14005.6 14005.6 14005.6 14005.6 14005.6 14005.6 14005.6
          14005.6 14005.6 14005.6 14005.6 14005.6 14005.6 14005.5 14005.5 14005.5 14005.5 14005.5 14005.5
          14005.5 14005.5 14005.5 14005.5 14005.5 14005.5 14005.5 14005.5 14005.5 14005.5 14005.5 14005.5
          14005.5 14005.5 14005.5 14005.5 14005.5 14005.5 14005.5 14005.5 14005.5 14005.5 14005.5 14005.5
          14005.5 14005.5 14005.5 14005.5 14005.5 14005.5 14005.5 14005.5 14005.5 14005.5 14005.5 14005.5
          14005.5 14005.5 14005.4 14005.4 14005.4 14005.4 14005.4 14005.4 14005.4 14005.4 14005.4 14005.4
          14005.4 14005.4 14005.4 14005.4 14005.4 14005.4 14005.4 14005.4 14005.4 14005.4 14005.4 14005.4
          14005.3 14005.3 14005.3 14005.3 14005.3 14005.3 14005.3 14005.3 14005.3 14005.3 14005.3 14005.3
          14005.3 14005.3 14005.3 14005.3 14005.3 14005.3 14005.3 14005.3 14005.3 14005.3
        </DataArray>
        <DataArray type="Float32" Name="porosity" NumberOfComponents="1" format="ascii">
          0.2 0.2 0.2 0.2 0.2 0.2 0.2 0.2 0.2 0.2 0.2 0.2
          0.2 0.2 0.2 0.2 0.2 0.2 0.2 0.2 0.2 0.2 0.2 0.2
          0.2 0.2 0.2 0.2 0.2 0.2 0.2 0.2 0.2 0.2 0.2 0.2
          0.2 0.2 0.2 0.2 0.2 0.2 0.2 0.2 0.2 0.2 0.2 0.2
          0.2 0.2 0.2 0.2 0.2 0.2 0.2 0.2 0.2 0.2 0.2 0.2
          0.2 0.2 0.2 0.2 0.2 0.2 0.2 0.2 0.2 0.2 0.2 0.2
          0.2 0.2 0.2 0.2 0.2 0.2 0.2 0.2 0.2 0.2 0.2 0.2
          0.2 0.2 0.2 0.2 0.2 0.2 0.2 0.2 0.2 0.2 0.2 0.2
          0.2 0.2 0.2 0.2 0.2 0.2 0.2 0.2 0.2 0.2 0.2 0.2
          0.2 0.2 0.2 0.2 0.2 0.2 0.2 0.2 0.2 0.2 0.2 0.2
          0.2 0.2 0.2 0.2 0.2 0.2 0.2 0.2 0.2 0.2 0.2 0.2
          0.2 0.2 0.2 0.2 0.2 0.2 0.2 0.2 0.2 0.2 0.2 0.2
          0.2 0.2 0.2 0.2 0.2 0.2 0.2 0.2 0.2 0.2
        </DataArray>
        <DataArray type="Float32" Name="x^H2O_liq" NumberOfComponents="1" format="ascii">
          0.999986 0.999986 0.999986 0.999986 0.999986 0.999986 0.999986 0.999986 0.999986 0.999986 0.999986 0.999986
          0.999986 0.999986 0.999986 0.999986 0.999986 0.999986 0.999986 0.999986 0.999986 0.999986 0.999986 0.999986
          0.999986 0.999986 0.999986 0.999986 0.999986 0.999986 0.999986 0.999986 0.999986 0.999986 0.999986 0.999986
          0.999986 0.999986 0.999986 0.999986 0.999986 0.999986 0.999986 0.999986 0.999985 0.999985 0.999985 0.999985
          0.999985 0.999985 0.999985 0.999985 0.999985 0.999985 0.999985 0.999985 0.999985 0.999985 0.999985 0.999985
          0.999985 0.999985 0.999985 0.999985 0.999985 0.999985 0.999985 0.999985 0.999985 0.999985 0.999985 0.999985
          0.999985 0.999985 0.999985 0.999985 0.999985 0.999985 0.999985 0.999985 0.999985 0.999985 0.999985 0.999985
          0.999985 0.999985 0.999985 0.999985 0.999985 0.999985 0.999985 0.999985 0.999985 0.999985 0.999985 0.999985
          0.999985 0.999985 0.999985 0.999985 0.999985 0.999985 0.999985 0.999985 0.999985 0.999985 0.999985 0.999985
          0.999985 0.999985 0.999985 0.999985 0.999985 0.999985 0.999985 0.999985 0.999985 0.999985 0.999985 0.999985
          0.999985 0.999985 0.999985 0.999985 0.999985 0.999985 0.999985 0.999985 0.999985 0.999985 0.999985 0.999985
          0.999984 0.999984 0.999984 0.999984 0.999984 0.999984 0.999984 0.999984 0.999984 0.999984 0.999984 0.999984
          0.999984 0.999984 0.999984 0.999984 0.999984 0.999984 0.999984 0.999984 0.999984 0.999984
        </DataArray>
        <DataArray type="Float32" Name="x^N2_liq" NumberOfComponents="1" format="ascii">
          1.02974e-05 1.02974e-05 1.00083e-05 1.00083e-05 1.02974e-05 1.00083e-05 1.02974e-05 1.00083e-05 1.02974e-05 1.00083e-05 1.02974e-05 1.00083e-05
          1.02974e-05 1.00083e-05 1.02974e-05 1.00083e-05 1.02974e-05 1.00083e-05 1.02974e-05 1.00083e-05 1.02974e-05 1.00083e-05 1.02974e-05 1.00083e-05
          1.02974e-05 1.00083e-05 1.02974e-05 1.00083e-05 1.02974e-05 1.00083e-05 1.02974e-05 1.00083e-05 1.02974e-05 1.00083e-05 1.02974e-05 1.00083e-05
          1.02974e-05 1.00083e-05 1.02974e-05 1.00083e-05 1.02974e-05 1.00083e-05 1.02974e-05 1.00083e-05 9.7274e-06 9.7274e-06 9.7274e-06 9.7274e-06
          9.7274e-06 9.7274e-06 9.7274e-06 9.7274e-06 9.7274e-06 9.7274e-06 9.7274e-06 9.7274e-06 9.7274e-06 9.7274e-06 9.7274e-06 9.7274e-06
          9.7274e-06 9.7274e-06 9.7274e-06 9.7274e-06 9.7274e-06 9.7274e-06 9.45433e-06 9.45433e-06 9.45433e-06 9.45433e-06 9.45433e-06 9.45433e-06
          9.45433e-06 9.45433e-06 9.45433e-06 9.45433e-06 9.45433e-06 9.45433e-06 9.45433e-06 9.45433e-06 9.45433e-06 9.45433e-06 9.45433e-06 9.45433e-06
          9.45433e-06 9.45433e-06 9.45433e-06 9.45433e-06 9.1889e-06 9.1889e-06 9.1889e-06 9.1889e-06 9.1889e-06 9.1889e-06 9.1889e-06 9.1889e-06
          9.1889e-06 9.1889e-06 9.1889e-06 9.1889e-06 9.1889e-06 9.1889e-06 9.1889e-06 9.1889e-06 9.1889e-06 9.1889e-06 9.1889e-06 9.1889e-06
          9.1889e-06 9.1889e-06 8.9309e-06 8.9309e-06 8.9309e-06 8.9309e-06 8.9309e-06 8.9309e-06 8.9309e-06 8.9309e-06 8.9309e-06 8.9309e-06
          8.9309e-06 8.9309e-06 8.9309e-06 8.9309e-06 8.9309e-06 8.9309e-06 8.9309e-06 8.9309e-06 8.9309e-06 8.9309e-06 8.9309e-06 8.9309e-06
          8.68013e-06 8.68013e-06 8.68013e-06 8.68013e-06 8.68013e-06 8.68013e-06 8.68013e-06 8.68013e-06 8.68013e-06 8.68013e-06 8.68013e-06 8.68013e-06
          8.68013e-06 8.68013e-06 8.68013e-06 8.68013e-06 8.68013e-06 8.68013e-06 8.68013e-06 8.68013e-06 8.68013e-06 8.68013e-06
        </DataArray>
        <DataArray type="Float32" Name="x^O2_liq" NumberOfComponents="1" format="ascii">
          3.63902e-06 3.63902e-06 4.22913e-06 4.22913e-06 3.63902e-06 4.22913e-06 3.63902e-06 4.22913e-06 3.63902e-06 4.22913e-06 3.63902e-06 4.22913e-06
          3.63902e-06 4.22913e-06 3.63902e-06 4.22913e-06 3.63902e-06 4.22913e-06 3.63902e-06 4.22913e-06 3.63902e-06 4.22913e-06 3.63902e-06 4.22913e-06
          3.63902e-06 4.22913e-06 3.63902e-06 4.22913e-06 3.63902e-06 4.22913e-06 3.63902e-06 4.22913e-06 3.63902e-06 4.22913e-06 3.63902e-06 4.22913e-06
          3.63902e-06 4.22913e-06 3.63902e-06 4.22913e-06 3.63902e-06 4.22913e-06 3.63902e-06 4.22913e-06 4.80352e-06 4.80352e-06 4.80352e-06 4.80352e-06
          4.80352e-06 4.80352e-06 4.80352e-06 4.80352e-06 4.80352e-06 4.80352e-06 4.80352e-06 4.80352e-06 4.80352e-06 4.80352e-06 4.80352e-06 4.80352e-06
          4.80352e-06 4.80352e-06 4.80352e-06 4.80352e-06 4.80352e-06 4.80352e-06 5.36263e-06 5.36263e-06 5.36263e-06 5.36263e-06 5.36263e-06 5.36263e-06
          5.36263e-06 5.36263e-06 5.36263e-06 5.36263e-06 5.36263e-06 5.36263e-06 5.36263e-06 5.36263e-06 5.36263e-06 5.36263e-06 5.36263e-06 5.36263e-06
          5.36263e-06 5.36263e-06 5.36263e-06 5.36263e-06 5.90689e-06 5.90689e-06 5.90689e-06 5.90689e-06 5.90689e-06 5.90689e-06 5.90689e-06 5.90689e-06
          5.90689e-06 5.90689e-06 5.90689e-06 5.90689e-06 5.90689e-06 5.90689e-06 5.90689e-06 5.90689e-06 5.90689e-06 5.90689e-06 5.90689e-06 5.90689e-06
          5.90689e-06 5.90689e-06 6.43671e-06 6.43671e-06 6.43671e-06 6.43671e-06 6.43671e-06 6.43671e-06 6.43671e-06 6.43671e-06 6.43671e-06 6.43671e-06
          6.43671e-06 6.43671e-06 6.43671e-06 6.43671e-06 6.43671e-06 6.43671e-06 6.43671e-06 6.43671e-06 6.43671e-06 6.43671e-06 6.43671e-06 6.43671e-06
          6.95249e-06 6.95249e-06 6.95249e-06 6.95249e-06 6.95249e-06 6.95249e-06 6.95249e-06 6.95249e-06 6.95249e-06 6.95249e-06 6.95249e-06 6.95249e-06
          6.95249e-06 6.95249e-06 6.95249e-06 6.95249e-06 6.95249e-06 6.95249e-06 6.95249e-06 6.95249e-06 6.95249e-06 6.95249e-06
        </DataArray>
        <DataArray type="Float32" Name="rhoMolar_liq" NumberOfComponents="1" format="ascii">
          55405.9 55405.9 55406.5 55406.5 55405.9 55406.5 55405.9 55406.5 55405.9 55406.5 55405.9 55406.5
          55405.9 55406.5 55405.9 55406.5 55405.9 55406.5 55405.9 55406.5 55405.9 55406.5 55405.9 55406.5
          55405.9 55406.5 55405.9 55406.5 55405.9 55406.5 55405.9 55406.5 55405.9 55406.5 55405.9 55406.5
          55405.9 55406.5 55405.9 55406.5 55405.9 55406.5 55405.9 55406.5 55407.1 55407.1 55407.1 55407.1
          55407.1 55407.1 55407.1 55407.1 55407.1 55407.1 55407.1 55407.1 55407.1 55407.1 55407.1 55407.1
          55407.1 55407.1 55407.1 55407.1 55407.1 55407.1 55407.7 55407.7 55407.7 55407.7 55407.7 55407.7
          55407.7 55407.7 55407.7 55407.7 55407.7 55407.7 55407.7 55407.7 55407.7 55407.7 55407.7 55407.7
          55407.7 55407.7 55407.7 55407.7 55408.3 55408.3 55408.3 55408.3 55408.3 55408.3 55408.3 55408.3
          55408.3 55408.3 55408.3 55408.3 55408.3 55408.3 55408.3 55408.3 55408.3 55408.3 55408.3 55408.3
          55408.3 55408.3 55408.9 55408.9 55408.9 55408.9 55408.9 55408.9 55408.9 55408.9 55408.9 55408.9
          55408.9 55408.9 55408.9 55408.9 55408.9 55408.9 55408.9 55408.9 55408.9 55408.9 55408.9 55408.9
          55409.5 55409.5 55409.5 55409.5 55409.5 55409.5 55409.5 55409.5 55409.5 55409.5 55409.5 55409.5
          55409.5 55409.5 55409.5 55409.5 55409.5 55409.5 55409.5 55409.5 55409.5 55409.5
        </DataArray>
        <DataArray type="Float32" Name="x^H2O_gas" NumberOfComponents="1" format="ascii">
          0.0238516 0.0238516 0.0237744 0.0237744 0.0238516 0.0237744 0.0238516 0.0237744 0.0238516 0.0237744 0.0238516 0.0237744
          0.0238516 0.0237744 0.0238516 0.0237744 0.0238516 0.0237744 0.0238516 0.0237744 0.0238516 0.0237744 0.0238516 0.0237744
          0.0238516 0.0237744 0.0238516 0.0237744 0.0238516 0.0237744 0.0238516 0.0237744 0.0238516 0.0237744 0.0238516 0.0237744
          0.0238516 0.0237744 0.0238516 0.0237744 0.0238516 0.0237744 0.0238516 0.0237744 0.0236974 0.0236974 0.0236974 0.0236974
          0.0236974 0.0236974 0.0236974 0.0236974 0.0236974 0.0236974 0.0236974 0.0236974 0.0236974 0.0236974 0.0236974 0.0236974
          0.0236974 0.0236974 0.0236974 0.0236974 0.0236974 0.0236974 0.0236207 0.0236207 0.0236207 0.0236207 0.0236207 0.0236207
          0.0236207 0.0236207 0.0236207 0.0236207 0.0236207 0.0236207 0.0236207 0.0236207 0.0236207 0.0236207 0.0236207 0.0236207
          0.0236207 0.0236207 0.0236207 0.0236207 0.0235441 0.0235441 0.0235441 0.0235441 0.0235441 0.0235441 0.0235441 0.0235441
          0.0235441 0.0235441 0.0235441 0.0235441 0.0235441 0.0235441 0.0235441 0.0235441 0.0235441 0.0235441 0.0235441 0.0235441
          0.0235441 0.0235441 0.0234678 0.0234678 0.0234678 0.0234678 0.0234678 0.0234678 0.0234678 0.0234678 0.0234678 0.0234678
          0.0234678 0.0234678 0.0234678 0.0234678 0.0234678 0.0234678 0.0234678 0.0234678 0.0234678 0.0234678 0.0234678 0.0234678
          0.0233918 0.0233918 0.0233918 0.0233918 0.0233918 0.0233918 0.0233918 0.0233918 0.0233918 0.0233918 0.0233918 0.0233918
          0.0233918 0.0233918 0.0233918 0.0233918 0.0233918 0.0233918 0.0233918 0.0233918 0.0233918 0.0233918
        </DataArray>
        <DataArray type="Float32" Name="x^N2_gas" NumberOfComponents="1" format="ascii">
          0.82722 0.82722 0.803313 0.803313 0.82722 0.803313 0.82722 0.803313 0.82722 0.803313 0.82722 0.803313
          0.82722 0.803313 0.82722 0.803313 0.82722 0.803313 0.82722 0.803313 0.82722 0.803313 0.82722 0.803313
          0.82722 0.803313 0.82722 0.803313 0.82722 0.803313 0.82722 0.803313 0.82722 0.803313 0.82722 0.803313
          0.82722 0.803313 0.82722 0.803313 0.82722 0.803313 0.82722 0.803313 0.780093 0.780093 0.780093 0.780093
          0.780093 0.780093 0.780093 0.780093 0.780093 0.780093 0.780093 0.780093 0.780093 0.780093 0.780093 0.780093
          0.780093 0.780093 0.780093 0.780093 0.780093 0.780093 0.757542 0.757542 0.757542 0.757542 0.757542 0.757542
          0.757542 0.757542 0.757542 0.757542 0.757542 0.757542 0.757542 0.757542 0.757542 0.757542 0.757542 0.757542
          0.757542 0.757542 0.757542 0.757542 0.73564 0.73564 0.73564 0.73564 0.73564 0.73564 0.73564 0.73564
          0.73564 0.73564 0.73564 0.73564 0.73564 0.73564 0.73564 0.73564 0.73564 0.73564 0.73564 0.73564
          0.73564 0.73564 0.714368 0.714368 0.714368 0.714368 0.714368 0.714368 0.714368 0.714368 0.714368 0.714368
          0.714368 0.714368 0.714368 0.714368 0.714368 0.714368 0.714368 0.714368 0.714368 0.714368 0.714368 0.714368
          0.693709 0.693709 0.693709 0.693709 0.693709 0.693709 0.693709 0.693709 0.693709 0.693709 0.693709 0.693709
          0.693709 0.693709 0.693709 0.693709 0.693709 0.693709 0.693709 0.693709 0.693709 0.693709
        </DataArray>
        <DataArray type="Float32" Name="x^O2_gas" NumberOfComponents="1" format="ascii">
          0.148928 0.148928 0.172913 0.172913 0.148928 0.172913 0.148928 0.172913 0.148928 0.172913 0.148928 0.172913
          0.148928 0.172913 0.148928 0.172913 0.148928 0.172913 0.148928 0.172913 0.148928 0.172913 0.148928 0.172913
          0.148928 0.172913 0.148928 0.172913 0.148928 0.172913 0.148928 0.172913 0.148928 0.172913 0.148928 0.172913
          0.148928 0.172913 0.148928 0.172913 0.148928 0.172913 0.148928 0.172913 0.19621 0.19621 0.19621 0.19621
          0.19621 0.19621 0.19621 0.19621 0.19621 0.19621 0.19621 0.19621 0.19621 0.19621 0.19621 0.19621
          0.19621 0.19621 0.19621 0.19621 0.19621 0.19621 0.218838 0.218838 0.218838 0.218838 0.218838 0.218838
          0.218838 0.218838 0.218838 0.218838 0.218838 0.218838 0.218838 0.218838 0.218838 0.218838 0.218838 0.218838
          0.218838 0.218838 0.218838 0.218838 0.240816 0.240816 0.240816 0.240816 0.240816 0.240816 0.240816 0.240816
          0.240816 0.240816 0.240816 0.240816 0.240816 0.240816 0.240816 0.240816 0.240816 0.240816 0.240816 0.240816
          0.240816 0.240816 0.262164 0.262164 0.262164 0.262164 0.262164 0.262164 0.262164 0.262164 0.262164 0.262164
          0.262164 0.262164 0.262164 0.262164 0.262164 0.262164 0.262164 0.262164 0.262164 0.262164 0.262164 0.262164
          0.282899 0.282899 0.282899 0.282899 0.282899 0.282899 0.282899 0.282899 0.282899 0.282899 0.282899 0.282899
          0.282899 0.282899 0.282899 0.282899 0.282899 0.282899 0.282899 0.282899 0.282899 0.282899
        </DataArray>
        <DataArray type="Float32" Name="rhoMolar_gas" NumberOfComponents="1" format="ascii">
          40.9848 40.9848 40.9921 40.9921 40.9848 40.9921 40.9848 40.9921 40.9848 40.9921 40.9848 40.9921
          40.9848 40.9921 40.9848 40.9921 40.9848 40.9921 40.9848 40.9921 40.9848 40.9921 40.9848 40.9921
          40.9848 40.9921 40.9848 40.9921 40.9848 40.9921 40.9848 40.9921 40.9848 40.9921 40.9848 40.9921
          40.9848 40.9921 40.9848 40.9921 40.9848 40.9921 40.9848 40.9921 40.9994 40.9994 40.9994 40.9994
          40.9994 40.9994 40.9994 40.9994 40.9994 40.9994 40.9994 40.9994 40.9994 40.9994 40.9994 40.9994
          40.9994 40.9994 40.9994 40.9994 40.9994 40.9994 41.0068 41.0068 41.0068 41.0068 41.0068 41.0068
          41.0068 41.0068 41.0068 41.0068 41.0068 41.0068 41.0068 41.0068 41.0068 41.0068 41.0068 41.0068
          41.0068 41.0068 41.0068 41.0068 41.0141 41.0141 41.0141 41.0141 41.0141 41.0141 41.0141 41.0141
          41.0141 41.0141 41.0141 41.0141 41.0141 41.0141 41.0141 41.0141 41.0141 41.0141 41.0141 41.0141
          41.0141 41.0141 41.0215 41.0215 41.0215 41.0215 41.0215 41.0215 41.0215 41.0215 41.0215 41.0215
          41.0215 41.0215 41.0215 41.0215 41.0215 41.0215 41.0215 41.0215 41.0215 41.0215 41.0215 41.0215
          41.0288 41.0288 41.0288 41.0288 41.0288 41.0288 41.0288 41.0288 41.0288 41.0288 41.0288 41.0288
          41.0288 41.0288 41.0288 41.0288 41.0288 41.0288 41.0288 41.0288 41.0288 41.0288
        </DataArray>
        <DataArray type="Float32" Name="phase presence" NumberOfComponents="1" format="ascii">
          3 3 3 3 3 3 3 3 3 3 3 3
          3 3 3 3 3 3 3 3 3 3 3 3
          3 3 3 3 3 3 3 3 3 3 3 3
          3 3 3 3 3 3 3 3 3 3 3 3
          3 3 3 3 3 3 3 3 3 3 3 3
          3 3 3 3 3 3 3 3 3 3 3 3
          3 3 3 3 3 3 3 3 3 3 3 3
          3 3 3 3 3 3 3 3 3 3 3 3
          3 3 3 3 3 3 3 3 3 3 3 3
          3 3 3 3 3 3 3 3 3 3 3 3
          3 3 3 3 3 3 3 3 3 3 3 3
          3 3 3 3 3 3 3 3 3 3 3 3
          3 3 3 3 3 3 3 3 3 3
        </DataArray>
        <DataArray type="Float32" Name="T" NumberOfComponents="1" format="ascii">
          293.465 293.465 293.412 293.412 293.465 293.412 293.465 293.412 293.465 293.412 293.465 293.412
          293.465 293.412 293.465 293.412 293.465 293.412 293.465 293.412 293.465 293.412 293.465 293.412
          293.465 293.412 293.465 293.412 293.465 293.412 293.465 293.412 293.465 293.412 293.465 293.412
          293.465 293.412 293.465 293.412 293.465 293.412 293.465 293.412 293.36 293.36 293.36 293.36
          293.36 293.36 293.36 293.36 293.36 293.36 293.36 293.36 293.36 293.36 293.36 293.36
          293.36 293.36 293.36 293.36 293.36 293.36 293.307 293.307 293.307 293.307 293.307 293.307
          293.307 293.307 293.307 293.307 293.307 293.307 293.307 293.307 293.307 293.307 293.307 293.307
          293.307 293.307 293.307 293.307 293.255 293.255 293.255 293.255 293.255 293.255 293.255 293.255
          293.255 293.255 293.255 293.255 293.255 293.255 293.255 293.255 293.255 293.255 293.255 293.255
          293.255 293.255 293.202 293.202 293.202 293.202 293.202 293.202 293.202 293.202 293.202 293.202
          293.202 293.202 293.202 293.202 293.202 293.202 293.202 293.202 293.202 293.202 293.202 293.202
          293.15 293.15 293.15 293.15 293.15 293.15 293.15 293.15 293.15 293.15 293.15 293.15
          293.15 293.15 293.15 293.15 293.15 293.15 293.15 293.15 293.15 293.15
        </DataArray>
        <DataArray type="Float32" Name="currentDensity [A/cm^2]" NumberOfComponents="1" format="ascii">
          0.366444 0.366444 0 0 0.366444 0 0.366444 0 0.366444 0 0.366444 0