<?xml version="1.0"?>
<VTKFile type="UnstructuredGrid" version="0.1" byte_order="LittleEndian">
  <UnstructuredGrid>
    <Piece NumberOfCells="1670" NumberOfPoints="911">
      <CellData Scalars="S_aq">
        <DataArray type="Float32" Name="S_aq" NumberOfComponents="1" format="ascii">
          0.211143 0.158981 0.162672 0.271907 0.264291 0.264315 0.160136 0.271605 0.16389 0.215219 0.191767 0.227994
          0.211016 0.200878 0.182232 0.233017 0.202789 0.208701 0.195468 0.222183 0.240783 0.178103 0.224362 0.23429
          0.1824 0.239593 0.221584 0.191555 0.218893 0.157394 0.202743 0.275088 0.208325 0.16043 0.269065 0.213116
          0.198365 0.177361 0.223058 0.232987 0.224295 0.189667 0.200587 0.197857 0.218303 0.19526 0.185127 0.216115
          0.166538 0.257758 0.215391 0.196507 0.23204 0.182378 0.275871 0.156139 0.157384 0.275024 0.230513 0.184342
          0.203032 0.208136 0.268811 0.202838 0.160171 0.185403 0.248442 0.225894 0.187904 0.206909 0.248366 0.20332
          0.172419 0.201645 0.215997 0.188581 0.190128 0.224913 0.234763 0.171416 0.247506 0.172863 0.22126 0.227224
          0.183873 0.187808 0.215278 0.217856 0.155772 0.21231 0.277324 0.198883 0.238395 0.210509 0.2009 0.237132
          0.178561 0.269634 0.159051 0.160313 0.269036 0.23597 0.18035 0.226698 0.249806 0.171855 0.170346 0.246513
          0.179639 0.234005 0.18184 0.173 0.156153 0.276176 0.245929 0.157305 0.275702 0.245212 0.174503 0.209571
          0.256855 0.201119 0.166817 0.169604 0.159955 0.268746 0.251452 0.161156 0.268445 0.251017 0.171005 0.177479
          0.237592 0.23734 0.179624 0.195387 0.199963 0.211378 0.227577 0.203123 0.246224 0.198138 0.207748 0.25044
          0.213412 0.173976 0.17104 0.226172 0.224017 0.256986 0.190527 0.22254 0.269041 0.189182 0.224155 0.166807
          0.270332 0.186642 0.160241 0.188018 0.258391 0.165145 0.158743 0.192922 0.185796 0.186442 0.175538 0.209046
          0.191065 0.202158 0.234048 0.1946 0.207789 0.203585 0.204079 0.207501 0.180835 0.239351 0.176666 0.166957
          0.254387 0.254779 0.238827 0.168384 0.178395 0.215896 0.210968 0.199907 0.24034 0.244437 0.224258 0.226547
          0.21672 0.19587 0.222028 0.191594 0.231667 0.181656 0.232173 0.183519 0.192677 0.19028 0.17968 0.176679
          0.190617 0.187802 0.170699 0.248787 0.166733 0.255402 0.255441 0.248461 0.168109 0.172173 0.208102 0.210183
          0.217049 0.218141 0.194295 0.193091 0.271633 0.260279 0.164348 0.15825 0.174071 0.221316 0.190875 0.27908
          0.154345 0.155884 0.277653 0.218904 0.193395 0.242062 0.21611 0.195732 0.201001 0.196551 0.215073 0.195221
          0.254128 0.167809 0.186155 0.207861 0.204161 0.210423 0.381913 0.390218 0.355572 0.350011 0.314186 0.302013
          0.304369 0.674242 0.297984 0.336643 0.310025 0.336975 0.639451 0.38089 0.306709 0.339697 0.550523 0.558356
          0.579329 0.465682 0.4843 0.426907 0.370641 0.361114 0.432011 0.440746 0.332009 0.421817 0.335334 0.374528
          0.367846 0.89924 0.287085 0.346677 0.809838 0.41922 0.488582 0.496881 0.418902 0.578129 0.328621 0.341378
          0.290151 0.300445 0.314166 0.497095 0.414037 0.391267 0.381574 0.510822 0.328188 0.334052 0.635882 0.298051
          0.667564 0.360384 0.287297 0.310178 0.325224 0.321877 0.561688 0.287146 0.633314 0.350122 0.381678 0.375766
          0.289027 0.365038 0.37145 0.32929 0.358077 0.323133 0.375042 0.707829 0.803724 0.906974 0.905889 0.332864
          0.580109 0.322944 0.459178 0.470264 0.504471 0.495222 0.394233 0.438297 0.436363 0.326716 0.433068 0.516599
          0.410634 0.460208 0.408017 0.347246 0.339666 0.340125 0.581196 0.290794 0.35034 0.307809 0.406674 0.68916
          0.342344 0.441635 0.307086 0.382306 0.42292 0.421358 0.567627 0.386278 0.501062 0.450029 0.463506 0.558227
          0.515376 0.642079 0.643789 0.320615 0.517685 0.334157 0.289297 0.656075 0.64876 0.593944 0.317674 0.355891
          0.522279 0.516093 0.372169 0.316576 0.34983 0.403246 0.335316 0.393651 0.29919 0.474208 0.365484 0.375028
          0.286668 0.330285 0.91296 0.522459 0.298506 0.467328 0.317559 0.295966 0.551328 0.394291 0.394655 0.28921
          0.35746 0.451531 0.356318 0.317551 0.383766 0.320203 0.467693 0.341609 0.495203 0.816759 0.815635 0.407191
          0.293989 0.803806 0.800435 0.311218 0.293951 0.382754 0.58419 0.290072 0.31782 0.511329 0.337371 0.334646
          0.504749 0.297576 0.312117 0.289297 0.305716 0.308446 0.327278 0.287467 0.545894 0.406026 0.616961 0.352506
          0.315525 0.406439 0.2941 0.649842 0.320918 0.295286 0.380336 0.293303 0.910147 0.907492 0.575918 0.455928
          0.308678 0.370406 0.709625 0.720345 0.555272 0.410866 0.288756 0.326869 0.697687 0.694079 0.304711 0.469458
          0.410387 0.814664 0.82146 0.321448 0.297516 0.403548 0.403508 0.379633 0.372991 0.312601 0.303058 0.295728
          0.302294 0.637267 0.53206 0.34154 0.314056 0.392966 0.396051 0.379315 0.430602 0.393891 0.305683 0.312158
          0.546239 0.452322 0.582315 0.432801 0.434017 0.298666 0.304071 0.297512 0.450133 0.307041 0.426896 0.49795
          0.648652 0.46811 0.34146 0.696306 0.691632 0.33057 0.416072 0.313248 0.32927 0.327505 0.429874 0.442748
          0.365769 0.491827 0.33815 0.340976 0.372274 0.294397 0.304999 0.364899 0.490858 0.321934 0.439871 0.377038
          0.301245 0.33757 0.330798 0.353606 0.364977 0.286671 0.474678 0.321131 0.299135 0.362749 0.344746 0.340526
          0.360244 0.30239 0.728537 0.404394 0.616697 0.304025 0.286371 0.394501 0.351016 0.432679 0.453056 0.313057
          0.828963 0.478609 0.401952 0.323705 0.533106 0.308776 0.312827 0.316863 0.354859 0.315199 0.296497 0.460138
          0.734368 0.741427 0.28582 0.316922 0.567203 0.321322 0.348078 0.349362 0.328839 0.292026 0.364033 0.317362
          0.323559 0.928199 0.921894 0.288879 0.678505 0.291989 0.309838 0.811667 0.811682 0.391504 0.300201 0.286554
          0.306342 0.390901 0.592065 0.323666 0.328872 0.354653 0.288826 0.613949 0.937096 0.28484 0.935348 0.324575
          0.465738 0.296973 0.34698 0.346077 0.428448 0.414171 0.293388 0.361438 0.28924 0.309594 0.405866 0.49999
          0.59757 0.357433 0.41905 0.344908 0.319223 0.330137 0.814925 0.820257 0.288434 0.326307 0.311387 0.416564
          0.293709 0.534466 0.314373 0.319458 0.509324 0.360547 0.305803 0.33363 0.360143 0.353008 0.294844 0.406231
          0.346436 0.525036 0.546188 0.352511 0.34964 0.302085 0.319846 0.424975 0.433957 0.288069 0.34025 0.303135
          0.303169 0.568656 0.576159 0.3075 0.678219 0.617167 0.523013 0.524914 0.325724 0.321156 0.297215 0.289927
          0.2993 0.564562 0.48381 0.563063 0.504451 0.419769 0.335819 0.289219 0.485723 0.310981 0.330847 0.344518
          0.33088 0.288076 0.449071 0.286196 0.287553 0.360472 0.466134 0.435983 0.492319 0.443746 0.404361 0.473722
          0.499644 0.517583 0.555997 0.36339 0.414066 0.31467 0.311638 0.559113 0.293914 0.404003 0.340811 0.310821
          0.553806 0.411206 0.5977 0.334238 0.541351 0.626572 0.30074 0.328559 0.299148 0.469071 0.308165 0.297812
          0.304874 0.303114 0.79431 0.436473 0.565632 0.581921 0.432919 0.446209 0.438058 0.498402 0.326941 0.405438
          0.58224 0.62172 0.346829 0.891346 0.459453 0.333215 0.299052 0.33609 0.294287 0.310431 0.289891 0.315178
          0.536357 0.310885 0.309106 0.303613 0.331944 0.334188 0.367086 0.310903 0.321433 0.56924 0.410949 0.289376
          0.350457 0.427097 0.312079 0.32397 0.682883 0.680951 0.640733 0.302732 0.327426 0.322734 0.363763 0.531909
          0.580362 0.649658 0.338266 0.357751 0.488296 0.493594 0.330728 0.290609 0.296693 0.905678 0.905014 0.286542
          0.908443 0.386197 0.706517 0.697182 0.434808 0.50393 0.466455 0.626945 0.333862 0.307806 0.80359 0.733491
          0.738311 0.557031 0.522887 0.588336 0.431198 0.307 0.391278 0.31598 0.378085 0.419251 0.698402 0.527903
          0.471805 0.357058 0.385051 0.319258 0.397219 0.35895 0.430229 0.358745 0.306187 0.320664 0.367757 0.47504
          0.372715 0.383763 0.823245 0.823812 0.382567 0.408801 0.442166 0.387316 0.430683 0.468118 0.54776 0.351608
          0.442263 0.442222 0.490329 0.287652 0.310974 0.37461 0.300192 0.383464 0.317246 0.290053 0.336895 0.527673
          0.462722 0.333416 0.286921 0.369832 0.392844 0.326255 0.342648 0.320948 0.399494 0.709597 0.716104 0.307188
          0.458128 0.368663 0.304714 0.382818 0.813213 0.817125 0.365815 0.327246 0.35051 0.391627 0.343509 0.360416
          0.342698 0.292852 0.586852 0.289245 0.337586 0.310542 0.297136 0.288691 0.408692 0.305736 0.318524 0.404699
          0.456345 0.302063 0.326074 0.343863 0.286961 0.381891 0.411179 0.374329 0.319164 0.379713 0.375759 0.311608
          0.313646 0.341472 0.601176 0.33234 0.376837 0.810014 0.810056 0.502089 0.312937 0.634498 0.479333 0.28592
          0.288376 0.302896 0.647035 0.372491 0.919163 0.91875 0.297066 0.430993 0.719561 0.339259 0.655463 0.288151
          0.498524 0.825301 0.348875 0.293457 0.365375 0.379915 0.371815 0.516655 0.343621 0.522539 0.356209 0.364538
          0.481497 0.462816 0.408579 0.333409 0.301901 0.352598 0.344954 0.420879 0.327567 0.338436 0.315724 0.321946
          0.417378 0.498963 0.345586 0.330122 0.667964 0.547846 0.331805 0.310026 0.348828 0.359932 0.405385 0.301713
          0.32001 0.611751 0.357743 0.400821 0.31443 0.351686 0.300298 0.2956 0.31088 0.358661 0.406277 0.440481
          0.366494 0.542634 0.321245 0.304304 0.387333 0.286767 0.394437 0.585851 0.304989 0.444318 0.340818 0.920847
          0.921434 0.321228 0.294652 0.9257 0.920409 0.318233 0.3212 0.335609 0.382814 0.474326 0.369859 0.803299
          0.807652 0.34575 0.380212 0.608685 0.293435 0.285946 0.297359 0.36698 0.353308 0.600118 0.324629 0.289104
          0.292816 0.350455 0.298376 0.505955 0.414802 0.316089 0.524062 0.294131 0.393561 0.394676 0.313985 0.387284
          0.312168 0.337392 0.666862 0.658735 0.396549 0.297072 0.342637 0.39771 0.346571 0.388926 0.345141 0.295065
          0.356952 0.353502 0.30205 0.305538 0.354228 0.434679 0.304039 0.317631 0.313423 0.412951 0.320813 0.350661
          0.414317 0.344843 0.535121 0.352414 0.360385 0.294996 0.625835 0.647487 0.3004 0.307069 0.307932 0.316003
          0.381505 0.296555 0.711914 0.717823 0.699883 0.695705 0.41827 0.402105 0.362837 0.371728 0.491374 0.499557
          0.464637 0.45882 0.41984 0.406669 0.409353 0.747051 0.402305 0.444477 0.415246 0.444851 0.71853 0.490407
          0.411886 0.447853 0.644169 0.650809 0.668613 0.570001 0.586624 0.53455 0.480131 0.470404 0.539298 0.547366
          0.439448 0.529788 0.443056 0.484036 0.477286 0.923983 0.390646 0.455292 0.854876 0.527383 0.5904 0.597739
          0.527082 0.667633 0.435928 0.449558 0.394328 0.404864 0.419983 0.597906 0.522466 0.500607 0.491082 0.60996
          0.43525 0.441656 0.715572 0.402209 0.741622 0.469581 0.391412 0.415609 0.431995 0.428327 0.653637 0.390816
          0.713623 0.458904 0.491139 0.485247 0.39277 0.474358 0.480961 0.436635 0.467216 0.429894 0.484514 0.77432
          0.850055 0.929809 0.928994 0.440474 0.669304 0.42972 0.564138 0.574127 0.604408 0.596266 0.5035 0.545092
          0.543322 0.433653 0.540299 0.614973 0.519237 0.565078 0.516747 0.455879 0.447719 0.448289 0.670224 0.394198
          0.459144 0.413109 0.515466 0.759316 0.450645 0.548176 0.412015 0.491773 0.530822 0.529359 0.658707 0.49573
          0.601374 0.555864 0.568043 0.65076 0.613904 0.722148 0.720845 0.427156 0.615927 0.441856 0.393171 0.732302
          0.726335 0.68093 0.423841 0.464916 0.619909 0.614499 0.481641 0.42249 0.458571 0.512183 0.443192 0.502955
          0.403631 0.577658 0.474842 0.484513 0.390478 0.437638 0.934333 0.62004 0.403053 0.571493 0.423649 0.40038
          0.644834 0.503534 0.503919 0.39304 0.466567 0.557211 0.465367 0.423667 0.493214 0.426498 0.571821 0.449848
          0.596243 0.860119 0.859275 0.515958 0.397641 0.850121 0.847508 0.41683 0.397847 0.492238 0.672726 0.393361
          0.423843 0.610381 0.445341 0.44245 0.604609 0.401554 0.417814 0.392939 0.41079 0.413708 0.434345 0.39076
          0.640206 0.514884 0.700028 0.461375 0.421495 0.515276 0.398224 0.727215 0.427318 0.399482 0.489804 0.397046
          0.932183 0.930183 0.66576 0.561189 0.413772 0.479862 0.775761 0.784282 0.648256 0.519493 0.392222 0.433947
          0.766143 0.763326 0.409644 0.573402 0.519004 0.863868 0.858603 0.428013 0.401699 0.512477 0.512436 0.489117
          0.48246 0.418363 0.407916 0.39999 0.407098 0.716817 0.628349 0.449881 0.419938 0.502243 0.505244 0.488783
          0.537998 0.503181 0.410629 0.417801 0.640508 0.557945 0.671133 0.540048 0.54115 0.403145 0.409044 0.401916
          0.555961 0.411958 0.534567 0.598653 0.726091 0.572208 0.449673 0.765004 0.761282 0.437995 0.524404 0.418829
          0.436452 0.43465 0.537329 0.549203 0.475144 0.593284 0.446214 0.44922 0.481725 0.398577 0.409761 0.474228
          0.592422 0.428553 0.546542 0.486541 0.405629 0.445595 0.438224 0.46261 0.474316 0.389685 0.578047 0.427663
          0.403262 0.472053 0.453189 0.448689 0.469476 0.406834 0.790879 0.5133 0.699885 0.408916 0.390205 0.50374
          0.459829 0.539941 0.558598 0.418701 0.869707 0.581559 0.510951 0.430338 0.629249 0.413972 0.418437 0.4228
          0.463895 0.421001 0.400451 0.564999 0.795407 0.801017 0.38896 0.42307 0.658392 0.427799 0.456829 0.458172
          0.436014 0.39604 0.473346 0.423593 0.430199 0.94585 0.941077 0.392887 0.750515 0.395517 0.415123 0.856394
          0.856446 0.50082 0.404488 0.389962 0.41135 0.500238 0.679353 0.430404 0.436085 0.463724 0.392638 0.697545
          0.951245 0.952574 0.388416 0.431418 0.570078 0.401409 0.455537 0.454575 0.535983 0.522598 0.397148 0.47075
          0.392707 0.414925 0.514719 0.600455 0.683972 0.466615 0.527227 0.453465 0.42552 0.437434 0.858922 0.863063
          0.392194 0.433245 0.416782 0.524873 0.39792 0.630416 0.420262 0.425861 0.608635 0.469779 0.410713 0.441232
          0.469336 0.461905 0.398609 0.51507 0.455075 0.622253 0.640463 0.461416 0.458399 0.406629 0.426144 0.532746
          0.541098 0.391277 0.448475 0.407667 0.407752 0.659575 0.665931 0.412492 0.351152 0.332671 0.384275 0.290348
          0.294273 0.381614 0.293706 0.380635 0.289731 0.383249 0.347399 0.336655 0.350318 0.333464 0.359699 0.322274
          0.363446 0.317544 0.35232 0.331257 0.3104 0.356889 0.325778 0.315352 0.358685 0.323682 0.310938 0.368653
          0.346104 0.337866 0.384476 0.289548 0.350664 0.333112 0.292278 0.382303 0.316065 0.364686 0.350543 0.333049
          0.350603 0.332899 0.344167 0.330092 0.353118 0.339904 0.352699 0.331034 0.29867 0.377667 0.385481 0.288942
          0.364585 0.317224 0.316906 0.364063 0.288507 0.384518 0.34634 0.337456 0.38237 0.340329 0.292915 0.343693
          0.37504 0.321365 0.304252 0.373537 0.372955 0.305297 0.341401 0.342632 0.351005 0.332404 0.324535 0.335951
          0.331036 0.34785 0.352261 0.366873 0.304876 0.314323 0.365958 0.338468 0.32614 0.345555 0.35655 0.336083
          0.347758 0.385685 0.288801 0.367246 0.312644 0.383478 0.291755 0.368039 0.312828 0.312517 0.367355 0.291319
          0.382511 0.303749 0.361258 0.360259 0.321639 0.374246 0.314458 0.305318 0.372683 0.322054 0.288446 0.385684
          0.373206 0.306056 0.305685 0.372396 0.287911 0.384895 0.376748 0.338759 0.29974 0.345249 0.29203 0.383211
          0.375975 0.302271 0.301848 0.375089 0.291512 0.382302 0.368807 0.312169 0.312105 0.36768 0.358114 0.359318
          0.324385 0.32257 0.371812 0.374175 0.306656 0.303446 0.351081 0.345132 0.332728 0.338826 0.38353 0.37918
          0.377487 0.35879 0.298711 0.359961 0.324162 0.382366 0.291667 0.324202 0.3582 0.322731 0.29178 0.298454
          0.322244 0.359807 0.371864 0.357992 0.353859 0.325463 0.329768 0.358626 0.360692 0.363804 0.321715 0.316805
          0.368643 0.355008 0.355011 0.327929 0.327877 0.360822 0.377561 0.369599 0.300142 0.310791 0.310679 0.3687
          0.299923 0.376472 0.367598 0.3081 0.311236 0.336866 0.331841 0.347024 0.351541 0.358104 0.324273 0.360224
          0.32168 0.365663 0.316583 0.316991 0.363934 0.345032 0.340347 0.343669 0.338934 0.3646 0.371846 0.37791
          0.374789 0.299593 0.303847 0.303512 0.29924 0.373862 0.376938 0.383827 0.379371 0.291404 0.297619 0.329996
          0.353235 0.331117 0.352246 0.386446 0.287655 0.35587 0.327441 0.326982 0.355898 0.287442 0.385223 0.369745
          0.309528 0.341284 0.342602 0.339022 0.344935 0.37648 0.301349 0.332987 0.350556 0.367217 0.354008 0.329588
          0.346391 0.337377
        </DataArray>
        <DataArray type="Float32" Name="p_aq" NumberOfComponents="1" format="ascii">
          100109 100162 100161 100057 100061 100060 100161 100058 100160 100103 100135 100088
          100108 100124 100146 100082 100122 100111 100130 100095 100075 100151 100093 100081
          100147 100077 100094 100137 100099 100163 100122 100057 100111 100162 100059 100104
          100128 100151 100094 100083 100091 100139 100123 100128 100099 100132 100144 100103
          100159 100064 100101 100131 100084 100147 100056 100163 100162 100057 100083 100145
          100121 100114 100059 100120 100162 100143 100070 100089 100141 100116 100070 100119
          100155 100123 100103 100140 100139 100091 100081 100156 100069 100155 100096 100088
          100145 100141 100104 100101 100163 100109 100056 100125 100077 100108 100124 100079
          100150 100058 100162 100161 100059 100078 100149 100090 100068 100156 100156 100071
          100149 100080 100148 100156 100163 100055 100072 100161 100056 100071 100154 100113
          100065 100122 100159 100158 100162 100058 100068 100161 100059 100067 100156 100150
          100078 100077 100149 100130 100124 100110 100088 100121 100071 100128 100112 100068
          100104 100154 100156 100091 100093 100065 100138 100092 100059 100140 100090 100158
          100058 100142 100161 100140 100063 100159 100162 100133 100142 100142 100152 100113
          100135 100121 100081 100131 100115 100119 100120 100113 100147 100077 100152 100158
          100066 100065 100076 100157 100150 100103 100110 100123 100076 100073 100092 100090
          100100 100131 100094 100137 100084 100146 100082 100146 100135 100138 100149 100152
          100136 100140 100157 100070 100159 100066 100065 100069 100158 100155 100114 100111
          100102 100101 100132 100133 100057 100063 100160 100162 100153 100097 100137 100055
          100163 100162 100056 100096 100135 100075 100100 100131 100124 100130 100105 100130
          100066 100158 100141 100114 100119 100111 100013 100011 100019 100020 100036 100043
          100041 100001 100045 100025 100038 100025 100001 100013 100040 100024 100002 100002
          100001 100004 100004 100007 100015 100017 100006 100006 100027 100007 100026 100014
          100015 100000 100052 100021 100000 100008 100003 100003 100008 100001 100028 100023
          100049 100044 100036 100003 100008 100011 100013 100003 100029 100026 100001 100045
          100001 100017 100051 100038 100030 100032 100002 100052 100001 100020 100013 100014
          100050 100016 100015 100028 100018 100031 100014 100000 100000 100000 100000 100027
          100001 100031 100005 100004 100003 100003 100011 100006 100006 100029 100006 100002
          100009 100005 100009 100021 100024 100024 100001 100050 100020 100039 100009 100000
          100023 100006 100040 100013 100007 100007 100001 100012 100003 100005 100004 100002
          100003 100001 100001 100032 100002 100026 100050 100001 100001 100001 100034 100019
          100002 100002 100015 100035 100020 100009 100025 100011 100044 100004 100016 100014
          100052 100028 100000 100002 100045 100004 100034 100046 100002 100011 100011 100050
          100018 100005 100018 100034 100012 100033 100004 100023 100003 100000 100000 100009
          100048 100000 100000 100037 100048 100012 100001 100050 100034 100003 100025 100026
          100003 100045 100037 100050 100040 100039 100029 100052 100002 100009 100001 100020
          100035 100009 100047 100001 100032 100046 100013 100048 100000 100000 100001 100005
          100039 100015 100000 100000 100002 100009 100051 100029 100000 100000 100041 100004
          100009 100000 100000 100032 100045 100009 100009 100013 100014 100036 100042 100046
          100042 100001 100002 100023 100036 100011 100010 100013 100007 100011 100041 100037
          100002 100005 100001 100006 100006 100044 100041 100045 100005 100040 100007 100003
          100001 100004 100023 100000 100000 100027 100008 100036 100028 100029 100007 100006
          100016 100003 100024 100023 100015 100047 100041 100016 100003 100032 100006 100013
          100043 100025 100027 100019 100016 100052 100004 100032 100045 100017 100022 100024
          100017 100043 100000 100009 100001 100041 100052 100011 100020 100006 100005 100036
          100000 100004 100010 100031 100002 100039 100036 100034 100019 100035 100046 100005
          100000 100000 100053 100034 100002 100032 100021 100020 100028 100048 100016 100034
          100031 100000 100000 100050 100001 100049 100038 100000 100000 100011 100044 100052
          100040 100011 100001 100031 100028 100019 100050 100001 100000 100053 100000 100030
          100004 100045 100021 100022 100007 100008 100048 100017 100051 100038 100009 100003
          100001 100018 100008 100022 100033 100028 100000 100000 100051 100030 100037 100008
          100047 100002 100035 100033 100003 100017 100040 100026 100017 100019 100047 100009
          100021 100002 100002 100020 100020 100043 100033 100007 100006 100051 100024 100042
          100042 100001 100001 100040 100001 100001 100002 100002 100029 100032 100046 100050
          100044 100002 100004 100002 100003 100007 100025 100050 100003 100037 100027 100022
          100027 100051 100005 100052 100051 100017 100004 100006 100003 100006 100009 100004
          100003 100002 100002 100016 100008 100035 100037 100002 100048 100009 100023 100037
          100002 100008 100001 100026 100002 100001 100043 100028 100044 100004 100039 100045
          100041 100042 100000 100006 100001 100001 100006 100005 100006 100003 100029 100009
          100001 100001 100021 100000 100005 100026 100044 100025 100047 100038 100050 100035
          100002 100037 100038 100042 100027 100026 100015 100037 100032 100001 100008 100050
          100020 100007 100037 100030 100000 100000 100001 100042 100029 100031 100016 100002
          100001 100001 100024 100018 100003 100003 100027 100050 100046 100000 100000 100052
          100000 100012 100000 100000 100006 100003 100004 100001 100026 100039 100000 100000
          100000 100002 100002 100001 100007 100039 100011 100034 100013 100008 100000 100002
          100004 100018 100012 100033 100010 100017 100007 100017 100040 100032 100015 100004
          100014 100012 100000 100000 100012 100009 100006 100012 100007 100004 100002 100020
          100006 100006 100003 100052 100037 100014 100044 100012 100034 100049 100025 100002
          100004 100026 100051 100015 100011 100029 100022 100032 100010 100000 100000 100039
          100005 100015 100041 100012 100000 100000 100016 100029 100020 100011 100022 100017
          100022 100048 100001 100050 100024 100037 100046 100051 100009 100040 100033 100009
          100005 100043 100029 100022 100051 100012 100008 100014 100033 100013 100014 100037
          100036 100023 100001 100026 100013 100000 100000 100003 100036 100001 100004 100052
          100051 100042 100001 100014 100000 100000 100046 100006 100000 100024 100001 100051
          100003 100000 100020 100048 100016 100013 100014 100002 100022 100002 100018 100016
          100004 100004 100009 100026 100042 100019 100022 100007 100029 100024 100035 100031
          100008 100003 100021 100027 100001 100002 100027 100038 100020 100017 100009 100043
          100032 100001 100018 100010 100035 100020 100043 100046 100037 100017 100009 100006
          100016 100002 100032 100041 100012 100052 100010 100001 100041 100006 100023 100000
          100000 100032 100047 100000 100000 100033 100032 100025 100012 100004 100015 100000
          100000 100021 100013 100001 100048 100053 100045 100016 100019 100001 100030 100051
          100048 100020 100044 100003 100008 100034 100002 100047 100011 100010 100036 100012
          100037 100024 100001 100001 100010 100045 100022 100010 100021 100011 100022 100047
          100018 100019 100042 100040 100019 100006 100041 100034 100036 100008 100032 100020
          100008 100022 100002 100019 100017 100046 100001 100001 100044 100039 100039 100034
          100012 100045 100000 100000 100000 100000 100008 100009 100016 100014 100010 100009
          100014 100015 100025 100030 100029 100001 100031 100018 100027 100018 100001 100010
          100028 100018 100002 100002 100002 100004 100004 100006 100012 100013 100006 100005
          100020 100007 100019 100011 100012 100000 100036 100016 100000 100007 100003 100003
          100007 100002 100020 100017 100034 100030 100025 100003 100007 100009 100010 100003
          100021 100019 100001 100031 100001 100013 100035 100027 100022 100023 100002 100036
          100001 100015 100010 100011 100035 100013 100012 100020 100014 100022 100011 100001
          100000 100000 100000 100019 100002 100022 100004 100004 100003 100003 100009 100006
          100006 100021 100006 100003 100007 100004 100008 100016 100018 100018 100002 100034
          100015 100027 100008 100001 100017 100005 100028 100010 100006 100007 100002 100010
          100003 100005 100004 100002 100003 100001 100001 100023 100003 100019 100035 100001
          100001 100001 100024 100014 100002 100003 100012 100024 100015 100008 100019 100009
          100031 100004 100013 100011 100036 100020 100000 100003 100031 100004 100024 100032
          100002 100009 100009 100035 100014 100005 100014 100024 100010 100023 100004 100017
          100003 100000 100000 100008 100033 100000 100000 100026 100033 100010 100001 100035
          100024 100003 100018 100019 100003 100032 100026 100035 100028 100027 100021 100036
          100002 100008 100001 100015 100025 100008 100033 100001 100023 100032 100010 100033
          100000 100000 100002 100005 100027 100012 100001 100000 100002 100007 100035 100021
          100001 100001 100029 100004 100007 100000 100000 100023 100032 100008 100008 100011
          100011 100026 100029 100032 100029 100001 100002 100017 100025 100009 100009 100011
          100006 100009 100028 100026 100002 100005 100001 100006 100006 100031 100029 100031
          100005 100028 100006 100003 100001 100004 100017 100001 100001 100020 100007 100026
          100020 100021 100006 100005 100012 100003 100018 100017 100012 100032 100029 100013
          100003 100023 100005 100011 100030 100018 100020 100015 100013 100036 100004 100023
          100031 100013 100016 100017 100013 100030 100000 100008 100001 100029 100036 100009
          100015 100006 100005 100026 100000 100004 100008 100022 100002 100027 100026 100024
          100014 100025 100032 100004 100000 100000 100036 100024 100002 100023 100016 100015
          100021 100033 100013 100024 100022 100000 100000 100035 100001 100034 100027 100000
          100000 100009 100031 100036 100028 100009 100001 100022 100021 100014 100035 100001
          100000 100000 100036 100022 100004 100032 100016 100016 100006 100007 100033 100013
          100035 100027 100008 100003 100001 100014 100007 100016 100024 100020 100000 100000
          100035 100021 100026 100007 100033 100002 100025 100023 100003 100013 100028 100019
          100013 100015 100033 100008 100016 100002 100002 100015 100015 100030 100023 100006
          100006 100035 100017 100029 100029 100002 100002 100028 100049 100053 100038 100054
          100054 100039 100055 100039 100054 100038 100050 100053 100050 100053 100047 100054
          100046 100055 100049 100053 100055 100048 100054 100055 100047 100054 100055 100044
          100051 100052 100038 100054 100049 100053 100054 100039 100055 100045 100050 100053
          100050 100053 100051 100054 100049 100052 100049 100053 100055 100041 100038 100054
          100045 100055 100055 100046 100054 100038 100051 100052 100039 100052 100054 100051
          100042 100055 100055 100042 100042 100055 100052 100051 100049 100053 100054 100053
          100053 100050 100049 100044 100055 100055 100045 100052 100054 100051 100048 100053
          100050 100038 100054 100044 100055 100038 100054 100044 100055 100055 100044 100054
          100039 100055 100046 100047 100055 100042 100055 100055 100042 100054 100054 100038
          100042 100055 100055 100043 100054 100038 100041 100052 100055 100051 100054 100039
          100041 100055 100055 100042 100055 100039 100044 100055 100055 100044 100047 100047
          100054 100054 100043 100042 100055 100055 100049 100051 100053 100052 100038 100040
          100041 100047 100055 100047 100054 100039 100054 100054 100047 100054 100054 100055
          100055 100047 100043 100047 100049 100054 100054 100047 100047 100046 100054 100055
          100044 100048 100048 100054 100054 100046 100041 100044 100055 100055 100055 100044
          100055 100041 100044 100055 100055 100053 100053 100050 100049 100047 100054 100047
          100055 100045 100055 100055 100046 100051 100052 100051 100052 100045 100043 100041
          100042 100055 100055 100055 100055 100042 100041 100038 100040 100054 100055 100054
          100049 100053 100049 100037 100054 100048 100054 100054 100048 100054 100038 100044
          100055 100052 100051 100052 100051 100041 100055 100053 100050 100044 100049 100054
          100051 100052
        </DataArray>
        <DataArray type="Float32" Name="rho_aq" NumberOfComponents="1" format="ascii">
          1000 1000 1000 1000 1000 1000 1000 1000 1000 1000 1000 1000
          1000 1000 1000 1000 1000 1000 1000 1000 1000 1000 1000 1000