<?xml version="1.0"?>
<VTKFile type="UnstructuredGrid" version="0.1" byte_order="LittleEndian">
  <UnstructuredGrid>
    <Piece NumberOfCells="3200" NumberOfPoints="1681">
      <CellData Scalars="rank" Vectors="velocity">
        <DataArray type="Float32" Name="velocity" NumberOfComponents="3" format="ascii">
          9.65506e-06 -9.19272e-06 0 9.19272e-06 -9.65506e-06 0 4.55154e-05 -2.65659e-05 0 2.65659e-05 -4.55154e-05 0
          3.61346e-05 -1.62671e-05 0 0.000111804 -4.02781e-05 0 7.63338e-05 -2.19343e-05 0 0.000110999 -9.25118e-05 0
          0.000250599 -0.000130865 0 1.62671e-05 -3.61346e-05 0 4.02781e-05 -0.000111804 0 9.25118e-05 -0.000110999 0
          2.19343e-05 -7.63338e-05 0 0.000130865 -0.000250599 0 0.000240414 -0.0001728 0 0.0001728 -0.000240414 0
          0.000395581 -0.000346454 0 0.000346454 -0.000395581 0 0.000127745 -2.63453e-05 0 0.000202922 -5.11879e-05 0
          0.000187997 -2.96159e-05 0 0.000314015 -5.95668e-05 0 0.000435612 -0.000161389 0 0.000656822 -0.00018472 0
          0.000254856 -3.18443e-05 0 0.000440496 -6.56341e-05 0 0.000578057 -6.95824e-05 0 0.000905546 -0.000201413 0
          0.000447819 -0.000222722 0 0.000692704 -0.000431631 0 0.000703243 -0.0002617 0 0.00104914 -0.000497431 0
          0.000650651 -0.000513429 0 0.00102639 -0.000606029 0 0.000995854 -0.000290548 0 0.00145073 -0.000545219 0
          0.00131548 -0.000310017 0 0.0014576 -0.000675121 0 0.00192918 -0.000722358 0 2.63453e-05 -0.000127745 0
          5.11879e-05 -0.000202922 0 0.000161389 -0.000435612 0 5.95668e-05 -0.000314015 0 2.96159e-05 -0.000187997 0
          0.00018472 -0.000656822 0 0.000222722 -0.000447819 0 0.000431631 -0.000692704 0 0.000513429 -0.000650651 0
          0.0002617 -0.000703243 0 0.000497431 -0.00104914 0 0.000606029 -0.00102639 0 6.56341e-05 -0.000440496 0
          3.18443e-05 -0.000254856 0 0.000201413 -0.000905546 0 6.95824e-05 -0.000578057 0 0.000290548 -0.000995854 0
          0.000545219 -0.00145073 0 0.000675121 -0.0014576 0 0.000310017 -0.00131548 0 0.000722358 -0.00192918 0
          0.000902322 -0.000814226 0 0.000814226 -0.000902322 0 0.00128757 -0.00106754 0 0.00136958 -0.000941144 0
          0.00106754 -0.00128757 0 0.000941144 -0.00136958 0 0.00162262 -0.0014907 0 0.0014907 -0.00162262 0
          0.0018313 -0.0011913 0 0.00189656 -0.00103388 0 0.00242631 -0.00127642 0 0.00224903 -0.00163959 0
          0.00212238 -0.00181258 0 0.00281394 -0.0019437 0 0.0011913 -0.0018313 0 0.00103388 -0.00189656 0
          0.00181258 -0.00212238 0 0.00163959 -0.00224903 0 0.00127642 -0.00242631 0 0.0019437 -0.00281394 0
          0.00251403 -0.00233616 0 0.00233616 -0.00251403 0 0.00309903 -0.00269736 0 0.00269736 -0.00309903 0
          0.000326227 -3.31191e-05 0 0.000722669 -7.15882e-05 0 0.000400158 -3.35228e-05 0 0.00117363 -0.000211977 0
          0.00145348 -0.000216896 0 0.000474837 -3.31337e-05 0 0.000870584 -7.18182e-05 0 0.000548597 -3.20274e-05 0
          0.00101834 -7.04325e-05 0 0.00173802 -0.000216638 0 0.00202074 -0.000211658 0 0.00165262 -0.000320821 0
          0.00188423 -0.000576292 0 0.00233726 -0.000591908 0 0.00242703 -0.000749338 0 0.00199841 -0.000323651 0
          0.00279832 -0.000593295 0 0.00234467 -0.00031918 0 0.00325682 -0.000581662 0 0.00293804 -0.000757627 0
          0.00345008 -0.000748764 0 0.000619915 -3.02772e-05 0 0.00116276 -6.75863e-05 0 0.00130095 -6.34313e-05 0
          0.00229567 -0.000202404 0 0.000687411 -2.7955e-05 0 0.00143031 -5.81168e-05 0 0.000749851 -2.51312e-05 0
          0.0025574 -0.000189317 0 0.00280106 -0.000172835 0 0.00268391 -0.000308072 0 0.00370305 -0.000558207 0
          0.00300927 -0.000290982 0 0.00395202 -0.000724277 0 0.00443373 -0.000685676 0 0.00331461 -0.000268559 0
          0.0041282 -0.000524118 0 0.00452435 -0.000480573 0 0.00488606 -0.000634468 0 0.00246579 -0.00109481 0
          0.00305477 -0.00132568 0 0.00306096 -0.00112628 0 0.00292595 -0.00173796 0 0.0035446 -0.00202014 0
          0.00363394 -0.00178948 0 0.00366693 -0.00113059 0 0.00370008 -0.00134181 0 0.00434689 -0.0013275 0
          0.00426976 -0.00111001 0 0.00435498 -0.00179776 0 0.00429503 -0.00204603 0 0.00507244 -0.0017664 0
          0.00504738 -0.00202544 0 0.00327228 -0.00247789 0 0.00390521 -0.00280475 0 0.00406552 -0.00255274 0
          0.00351225 -0.00328845 0 0.00436493 -0.00338906 0 0.00487354 -0.00256584 0 0.00473337 -0.00284189 0
          0.00567768 -0.0025223 0 0.00556378 -0.00281443 0 0.00523362 -0.00340762 0 0.00609826 -0.00335091 0
          0.00498114 -0.00128543 0 0.00485666 -0.0010668 0 0.00558999 -0.00121826 0 0.00577109 -0.00169897 0
          0.00578526 -0.00196245 0 0.00649372 -0.00186111 0 0.00541603 -0.00100321 0 0.0061619 -0.00112865 0
          0.00593745 -0.000921472 0 0.00643711 -0.00159903 0 0.00715933 -0.00172544 0 0.00705808 -0.00147012 0
          0.00646086 -0.0024272 0 0.00637833 -0.002728 0 0.00716054 -0.00258821 0 0.00694048 -0.00322565 0
          0.00720758 -0.0022856 0 0.00789553 -0.00240064 0 0.0079039 -0.00210256 0 0.00774358 -0.00303855 0
          0.00849259 -0.00279632 0 3.31191e-05 -0.000326227 0 7.15882e-05 -0.000722669 0 0.000211977 -0.00117363 0
          3.35228e-05 -0.000400158 0 0.000216896 -0.00145348 0 0.000576292 -0.00188423 0 0.000320821 -0.00165262 0
          0.000749338 -0.00242703 0 0.000591908 -0.00233726 0 3.31337e-05 -0.000474837 0 7.18182e-05 -0.000870584 0
          0.000216638 -0.00173802 0 7.04325e-05 -0.00101834 0 3.20274e-05 -0.000548597 0 0.000211658 -0.00202074 0
          0.000323651 -0.00199841 0 0.000593295 -0.00279832 0 0.000757627 -0.00293804 0 0.00031918 -0.00234467 0
          0.000581662 -0.00325682 0 0.000748764 -0.00345008 0 0.00109481 -0.00246579 0 0.00132568 -0.00305477 0
          0.00173796 -0.00292595 0 0.00202014 -0.0035446 0 0.00112628 -0.00306096 0 0.00178948 -0.00363394 0
          0.00247789 -0.00327228 0 0.00280475 -0.00390521 0 0.00328845 -0.00351225 0 0.00255274 -0.00406552 0
          0.00338906 -0.00436493 0 0.00134181 -0.00370008 0 0.00113059 -0.00366693 0 0.00179776 -0.00435498 0
          0.00204603 -0.00429503 0 0.0013275 -0.00434689 0 0.00111001 -0.00426976 0 0.00202544 -0.00504738 0
          0.0017664 -0.00507244 0 0.00256584 -0.00487354 0 0.00284189 -0.00473337 0 0.00340762 -0.00523362 0
          0.00281443 -0.00556378 0 0.0025223 -0.00567768 0 0.00335091 -0.00609826 0 6.75863e-05 -0.00116276 0
          3.02772e-05 -0.000619915 0 0.000202404 -0.00229567 0 6.34313e-05 -0.00130095 0 0.000308072 -0.00268391 0
          0.000558207 -0.00370305 0 0.000724277 -0.00395202 0 0.000290982 -0.00300927 0 0.000685676 -0.00443373 0
          2.7955e-05 -0.000687411 0 5.81168e-05 -0.00143031 0 0.000189317 -0.0025574 0 2.51312e-05 -0.000749851 0
          0.000172835 -0.00280106 0 0.000524118 -0.0041282 0 0.000268559 -0.00331461 0 0.000634468 -0.00488606 0
          0.000480573 -0.00452435 0 0.00128543 -0.00498114 0 0.0010668 -0.00485666 0 0.00196245 -0.00578526 0
          0.00169897 -0.00577109 0 0.00121826 -0.00558999 0 0.00186111 -0.00649372 0 0.002728 -0.00637833 0
          0.0024272 -0.00646086 0 0.00322565 -0.00694048 0 0.00258821 -0.00716054 0 0.00100321 -0.00541603 0
          0.00112865 -0.0061619 0 0.00159903 -0.00643711 0 0.00172544 -0.00715933 0 0.000921472 -0.00593745 0
          0.00147012 -0.00705808 0 0.0022856 -0.00720758 0 0.00240064 -0.00789553 0 0.00303855 -0.00774358 0
          0.00210256 -0.0079039 0 0.00279632 -0.00849259 0 0.00414522 -0.0036533 0 0.0036533 -0.00414522 0
          0.00454134 -0.00427321 0 0.00427321 -0.00454134 0 0.00502549 -0.00370278 0 0.00544619 -0.0042977 0
          0.00590827 -0.00366805 0 0.00634693 -0.0042272 0 0.00518174 -0.00460389 0 0.00609298 -0.00456168 0
          0.00370278 -0.00502549 0 0.0042977 -0.00544619 0 0.00460389 -0.00518174 0 0.00366805 -0.00590827 0
          0.0042272 -0.00634693 0 0.00456168 -0.00609298 0 0.00552217 -0.00521244 0 0.00521244 -0.00552217 0
          0.00613002 -0.00547246 0 0.00643638 -0.00512789 0 0.00547246 -0.00613002 0 0.00512789 -0.00643638 0
          0.00637931 -0.00603148 0 0.00603148 -0.00637931 0 0.0067743 -0.00355642 0 0.0072244 -0.00407017 0
          0.00760604 -0.00337519 0 0.00698703 -0.0044238 0 0.00784577 -0.0041993 0 0.00838767 -0.00313162 0
          0.00806123 -0.00383509 0 0.00884178 -0.00353038 0 0.00865288 -0.00389722 0 0.00703039 -0.00530794 0
          0.00732708 -0.00493834 0 0.00789529 -0.00503945 0 0.00726292 -0.0058094 0 0.00691821 -0.00618836 0
          0.0077701 -0.00587617 0 0.0081766 -0.00465404 0 0.00870827 -0.00467784 0 0.00896909 -0.00428523 0
          0.00810577 -0.00547582 0 0.00857094 -0.00545536 0 0.00889212 -0.00504278 0 0.00355642 -0.0067743 0
          0.00407017 -0.0072244 0 0.0044238 -0.00698703 0 0.00337519 -0.00760604 0 0.0041993 -0.00784577 0
          0.00530794 -0.00703039 0 0.00493834 -0.00732708 0 0.00618836 -0.00691821 0 0.0058094 -0.00726292 0
          0.00503945 -0.00789529 0 0.00587617 -0.0077701 0 0.00383509 -0.00806123 0 0.00313162 -0.00838767 0
          0.00389722 -0.00865288 0 0.00353038 -0.00884178 0 0.00465404 -0.0081766 0 0.00467784 -0.00870827 0
          0.00547582 -0.00810577 0 0.00545536 -0.00857094 0 0.00428523 -0.00896909 0 0.00504278 -0.00889212 0
          0.00704631 -0.0066643 0 0.0066643 -0.00704631 0 0.0074857 -0.00669163 0 0.00669163 -0.0074857 0
          0.00786477 -0.00628246 0 0.00825796 -0.00621323 0 0.00862845 -0.00578648 0 0.00746964 -0.00705758 0
          0.00819567 -0.00650121 0 0.00628246 -0.00786477 0 0.00621323 -0.00825796 0 0.00705758 -0.00746964 0
          0.00578648 -0.00862845 0 0.00650121 -0.00819567 0 0.00778642 -0.00693639 0 0.00693639 -0.00778642 0
          0.00761132 -0.00717336 0 0.00717336 -0.00761132 0 0.000806145 -2.18755e-05 0 0.00154853 -5.179e-05 0
          0.000855348 -1.82566e-05 0 0.00165357 -4.45963e-05 0 0.00302234 -0.000153389 0 0.0032175 -0.000131412 0
          0.000896662 -1.43426e-05 0 0.00174371 -3.668e-05 0 0.0018175 -2.81845e-05 0 0.00338332 -0.000107333 0
          0.00359441 -0.000241448 0 0.00488449 -0.000428748 0 0.00384388 -0.000210291 0 0.0052025 -0.000369814 0
          0.00530087 -0.000572149 0 0.00567103 -0.000500212 0 0.00405888 -0.000175726 0 0.00547315 -0.000304936 0
          0.00423594 -0.000138388 0 0.00599038 -0.000420146 0 0.00625379 -0.000333436 0 0.000929432 -1.0201e-05 0
          0.00187378 -1.92519e-05 0 0.000953151 -5.8986e-06 0 0.00351717 -8.1577e-05 0 0.00361696 -5.45709e-05 0
          0.000967455 -1.50199e-06 0 0.00191168 -1.0024e-05 0 0.000972128 2.9228e-06 0 0.00193062 -6.41473e-07 0
          0.00368115 -2.67388e-05 0 0.00370877 1.49615e-06 0 0.00437228 -9.89127e-05 0 0.00569214 -0.00023528 0
          0.00585603 -0.000162008 0 0.00645711 -0.000241565 0 0.00446581 -5.79326e-05 0 0.00596232 -8.62796e-05 0
          0.00451508 -1.60793e-05 0 0.00600938 -9.25371e-06 0 0.00659722 -0.000146014 0 0.00667196 -4.82604e-05 0
          0.00641168 -0.000823818 0 0.00668655 -0.00101925 0 0.00715491 -0.000892678 0 0.00683065 -0.000712472 0
          0.00762299 -0.00131578 0 0.00777008 -0.00155946 0 0.00812224 -0.00113954 0 0.00831544 -0.00136721 0
          0.00755921 -0.000751578 0 0.00718748 -0.000589651 0 0.00789294 -0.000598577 0 0.00854762 -0.000944922 0
          0.00878638 -0.00115267 0 0.0091753 -0.000919873 0 0.00853749 -0.00188311 0 0.00857006 -0.00217089 0
          0.00909755 -0.0016323 0 0.00917251 -0.00190452 0 0.00917421 -0.00250564 0 0.00977686 -0.0021732 0
          0.0095749 -0.00135515 0 0.00969287 -0.0016071 0 0.0101228 -0.0012842 0 0.0102906 -0.00180568 0
          0.00747648 -0.000457572 0 0.00815085 -0.000436299 0 0.00769314 -0.000318448 0 0.00889235 -0.000735455 0
          0.00947609 -0.000672803 0 0.00915105 -0.000514652 0 0.00783412 -0.000174489 0 0.00832896 -0.000267366 0
          0.00842456 -9.4398e-05 0 0.0078973 -2.79035e-05 0 0.00931974 -0.000286029 0 0.00968411 -0.000415464 0
          0.00939586 -5.30975e-05 0 0.0097962 -0.000151851 0 0.00996191 -0.00105668 0 0.0104554 -0.000941367 0
          0.0102525 -0.00074191 0 0.0107073 -0.00140973 0 0.0110204 -0.000992039 0 0.0104423 -0.000415863 0
          0.0106857 -0.000584158 0 0.0105284 -8.35489e-05 0 0.0108102 -0.000218126 0 0.0112251 -0.000559255 0
          0.0113183 -0.000118041 0 0.000967098 7.31014e-06 0 0.00193031 8.75527e-06 0 0.00191077 1.80265e-05 0
          0.00369939 2.97116e-05 0 0.00095244 1.15947e-05 0 0.00187227 2.70331e-05 0 0.000928374 1.57117e-05 0
          0.00365316 5.74861e-05 0 0.00357077 8.4399e-05 0 0.00451936 2.60166e-05 0 0.00599651 6.79123e-05 0
          0.00447857 6.7726e-05 0 0.00668022 5.02172e-05 0 0.00662185 0.000147943 0 0.00439333 0.00010842 0
          0.00592388 0.000144062 0 0.0057926 0.000218042 0 0.00649774 0.000243444 0 0.000895265 1.95966e-05 0
          0.00181541 3.56364e-05 0 0.000853626 2.31852e-05 0 0.00174105 4.36982e-05 0 0.00345346 0.00011003 0
          0.00330305 0.000133962 0 0.000804115 2.64138e-05 0 0.00165037 5.1081e-05 0 0.0015448 5.76478e-05 0
          0.00312191 0.000155774 0 0.00426492 0.000147472 0 0.00560465 0.000288696 0 0.00409532 0.000184254 0
          0.00536293 0.000354875 0 0.00630976 0.000335245 0 0.0060608 0.000421876 0 0.00388716 0.000218142 0
          0.00507123 0.000415425 0 0.00364379 0.000248511 0 0.00575473 0.000501865 0 0.00539645 0.000573745 0
          0.00843621 7.99865e-05 0 0.0078817 0.000119101 0 0.00836371 0.000253172 0 0.00937826 0.000180631 0
          0.00981065 0.000114041 0 0.00972725 0.000378221 0 0.00778757 0.000264319 0 0.00820816 0.000422543 0
          0.00761631 0.000405548 0 0.0092672 0.000411648 0 0.00954725 0.0006367 0 0.00906435 0.000636447 0
          0.0105095 0.000250019 0 0.0108269 0.000151183 0 0.0107356 0.000518221 0 0.0112986 0.000324946 0
          0.0103858 0.000579833 0 0.0105377 0.000877443 0 0.0101592 0.000900884 0 0.0111663 0.000763051 0
          0.0109234 0.00118962 0 0.00737052 0.000540586 0 0.00797192 0.000585487 0 0.00765859 0.000739392 0
          0.00705399 0.000667231 0 0.00877279 0.000851523 0 0.00927337 0.000885489 0 0.00839701 0.00105337 0
          0.00890981 0.0011206 0 0.00727308 0.000881651 0 0.0066717 0.000783286 0 0.00682154 0.00100965 0
          0.00794292 0.0012385 0 0.00846225 0.00133806 0 0.00793782 0.00153388 0 0.0098332 0.00120817 0
          0.0102361 0.00122331 0 0.00941278 0.00149668 0 0.00983559 0.00155028 0 0.0105735 0.00159801 0
          0.0101221 0.00198156 0 0.00890456 0.00176142 0 0.00934229 0.00185281 0 0.00876411 0.00212538 0
          0.00957627 0.00233364 0 0.00910511 -0.00283299 0 0.0095522 -0.00316449 0 0.00974598 -0.00248655 0
          0.0101804 -0.00274583 0 0.00939379 -0.00352659 0 0.0100557 -0.00309643 0 0.0102996 -0.00209956 0
          0.0107161 -0.00228282 0 0.0107572 -0.00167926 0 0.0106277 -0.00261575 0 0.0111005 -0.00209356 0
          0.00969046 -0.00384211 0 0.00945466 -0.00423391 0 0.0101216 -0.0037185 0 0.0103284 -0.00333492 0
          0.00960799 -0.00452229 0 0.00930627 -0.00493855 0 0.0102412 -0.00392635 0 0.00996341 -0.00433834 0
          0.010698 -0.00314241 0 0.0108726 -0.00277384 0 0.0111746 -0.00251643 0 0.0107814 -0.00326696 0
          0.0105314 -0.00366731 0 0.0110012 -0.00293805 0 0.0111114 -0.00123288 0 0.0111507 -0.00178387 0
          0.0114774 -0.00125739 0 0.0114667 -0.00153885 0 0.0113569 -0.000767679 0 0.0116912 -0.000711773 0
          0.0114898 -0.000290875 0 0.0117889 -0.000155428 0 0.0117206 -0.000960636 0 0.0118585 -0.000367902 0
          0.0113141 -0.00216908 0 0.0115438 -0.00185137 0 0.0116462 -0.00153083 0 0.0112198 -0.0025561 0
          0.0113654 -0.00216316 0 0.0115498 -0.00180578 0 0.0118638 -0.000869289 0 0.0118001 -0.00115802 0
          0.0119394 -0.000447162 0 0.0119635 -0.000194638 0 0.0117661 -0.00102798 0 0.0116182 -0.0013552 0
          0.0118656 -0.000234672 0 0.011756 -0.000526759 0 0.00932378 -0.00519013 0 0.00896714 -0.00562548 0
          0.00993892 -0.00450717 0 0.00960101 -0.0049427 0 0.0088568 -0.00583205 0 0.00944179 -0.00506556 0
          0.0104638 -0.00375135 0 0.010149 -0.00417923 0 0.0106024 -0.0033494 0 0.00994101 -0.00421718 0
          0.00845581 -0.00628104 0 0.00822602 -0.00643584 0 0.00905421 -0.00551957 0 0.00877002 -0.00559089 0
          0.00779078 -0.00689298 0 0.00834282 -0.00605817 0 0.00957167 -0.00466799 0 0.00923438 -0.00465555 0
          0.00999985 -0.00374227 0 0.00882031 -0.00512444 0 0.00921553 -0.00410932 0 0.0108899 -0.00293645 0
          0.0109539 -0.00246753 0 0.0112107 -0.00207619 0 0.0103465 -0.00330236 0 0.0106519 -0.00233653 0
          0.0114213 -0.00118433 0 0.0111982 -0.00154794 0 0.0115184 -0.000274605 0 0.0113316 -0.000604953 0
          0.0108525 -0.00133513 0 0.0109454 -0.00031359 0 0.010332 -0.00275841 0 0.00961167 -0.00364685 0
          0.00989601 -0.00258182 0 0.00952229 -0.00303034 0 0.0105631 -0.00173238 0 0.010083 -0.00147748 0
          0.0106895 -0.000680155 0 0.0101699 -0.000350853 0 0.00973585 -0.00190504 0 0.00985296 -0.00075093 0
          0.0115082 0.000190299 0 0.011769 0.000403251 0 0.0114119 0.000668613 0 0.0118781 0.000230358 0
          0.0117792 0.000825157 0 0.0112022 0.00113684 0 0.0116318 0.000955871 0 0.0113793 0.00149404 0
          0.0115633 0.00140751 0 0.0119598 0.000270414 0 0.0119439 0.000482937 0 0.0118608 0.000983925 0
          0.0118467 0.000562161 0 0.0117766 0.000309599 0 0.0116797 0.0011413 0 0.0118052 0.00115325 0
          0.011644 0.00168259 0 0.0115496 0.00180613 0 0.0117097 0.00135054 0 0.0114668 0.00195578 0
          0.0114567 0.0021185 0 0.0108823 0.00158776 0 0.0110155 0.00200937 0 0.0104571 0.00201415 0
          0.0105458 0.00249346 0 0.0112337 0.00196842 0 0.0107954 0.00249893 0 0.00993328 0.00240879 0
          0.00997774 0.00293795 0 0.0093192 0.00276447 0 0.0102553 0.00299004 0 0.00962194 0.00343278 0
          0.0111808 0.00243139 0 0.0113126 0.00235563 0 0.0108719 0.00299227 0 0.0107047 0.00301886 0
          0.0110915 0.00285407 0 0.011141 0.00274048 0 0.0106197 0.00354527 0 0.0107075 0.00348283 0
          0.0103285 0.00358174 0 0.0101287 0.00355838 0 0.00969118 0.00411327 0 0.0100488 0.00418015 0
          0.0101729 0.00417027 0 0.00954578 0.00479025 0 0.0115006 0.000639245 0 0.011352 0.000347127 0
          0.0112592 0.00129399 0 0.0109291 0.000712662 0 0.0113682 0.00154348 0 0.0110545 0.00222132 0
          0.0111231 0.00242438 0 0.0108038 0.0017282 0 0.0105714 0.0027176 0 0.0107093 0.000382292 0
          0.0101553 0.000781047 0 0.0106223 0.00143899 0 0.00987185 0.000414466 0 0.00979225 0.00157363 0
          0.0104297 0.00247397 0 0.0100395 0.0019012 0 0.00982413 0.0029926 0 0.00961534 0.00270904 0
          0.0107691 0.0032682 0 0.010741 0.00311482 0 0.0103116 0.00406122 0 0.0103236 0.00396019 0
          0.0102355 0.00366544 0 0.00980126 0.0045563 0 0.00975782 0.00478972 0 0.00980871 0.00474312 0
          0.00920462 0.00544933 0 0.00927547 0.00537477 0 0.0101346 0.00347127 0 0.00951257 0.00403824 0
          0.00974128 0.00441493 0 0.00910959 0.0050211 0 0.00934382 0.00380319 0 0.00898183 0.00483857 0
          0.00925604 0.00528898 0 0.00862151 0.00592418 0 0.00868658 0.00607748 0 0.00853504 0.00579767 0
          0.00801056 0.00666298 0 2.18755e-05 -0.000806145 0 5.179e-05 -0.00154853 0 0.000153389 -0.00302234 0
          4.45963e-05 -0.00165357 0 1.82566e-05 -0.000855348 0 0.000131412 -0.0032175 0 0.000241448 -0.00359441 0
          0.000428748 -0.00488449 0 0.000572149 -0.00530087 0 0.000210291 -0.00384388 0 0.000369814 -0.0052025 0
          0.000500212 -0.00567103 0 3.668e-05 -0.00174371 0 1.43426e-05 -0.000896662 0 0.000107333 -0.00338332 0
          2.81845e-05 -0.0018175 0 0.000175726 -0.00405888 0 0.000304936 -0.00547315 0 0.000420146 -0.00599038 0
          0.000138388 -0.00423594 0 0.000333436 -0.00625379 0 0.00101925 -0.00668655 0 0.000823818 -0.00641168 0
          0.00131578 -0.00762299 0 0.00155946 -0.00777008 0 0.000892678 -0.00715491 0 0.000712472 -0.00683065 0
          0.00136721 -0.00831544 0 0.00113954 -0.00812224 0 0.00188311 -0.00853749 0 0.00217089 -0.00857006 0
          0.00250564 -0.00917421 0 0.00190452 -0.00917251 0 0.0016323 -0.00909755 0 0.0021732 -0.00977686 0
          0.000751578 -0.00755921 0 0.000589651 -0.00718748 0 0.00115267 -0.00878638 0 0.000944922 -0.00854762 0
          0.000598577 -0.00789294 0 0.000919873 -0.0091753 0 0.0016071 -0.00969287 0 0.00135515 -0.0095749 0
          0.00180568 -0.0102906 0 0.0012842 -0.0101228 0 1.0201e-05 -0.000929432 0 1.92519e-05 -0.00187378 0
          8.1577e-05 -0.00351717 0 5.8986e-06 -0.000953151 0 5.45709e-05 -0.00361696 0 0.00023528 -0.00569214 0
          9.89127e-05 -0.00437228 0 0.000241565 -0.00645711 0 0.000162008 -0.00585603 0 1.50199e-06 -0.000967455 0
          1.0024e-05 -0.00191168 0 2.67388e-05 -0.00368115 0 6.41473e-07 -0.00193062 0 -2.9228e-06 -0.000972128 0
          -1.49615e-06 -0.00370877 0 5.79326e-05 -0.00446581 0 8.62796e-05 -0.00596232 0 0.000146014 -0.00659722 0
          1.60793e-05 -0.00451508 0 9.25371e-06 -0.00600938 0 4.82604e-05 -0.00667196 0 0.000457572 -0.00747648 0
          0.000436299 -0.00815085 0 0.000735455 -0.00889235 0 0.000672803 -0.00947609 0 0.000318448 -0.00769314 0
          0.000514652 -0.00915105 0 0.00105668 -0.00996191 0 0.000941367 -0.0104554 0 0.00140973 -0.0107073 0
          0.00074191 -0.0102525 0 0.000992039 -0.0110204 0 0.000267366 -0.00832896 0 0.000174489 -0.00783412 0
          0.000286029 -0.00931974 0 0.000415464 -0.00968411 0 9.4398e-05 -0.00842456 0 2.79035e-05 -0.0078973 0
          0.000151851 -0.0097962 0 5.30975e-05 -0.00939586 0 0.000415863 -0.0104423 0 0.000584158 -0.0106857 0
          0.000559255 -0.0112251 0 0.000218126 -0.0108102 0 8.35489e-05 -0.0105284 0 0.000118041 -0.0113183 0
          0.00283299 -0.00910511 0 0.00316449 -0.0095522 0 0.00352659 -0.00939379 0 0.00248655 -0.00974598 0
          0.00274583 -0.0101804 0 0.00309643 -0.0100557 0 0.00423391 -0.00945466 0 0.00384211 -0.00969046 0
          0.00452229 -0.00960799 0 0.00493855 -0.00930627 0 0.0037185 -0.0101216 0 0.00333492 -0.0103284 0
          0.00433834 -0.00996341 0 0.00392635 -0.0102412 0 0.00209956 -0.0102996 0 0.00228282 -0.0107161 0
          0.00261575 -0.0106277 0 0.00167926 -0.0107572 0 0.00209356 -0.0111005 0 0.00314241 -0.010698 0
          0.00277384 -0.0108726 0 0.00366731 -0.0105314 0 0.00326696 -0.0107814 0 0.00251643 -0.0111746 0
          0.00293805 -0.0110012 0 0.00519013 -0.00932378 0 0.00562548 -0.00896714 0 0.00583205 -0.0088568 0
          0.0049427 -0.00960101 0 0.00450717 -0.00993892 0 0.00506556 -0.00944179 0 0.00628104 -0.00845581 0
          0.00643584 -0.00822602 0 0.00689298 -0.00779078 0 0.00551957 -0.00905421 0 0.00559089 -0.00877002 0
          0.00605817 -0.00834282 0 0.00417923 -0.010149 0 0.00375135 -0.0104638 0 0.00421718 -0.00994101 0
          0.0033494 -0.0106024 0 0.00466799 -0.00957167 0 0.00465555 -0.00923438 0 0.00512444 -0.00882031 0
          0.00374227 -0.00999985 0 0.00410932 -0.00921553 0 0.00178387 -0.0111507 0 0.00123288 -0.0111114 0
          0.00153885 -0.0114667 0 0.00125739 -0.0114774 0 0.00216908 -0.0113141 0 0.00185137 -0.0115438 0
          0.0025561 -0.0112198 0 0.00216316 -0.0113654 0 0.00153083 -0.0116462 0 0.00180578 -0.0115498 0
          0.000767679 -0.0113569 0 0.000711773 -0.0116912 0 0.000960636 -0.0117206 0 0.000290875 -0.0114898 0
          0.000155428 -0.0117889 0 0.000367902 -0.0118585 0 0.00115802 -0.0118001 0 0.000869289 -0.0118638 0
          0.00102798 -0.0117661 0 0.0013552 -0.0116182 0 0.000447162 -0.0119394 0 0.000194638 -0.0119635 0
          0.000526759 -0.011756 0 0.000234672 -0.0118656 0 0.00293645 -0.0108899 0 0.00246753 -0.0109539 0
          0.00330236 -0.0103465 0 0.00207619 -0.0112107 0 0.00233653 -0.0106519 0 0.00364685 -0.00961167 0
          0.00275841 -0.010332 0 0.00303034 -0.00952229 0 0.00258182 -0.00989601 0 0.00118433 -0.0114213 0
          0.00154794 -0.0111982 0 0.00133513 -0.0108525 0 0.000604953 -0.0113316 0 0.000274605 -0.0115184 0
          0.00031359 -0.0109454 0 0.00173238 -0.0105631 0 0.00147748 -0.010083 0 0.00190504 -0.00973585 0
          0.000680155 -0.0106895 0 0.000350853 -0.0101699 0 0.00075093 -0.00985296 0 -8.75527e-06 -0.00193031 0
          -7.31014e-06 -0.000967098 0 -2.97116e-05 -0.00369939 0 -1.80265e-05 -0.00191077 0 -2.60166e-05 -0.00451936 0
          -6.79123e-05 -0.00599651 0 -5.02172e-05 -0.00668022 0 -6.7726e-05 -0.00447857 0 -0.000147943 -0.00662185 0
          -1.15947e-05 -0.00095244 0 -2.70331e-05 -0.00187227 0 -5.74861e-05 -0.00365316 0 -1.57117e-05 -0.000928374 0
          -8.4399e-05 -0.00357077 0 -0.000144062 -0.00592388 0 -0.00010842 -0.00439333 0 -0.000243444 -0.00649774 0
          -0.000218042 -0.0057926 0 -7.99865e-05 -0.00843621 0 -0.000119101 -0.0078817 0 -0.000114041 -0.00981065 0
          -0.000180631 -0.00937826 0 -0.000253172 -0.00836371 0 -0.000378221 -0.00972725 0 -0.000151183 -0.0108269 0
          -0.000250019 -0.0105095 0 -0.000324946 -0.0112986 0 -0.000518221 -0.0107356 0 -0.000264319 -0.00778757 0
          -0.000422543 -0.00820816 0 -0.000411648 -0.0092672 0 -0.0006367 -0.00954725 0 -0.000405548 -0.00761631 0
          -0.000636447 -0.00906435 0 -0.000579833 -0.0103858 0 -0.000877443 -0.0105377 0 -0.000763051 -0.0111663 0
          -0.000900884 -0.0101592 0 -0.00118962 -0.0109234 0 -1.95966e-05 -0.000895265 0 -3.56364e-05 -0.00181541 0
          -0.00011003 -0.00345346 0 -4.36982e-05 -0.00174105 0 -2.31852e-05 -0.000853626 0 -0.000133962 -0.00330305 0
          -0.000147472 -0.00426492 0 -0.000288696 -0.00560465 0 -0.000335245 -0.00630976 0 -0.000184254 -0.00409532 0
          -0.000354875 -0.00536293 0 -0.000421876 -0.0060608 0 -5.1081e-05 -0.00165037 0 -2.64138e-05 -0.000804115 0
          -0.000155774 -0.00312191 0 -5.76478e-05 -0.0015448 0 -0.000218142 -0.00388716 0 -0.000415425 -0.00507123 0
          -0.000501865 -0.00575473 0 -0.000248511 -0.00364379 0 -0.000573745 -0.00539645 0 -0.000585487 -0.00797192 0
          -0.000540586 -0.00737052 0 -0.000851523 -0.00877279 0 -0.000885489 -0.00927337 0 -0.000739392 -0.00765859 0
          -0.000667231 -0.00705399 0 -0.0011206 -0.00890981 0 -0.00105337 -0.00839701 0 -0.00120817 -0.0098332 0
          -0.00122331 -0.0102361 0 -0.00159801 -0.0105735 0 -0.00155028 -0.00983559 0 -0.00149668 -0.00941278 0
          -0.00198156 -0.0101221 0 -0.000881651 -0.00727308 0 -0.000783286 -0.0066717 0 -0.00133806 -0.00846225 0
          -0.0012385 -0.00794292 0 -0.00100965 -0.00682154 0 -0.00153388 -0.00793782 0 -0.00185281 -0.00934229 0
          -0.00176142 -0.00890456 0 -0.00233364 -0.00957627 0 -0.00212538 -0.00876411 0 -0.000190299 -0.0115082 0
          -0.000403251 -0.011769 0 -0.000230358 -0.0118781 0 -0.000668613 -0.0114119 0 -0.000825157 -0.0117792 0
          -0.000270414 -0.0119598 0 -0.000482937 -0.0119439 0 -0.000309599 -0.0117766 0 -0.000562161 -0.0118467 0
          -0.000983925 -0.0118608 0 -0.0011413 -0.0116797 0 -0.000955871 -0.0116318 0 -0.00113684 -0.0112022 0
          -0.00140751 -0.0115633 0 -0.00149404 -0.0113793 0 -0.00115325 -0.0118052 0 -0.00168259 -0.011644 0
          -0.00135054 -0.0117097 0 -0.00195578 -0.0114668 0 -0.00180613 -0.0115496 0 -0.0021185 -0.0114567 0
          -0.000347127 -0.011352 0 -0.000639245 -0.0115006 0 -0.000712662 -0.0109291 0 -0.00129399 -0.0112592 0
          -0.000382292 -0.0107093 0 -0.000781047 -0.0101553 0 -0.000414466 -0.00987185 0 -0.00143899 -0.0106223 0
          -0.00157363 -0.00979225 0 -0.00154348 -0.0113682 0 -0.00222132 -0.0110545 0 -0.0017282 -0.0108038 0
          -0.00242438 -0.0111231 0 -0.0027176 -0.0105714 0 -0.0019012 -0.0100395 0 -0.00247397 -0.0104297 0
          -0.00270904 -0.00961534 0 -0.0029926 -0.00982413 0 -0.00158776 -0.0108823 0 -0.00200937 -0.0110155 0
          -0.00196842 -0.0112337 0 -0.00201415 -0.0104571 0 -0.00249346 -0.0105458 0 -0.00249893 -0.0107954 0
          -0.00235563 -0.0113126 0 -0.00243139 -0.0111808 0 -0.00285407 -0.0110915 0 -0.00274048 -0.011141 0
          -0.00299227 -0.0108719 0 -0.00301886 -0.0107047 0 -0.00348283 -0.0107075 0 -0.00354527 -0.0106197 0
          -0.00240879 -0.00993328 0 -0.00293795 -0.00997774 0 -0.00299004 -0.0102553 0 -0.00276447 -0.0093192 0
          -0.00343278 -0.00962194 0 -0.00358174 -0.0103285 0 -0.00355838 -0.0101287 0 -0.00417027 -0.0101729 0
          -0.00418015 -0.0100488 0 -0.00411327 -0.00969118 0 -0.00479025 -0.00954578 0 -0.0032682 -0.0107691 0
          -0.00311482 -0.010741 0 -0.00366544 -0.0102355 0 -0.00396019 -0.0103236 0 -0.00406122 -0.0103116 0
          -0.0045563 -0.00980126 0 -0.00347127 -0.0101346 0 -0.00403824 -0.00951257 0 -0.00380319 -0.00934382 0
          -0.00441493 -0.00974128 0 -0.0050211 -0.00910959 0 -0.00483857 -0.00898183 0 -0.00474312 -0.00980871 0
          -0.00478972 -0.00975782 0 -0.00537477 -0.00927547 0 -0.00544933 -0.00920462 0 -0.00528898 -0.00925604 0
          -0.00592418 -0.00862151 0 -0.00579767 -0.00853504 0 -0.00607748 -0.00868658 0 -0.00666298 -0.00801056 0
          0.00745041 -0.00699056 0 0.00699056 -0.00745041 0 0.00748665 -0.0065489 0 0.00794383 -0.00607364 0
          0.0065489 -0.00748665 0 0.00607364 -0.00794383 0 0.0069834 -0.00650549 0 0.00650549 -0.0069834 0
          0.00791586 -0.00554045 0 0.00836513 -0.00505852 0 0.00827126 -0.00444399 0 0.00735452 -0.00541913 0
          0.00687924 -0.00590892 0 0.00718888 -0.00474058 0 0.00554045 -0.00791586 0 0.00505852 -0.00836513 0
          0.00590892 -0.00687924 0 0.00541913 -0.00735452 0 0.00444399 -0.00827126 0 0.00474058 -0.00718888 0
          0.0062238 -0.00573139 0 0.00573139 -0.0062238 0 0.00599024 -0.00499421 0 0.00499421 -0.00599024 0
          0.00870758 -0.00396368 0 0.00854727 -0.00327848 0 0.00896584 -0.00280761 0 0.00765634 -0.00424737 0
          0.00742953 -0.00349857 0 0.00788414 -0.00300999 0 0.00913592 -0.00160879 0 0.00873963 -0.00206284 0
          0.00884542 -0.000816 0 0.00921527 -0.000385698 0 0.00803441 -0.00172678 0 0.00759748 -0.00220306 0