<?xml version="1.0"?>
<VTKFile type="UnstructuredGrid" version="0.1" byte_order="LittleEndian">
  <UnstructuredGrid>
    <Piece NumberOfCells="3200" NumberOfPoints="1681">
      <PointData Scalars="p">
        <DataArray type="Float32" Name="p" NumberOfComponents="1" format="ascii">
          0.0226444 0.0231928 -0.00185934 -0.00241219 0.0462333 0.0225063 0.0471896 0.0684372 0.0697906 0.0460396 0.0681662 -0.00292449
          0.0224751 -0.00331722 0.0460062 0.0681005 0.0892943 0.0909672 0.108829 0.110744 0.0889771 0.108491 0.12706 0.129145
          0.143998 0.126716 0.0888908 0.108396 0.126622 0.143659 0.143571 -0.00359865 0.0224896 0.0460194 0.0225335 -0.00378203
          0.0460572 0.06809 0.0681064 0.0226004 -0.00387781 0.0461126 0.0226856 0.0681414 0.0461815 0.0681907 0.0888623 0.108358
          0.0888616 0.108346 0.12658 0.14353 0.126561 0.14351 0.0888802 0.108352 0.0889135 0.108373 0.12656 0.143504
          0.126573 0.14619 0.159652 0.161894 0.159327 0.174031 0.17627 0.187139 0.189326 0.173725 0.186858 0.159249
          0.173659 0.186804 0.198981 0.201074 0.209562 0.19873 0.21152 0.218883 0.220672 0.209342 0.218698 0.198688
          0.209314 0.218683 0.159213 0.159193 0.173629 0.186782 0.173613 0.186771 0.159186 0.143511 0.15919 0.173607
          0.186767 0.173609 0.18677 0.198675 0.209309 0.198669 0.209309 0.218686 0.218692 0.198668 0.209312 0.198673
          0.2187 0.20932 0.218711 -0.00389478 0.0227855 -0.00384103 0.0462606 0.0682507 -0.00372412 0.0228969 0.0463471 0.0230168
          -0.00355125 0.0464385 0.0683187 0.0683924 0.0889582 0.108406 0.126596 0.143528 0.0890116 0.108448 0.0890714 0.108496
          0.126628 0.143554 0.126668 0.143586 0.0231428 -0.00332924 0.0465329 0.0232726 0.0684697 0.0466285 0.0685491 -0.00306459
          0.0234043 -0.00276351 0.0467238 0.068629 0.0891357 0.108549 0.0892028 0.108606 0.126712 0.143623 0.126761 0.0892715
          0.108666 0.126812 0.143664 0.143709 0.159203 0.17362 0.186779 0.159223 0.15925 0.173637 0.186795 0.173659
          0.186815 0.198683 0.209331 0.218724 0.198697 0.209345 0.198716 0.209363 0.218739 0.218757 0.159281 0.159317
          0.173687 0.186839 0.173718 0.186867 0.159356 0.173752 0.186898 0.198738 0.209384 0.198764 0.218778 0.209408
          0.2188 0.198792 0.209434 0.218825 0.226947 0.228538 0.233758 0.235123 0.2268 0.233649 0.239316 0.240434
          0.243623 0.239246 0.226798 0.233659 0.239268 0.243594 0.243627 0.244477 0.246681 0.247258 0.246692 0.248491
          0.248783 0.249055 0.249055 0.248542 0.249144 0.246735 0.248594 0.249205 0.226809 0.233677 0.226821 0.233695
          0.239294 0.243659 0.239317 0.243687 0.226833 0.233713 0.226847 0.23373 0.239339 0.243713 0.239359 0.246773
          0.246806 0.248637 0.249252 0.248674 0.249293 0.246835 0.243737 0.246862 0.248707 0.249328 0.248737 0.24936
          0.248372 0.248082 0.246444 0.248499 0.245869 0.243273 0.24242 0.246608 0.24347 0.248568 0.246682 0.24355
          0.238858 0.237741 0.233202 0.231837 0.239086 0.233457 0.226303 0.224713 0.218165 0.226582 0.239171 0.233545
          0.226673 0.218463 0.218555 0.248619 0.246737 0.248662 0.246782 0.243607 0.243654 0.2487 0.246822 0.248734
          0.243696 0.246858 0.243732 0.239229 0.233604 0.239278 0.233653 0.226732 0.218614 0.226781 0.218662 0.23932
          0.233696 0.239358 0.233734 0.226824 0.218704 0.226862 0.226862 0.233747 0.239379 0.243759 0.226879 0.233766
          0.226898 0.233785 0.2394 0.243781 0.23942 0.243803 0.246887 0.248764 0.24939 0.246911 0.246934 0.248789
          0.249417 0.248814 0.249442 0.226918 0.233806 0.22694 0.233828 0.239441 0.243825 0.239463 0.226964 0.233851
          0.239486 0.243847 0.24387 0.246957 0.24698 0.248838 0.249467 0.248861 0.249491 0.247003 0.248884 0.249515
          0.248765 0.24689 0.243766 0.248793 0.24692 0.24882 0.246947 0.243796 0.243824 0.239392 0.233768 0.226896
          0.218741 0.218774 0.239422 0.233799 0.239451 0.233828 0.226927 0.218805 0.226956 0.218833 0.248845 0.246973
          0.24887 0.243851 0.246999 0.243877 0.248894 0.247023 0.243901 0.239478 0.233856 0.239504 0.233882 0.226983
          0.218861 0.227009 0.23953 0.233907 0.227035 0.218887 0.218913 -0.00243199 0.0235363 0.0468177 0.0236671 -0.0020758
          0.046909 0.0687083 0.0687861 0.0237954 -0.00170058 0.0469971 0.0239199 0.0688615 0.047081 0.0689338 0.0893406 0.108726
          0.089409 0.108786 0.126864 0.143755 0.126918 0.143803 0.089476 0.108846 0.0895409 0.108905 0.126972 0.143851
          0.127025 -0.00131179 0.0240397 -0.000914817 0.0471603 0.0690025 -0.000514955 0.0241538 0.0472345 0.0242612 -0.00011743 0.047303
          0.0690671 0.069127 0.089603 0.108962 0.127076 0.143899 0.143946 0.089662 0.109016 0.0897174 0.109067 0.127127
          0.143993 0.127175 0.144038 0.159397 0.159439 0.173789 0.186931 0.173827 0.186965 0.159483 0.159526 0.173866
          0.187001 0.173907 0.187038 0.198822 0.209462 0.198854 0.209492 0.218851 0.218879 0.198887 0.209523 0.198921
          0.218908 0.209555 0.218939 0.15957 0.173947 0.187076 0.159613 0.159656 0.173987 0.187114 0.174027 0.187151
          0.198956 0.209588 0.21897 0.198992 0.209621 0.199028 0.209655 0.219002 0.219034 0.0243611 0.000272575 0.0473655
          0.0244527 0.0691821 0.0474216 0.069232 0.000649903 0.0245351 0.0010094 0.047471 0.0692763 0.0897688 0.109116 0.0898159
          0.109161 0.12722 0.144081 0.127263 0.0898584 0.109202 0.127304 0.144122 0.144162 0.00134589 0.0246075 0.0475134
          0.024669 0.00165414 0.0475482 0.0693148 0.0693472 0.0247187 0.00192883 0.0475752 0.0247553 0.0693732 0.0475936 0.0693922
          0.0898961 0.109239 0.0899287 0.109273 0.127341 0.144198 0.127374 0.144233 0.089956 0.109301 0.0899777 0.109326
          0.127405 0.144265 0.127432 0.159697 0.159736 0.174066 0.187189 0.174105 0.187226 0.159775 0.174142 0.187262
          0.199063 0.20969 0.199099 0.219067 0.209724 0.2191 0.199134 0.209758 0.219133 0.159811 0.159846 0.174178
          0.187298 0.174213 0.187333 0.159879 0.144294 0.159911 0.174247 0.187367 0.17428 0.187401 0.19917 0.209793
          0.199204 0.209827 0.219167 0.219201 0.199239 0.209862 0.199273 0.219234 0.209896 0.219268 0.226989 0.233875
          0.227015 0.233901 0.23951 0.243894 0.239535 0.243919 0.227043 0.233928 0.227072 0.233955 0.239561 0.243944
          0.239588 0.247027 0.247051 0.248908 0.249539 0.248932 0.249563 0.247075 0.24397 0.247101 0.248957 0.249587
          0.248981 0.249611 0.227102 0.233984 0.239615 0.243996 0.227132 0.234013 0.227163 0.234043 0.239643 0.244023
          0.239672 0.244051 0.247127 0.249007 0.249636 0.247153 0.24718 0.249032 0.249661 0.249058 0.249687 0.248918
          0.247047 0.248942 0.247072 0.243926 0.24395 0.248967 0.247096 0.248991 0.243975 0.24712 0.243999 0.239554
          0.233933 0.239579 0.233958 0.227061 0.218939 0.227086 0.218965 0.239604 0.233982 0.239628 0.234007 0.227111
          0.218991 0.227137 0.249015 0.247144 0.244023 0.24904 0.247169 0.249065 0.247193 0.244048 0.244072 0.239653
          0.234032 0.227162 0.219017 0.219043 0.239677 0.234057 0.239701 0.234081 0.227187 0.219069 0.227212 0.219094
          0.227195 0.234073 0.227227 0.234104 0.239701 0.244079 0.239731 0.227259 0.234135 0.23976 0.244107 0.244136
          0.247207 0.247234 0.249084 0.249712 0.249111 0.249737 0.247262 0.249137 0.249762 0.227291 0.234166 0.227324
          0.234198 0.239791 0.244165 0.239821 0.244194 0.227357 0.234229 0.22739 0.234262 0.239851 0.244223 0.239882
          0.247289 0.247316 0.249163 0.249787 0.249189 0.249811 0.247344 0.244252 0.247371 0.249214 0.249835 0.249239
          0.249857 0.249089 0.247217 0.249114 0.244095 0.247241 0.244119 0.249138 0.247264 0.244141 0.239724 0.234104
          0.239747 0.234127 0.227236 0.219118 0.227258 0.239769 0.234148 0.22728 0.219142 0.219164 0.249161 0.247286
          0.249184 0.247307 0.244162 0.244182 0.249206 0.247327 0.249226 0.2442 0.247345 0.244216 0.239789 0.234168
          0.239808 0.234186 0.227299 0.219183 0.227316 0.2192 0.239824 0.234201 0.239838 0.234213 0.22733 0.219214
          0.227341 0.216374 0.208786 0.206826 0.2091 0.198169 0.196074 0.186315 0.184123 0.198492 0.186642 0.209192
          0.198583 0.186729 0.173225 0.17098 0.158901 0.173549 0.156651 0.143347 0.141144 0.159215 0.143642 0.173632
          0.15929 0.143706 0.209249 0.209295 0.198638 0.18678 0.198682 0.186821 0.209336 0.209371 0.19872 0.186856
          0.198753 0.186887 0.173678 0.15933 0.173714 0.15936 0.143736 0.143758 0.173745 0.159385 0.173773 0.143777
          0.159409 0.143796 0.126567 0.12447 0.108569 0.106644 0.126832 0.108787 0.0893623 0.0876914 0.0689582 0.0895087
          0.126879 0.10881 0.0894972 0.0689942 0.0689336 0.067654 0.0473496 0.0465664 0.0472254 0.0244768 0.0242318 0.000771228
          0.000475664 0.0242052 0.000716195 0.0471104 0.0240992 0.00100767 0.126897 0.108811 0.126909 0.10881 0.0894755 0.0688854
          0.0894596 0.0688537 0.12692 0.108812 0.126933 0.108818 0.089451 0.0688355 0.0894497 0.0470422 0.0470023 0.0240674
          0.00130583 0.0240605 0.00154044 0.0469809 0.0688285 0.0469732 0.024065 0.00171337 0.0240767 0.00183072 0.209404 0.198784
          0.186916 0.209433 0.209461 0.198813 0.186943 0.19884 0.186969 0.173798 0.159432 0.143815 0.173823 0.159454
          0.173848 0.159478 0.143835 0.143856 0.209488 0.209515 0.198867 0.186995 0.198893 0.187021 0.209541 0.19892
          0.187048 0.173874 0.159502 0.1739 0.14388 0.159528 0.143906 0.173927 0.159556 0.143935 0.126947 0.108828
          0.0894554 0.0688312 0.126964 0.108842 0.126985 0.108861 0.0894676 0.0688423 0.0894858 0.0688609 0.0469768 0.0240935
          0.00189661 0.0469896 0.0470102 0.024114 0.00191452 0.0241371 0.0018879 0.127008 0.108884 0.127034 0.108911 0.0895094
          0.0688859 0.0895381 0.127064 0.108942 0.0895711 0.0689167 0.0689527 0.0470377 0.0470711 0.024162 0.00182037 0.0241883
          0.0017157 0.0471095 0.0242155 0.00157781 0.209568 0.209594 0.198946 0.187076 0.198974 0.187104 0.209621 0.209648
          0.199001 0.187133 0.199029 0.187162 0.173955 0.159585 0.173984 0.159616 0.143965 0.143998 0.174015 0.159648
          0.174046 0.144032 0.159681 0.144068 0.209675 0.199057 0.187192 0.209701 0.209728 0.199086 0.187222 0.199113
          0.187251 0.174078 0.159715 0.144105 0.17411 0.15975 0.174142 0.159785 0.144142 0.14418 0.127096 0.108977
          0.12713 0.109014 0.0896082 0.068993 0.0896487 0.0690373 0.127167 0.109054 0.127206 0.109096 0.0896923 0.0690849
          0.0897385 0.0471522 0.0471988 0.0242433 0.00141075 0.0242716 0.00121871 0.0472486 0.0691354 0.0473011 0.0243003 0.00100593
          0.0243294 0.000776759 0.127246 0.10914 0.0897868 0.0691882 0.127288 0.109186 0.127329 0.109232 0.0898368 0.0692429
          0.089888 0.0692991 0.0473559 0.0243589 0.000535632 0.0474127 0.0474709 0.024389 0.00028704 0.0244198 3.55373e-05 0.209753
          0.209778 0.199141 0.18728 0.199166 0.187308 0.2098 0.19919 0.187334 0.174173 0.159819 0.174203 0.144218
          0.159852 0.144255 0.174232 0.159884 0.144291 0.209821 0.209838 0.199212 0.187357 0.19923 0.187377 0.209851
          0.219223 0.20986 0.199244 0.187393 0.199253 0.187403 0.174257 0.159913 0.17428 0.159939 0.144324 0.144354
          0.174298 0.15996 0.17431 0.14438 0.159975 0.144399 0.127371 0.109278 0.127413 0.109325 0.0899398 0.0693563
          0.0899918 0.127453 0.10937 0.0900433 0.069414 0.0694717 0.0475304 0.0475906 0.0244515 -0.000214261 0.0244845 -0.000457688
          0.0476514 0.0245189 -0.000690033 0.127491 0.109414 0.127526 0.109456 0.0900937 0.0695287 0.090142 0.0695845 0.127557
          0.109493 0.127583 0.109526 0.0901875 0.0696383 0.0902288 0.0477122 0.0477726 0.024555 -0.000906545 0.0245932 -0.00110244
          0.0478322 0.0696891 0.0478903 0.0246336 -0.00127292 0.0246766 -0.00141319 0.00216449 0.0247775 0.00235539 0.0476029 0.0694039
          0.00249544 0.0247837 0.0476019 0.0247716 0.00257798 0.0475895 0.0694077 0.0694028 0.0899935 0.109346 0.127456 0.144322
          0.0900032 0.109361 0.0900065 0.109373 0.127477 0.144347 0.127495 0.144371 0.0247385 0.00259539 0.047564 0.02468
          0.0693885 0.0475231 0.0693639 0.00253847 0.0245901 0.00239513 0.0474639 0.0693285 0.0900033 0.10938 0.0899939 0.109384
          0.127511 0.144395 0.127526 0.089979 0.109386 0.127542 0.144418 0.144445 0.159941 0.174312 0.187435 0.15997
          0.159999 0.174344 0.187469 0.174377 0.187504 0.199308 0.209931 0.219303 0.199343 0.209967 0.19938 0.210003
          0.219338 0.219375 0.160028 0.160059 0.17441 0.18754 0.174446 0.187579 0.160092 0.174484 0.18762 0.199417
          0.210042 0.199457 0.219413 0.210082 0.219452 0.199501 0.210125 0.219495 0.00214757 0.0244599 0.0473832 0.0242759
          0.00176652 0.0472782 0.0692826 0.0692287 0.0240204 0.00120114 0.0471503 0.0236838 0.0691749 0.0470175 0.0691421 0.0899607
          0.109389 0.0899433 0.109397 0.127561 0.144475 0.127588 0.144514 0.0899357 0.109419 0.0899536 0.109463 0.127627
          0.144565 0.127686 0.000376308 0.0233251 -0.000704724 0.0469437 0.0691686 -0.00121217 0.0232144 0.0470258 0.0230568 -0.00128574
          0.0464938 0.069222 0.0681471 0.0900113 0.109529 0.127751 0.14463 0.144692 0.0899976 0.10946 0.0885118 0.107694
          0.127641 0.144554 0.12569 0.142487 0.160131 0.160177 0.174528 0.187667 0.174579 0.18772 0.160234 0.160302
          0.174639 0.18778 0.174707 0.187846 0.199548 0.210172 0.199601 0.210224 0.21954 0.219588 0.19966 0.21028
          0.199723 0.219641 0.210338 0.219694 0.16036 0.17476 0.187894 0.160202 0.15808 0.174589 0.187716 0.172465
          0.185639 0.199765 0.210375 0.219726 0.199586 0.2102 0.197598 0.20834 0.219558 0.217861 0.227424 0.234294
          0.239913 0.24428 0.227459 0.234327 0.227494 0.234361 0.239944 0.244309 0.239976 0.244338 0.247397 0.249263
          0.249879 0.247423 0.247449 0.249287 0.249899 0.249309 0.249918 0.227531 0.234395 0.227569 0.234431 0.240008
          0.244367 0.24004 0.227609 0.234468 0.240074 0.244396 0.244426 0.247475 0.2475 0.249331 0.249936 0.249352
          0.249952 0.247525 0.249371 0.249966 0.249245 0.247361 0.244229 0.249262 0.247375 0.249277 0.247386 0.244239
          0.244247 0.239849 0.234221 0.227347 0.219227 0.239856 0.234225 0.239859 0.234224 0.227348 0.219226 0.227344
          0.219218 0.24929 0.247395 0.249301 0.24425 0.2474 0.24425 0.249309 0.247403 0.244246 0.239858 0.234219
          0.239852 0.234207 0.227333 0.219203 0.227316 0.239842 0.234189 0.227291 0.21918 0.219148 0.227651 0.234507
          0.227696 0.234548 0.240108 0.244456 0.240144 0.244485 0.227744 0.23459 0.227791 0.234631 0.24018 0.244515
          0.240215 0.247549 0.247573 0.24939 0.249978 0.249407 0.249989 0.247596 0.244543 0.247616 0.249423 0.249997
          0.249436 0.250001 0.227818 0.234652 0.240231 0.244554 0.227662 0.234512 0.226157 0.233225 0.240109 0.244452
          0.239061 0.24366 0.247622 0.249436 0.249997 0.247542 0.247019 0.24938 0.249965 0.249133 0.249998 0.249315
          0.247401 0.249318 0.247397 0.244238 0.244225 0.249318 0.247388 0.249315 0.244208 0.247376 0.244186 0.239826
          0.234165 0.239804 0.234135 0.227259 0.219107 0.227219 0.219057 0.239777 0.234098 0.239746 0.234056 0.227171
          0.218998 0.227117 0.249305 0.24736 0.244164 0.249297 0.247376 0.249609 0.247963 0.244203 0.245054 0.239716
          0.234018 0.227071 0.218931 0.218874 0.239777 0.234097 0.240878 0.235431 0.227165 0.21898 0.228708 0.220704
          0.209863 0.199256 0.187406 0.20986 0.209849 0.199251 0.187401 0.199238 0.187387 0.174315 0.159983 0.144411
          0.174311 0.159981 0.174297 0.159969 0.144414 0.144405 0.20983 0.209801 0.199216 0.187362 0.199182 0.187323
          0.209763 0.199136 0.187271 0.17427 0.159943 0.174229 0.144382 0.1599 0.144341 0.174171 0.159839 0.144278
          0.127601 0.109552 0.0902645 0.0697355 0.12761 0.10957 0.127607 0.109576 0.0902925 0.069776 0.0903104 0.0698082
          0.0479461 0.0247222 -0.00151848 0.0479984 0.0480457 0.0247705 -0.0015841 0.0248209 -0.0016055 0.12759 0.109567 0.127553
          0.109539 0.0903146 0.0698292 0.0903007 0.127492 0.109486 0.0902621 0.0698345 0.0698178 0.0480854 0.0481143 0.0248728
          -0.00157843 0.0249247 -0.00149912 0.0481269 0.0249735 -0.00136476 0.209713 0.209652 0.199077 0.187204 0.199005 0.18712
          0.20958 0.209499 0.198919 0.187019 0.198823 0.186905 0.174095 0.159755 0.173999 0.159648 0.144189 0.144072
          0.173883 0.159515 0.173749 0.143922 0.159359 0.143742 0.209429 0.198738 0.186802 0.209542 0.211415 0.198852
          0.186909 0.200836 0.188963 0.173624 0.159207 0.143557 0.173716 0.159273 0.175792 0.161321 0.143584 0.145545
          0.127403 0.109401 0.127278 0.109275 0.0901901 0.0697698 0.090073 0.0696763 0.127113 0.109099 0.126906 0.108867
          0.0898958 0.0695169 0.0896444 0.0481148 0.0480643 0.0250142 -0.00117432 0.0250374 -0.000930476 0.0479525 0.0692649 0.0477416
          0.0250251 -0.000644437 0.02494 -0.000349871 0.126684 0.1086 0.089328 0.0689066 0.126655 0.108496 0.128465 0.110084
          0.0891235 0.0685755 0.0904132 0.0694869 0.0473829 0.0247042 -0.000135451 0.0469265 0.047393 0.0242463 -0.00014332 0.0242857
          -4.41171e-05
        </DataArray>
        <DataArray type="Float32" Name="rho" NumberOfComponents="1" format="ascii">
          1 1 1 1 1 1 1 1 1 1 1 1
          1 1 1 1 1 1 1 1 1 1 1 1
          1 1 1 1 1 1 1 1 1 1 1 1
          1 1 1 1 1 1 1 1 1 1 1 1
          1 1 1 1 1 1 1 1 1 1 1 1
          1 1 1 1 1 1 1 1 1 1 1 1
          1 1 1 1 1 1 1 1 1 1 1 1
          1 1 1 1 1 1 1 1 1 1 1 1
          1 1 1 1 1 1 1 1 1 1 1 1
          1 1 1 1 1 1 1 1 1 1 1 1
          1 1 1 1 1 1 1 1 1 1 1 1
          1 1 1 1 1 1 1 1 1 1 1 1
          1 1 1 1 1 1 1 1 1 1 1 1
          1 1 1 1 1 1 1 1 1 1 1 1
          1 1 1 1 1 1 1 1 1 1 1 1
          1 1 1 1 1 1 1 1 1 1 1 1
          1 1 1 1 1 1 1 1 1 1 1 1
          1 1 1 1 1 1 1 1 1 1 1 1
          1 1 1 1 1 1 1 1 1 1 1 1
          1 1 1 1 1 1 1 1 1 1 1 1
          1 1 1 1 1 1 1 1 1 1 1 1
          1 1 1 1 1 1 1 1 1 1 1 1
          1 1 1 1 1 1 1 1 1 1 1 1
          1 1 1 1 1 1 1 1 1 1 1 1
          1 1 1 1 1 1 1 1 1 1 1 1
          1 1 1 1 1 1 1 1 1 1 1 1
          1 1 1 1 1 1 1 1 1 1 1 1
          1 1 1 1 1 1 1 1 1 1 1 1
          1 1 1 1 1 1 1 1 1 1 1 1
          1 1 1 1 1 1 1 1 1 1 1 1
          1 1 1 1 1 1 1 1 1 1 1 1
          1 1 1 1 1 1 1 1 1 1 1 1
          1 1 1 1 1 1 1 1 1 1 1 1
          1 1 1 1 1 1 1 1 1 1 1 1
          1 1 1 1 1 1 1 1 1 1 1 1
          1 1 1 1 1 1 1 1 1 1 1 1
          1 1 1 1 1 1 1 1 1 1 1 1
          1 1 1 1 1 1 1 1 1 1 1 1
          1 1 1 1 1 1 1 1 1 1 1 1
          1 1 1 1 1 1 1 1 1 1 1 1
          1 1 1 1 1 1 1 1 1 1 1 1
          1 1 1 1 1 1 1 1 1 1 1 1
          1 1 1 1 1 1 1 1 1 1 1 1
          1 1 1 1 1 1 1 1 1 1 1 1
          1 1 1 1 1 1 1 1 1 1 1 1
          1 1 1 1 1 1 1 1 1 1 1 1
          1 1 1 1 1 1 1 1 1 1 1 1
          1 1 1 1 1 1 1 1 1 1 1 1
          1 1 1 1 1 1 1 1 1 1 1 1
          1 1 1 1 1 1 1 1 1 1 1 1
          1 1 1 1 1 1 1 1 1 1 1 1
          1 1 1 1 1 1 1 1 1 1 1 1
          1 1 1 1 1 1 1 1 1 1 1 1
          1 1 1 1 1 1 1 1 1 1 1 1
          1 1 1 1 1 1 1 1 1 1 1 1
          1 1 1 1 1 1 1 1 1 1 1 1
          1 1 1 1 1 1 1 1 1 1 1 1
          1 1 1 1 1 1 1 1 1 1 1 1
          1 1 1 1 1 1 1 1 1 1 1 1
          1 1 1 1 1 1 1 1 1 1 1 1
          1 1 1 1 1 1 1 1 1 1 1 1
          1 1 1 1 1 1 1 1 1 1 1 1
          1 1 1 1 1 1 1 1 1 1 1 1
          1 1 1 1 1 1 1 1 1 1 1 1
          1 1 1 1 1 1 1 1 1 1 1 1
          1 1 1 1 1 1 1 1 1 1 1 1
          1 1 1 1 1 1 1 1 1 1 1 1
          1 1 1 1 1 1 1 1 1 1 1 1
          1 1 1 1 1 1 1 1 1 1 1 1
          1 1 1 1 1 1 1 1 1 1 1 1
          1 1 1 1 1 1 1 1 1 1 1 1
          1 1 1 1 1 1 1 1 1 1 1 1
          1 1 1 1 1 1 1 1 1 1 1 1
          1 1 1 1 1 1 1 1 1 1 1 1
          1 1 1 1 1 1 1 1 1 1 1 1
          1 1 1 1 1 1 1 1 1 1 1 1
          1 1 1 1 1 1 1 1 1 1 1 1
          1 1 1 1 1 1 1 1 1 1 1 1
          1 1 1 1 1 1 1 1 1 1 1 1
          1 1 1 1 1 1 1 1 1 1 1 1
          1 1 1 1 1 1 1 1 1 1 1 1
          1 1 1 1 1 1 1 1 1 1 1 1
          1 1 1 1 1 1 1 1 1 1 1 1
          1 1 1 1 1 1 1 1 1 1 1 1
          1 1 1 1 1 1 1 1 1 1 1 1
          1 1 1 1 1 1 1 1 1 1 1 1
          1 1 1 1 1 1 1 1 1 1 1 1
          1 1 1 1 1 1 1 1 1 1 1 1
          1 1 1 1 1 1 1 1 1 1 1 1
          1 1 1 1 1 1 1 1 1 1 1 1
          1 1 1 1 1 1 1 1 1 1 1 1
          1 1 1 1 1 1 1 1 1 1 1 1
          1 1 1 1 1 1 1 1 1 1 1 1
          1 1 1 1 1 1 1 1 1 1 1 1
          1 1 1 1 1 1 1 1 1 1 1 1
          1 1 1 1 1 1 1 1 1 1 1 1
          1 1 1 1 1 1 1 1 1 1 1 1
          1 1 1 1 1 1 1 1 1 1 1 1
          1 1 1 1 1 1 1 1 1 1 1 1
          1 1 1 1 1 1 1 1 1 1 1 1
          1 1 1 1 1 1 1 1 1 1 1 1
          1 1 1 1 1 1 1 1 1 1 1 1
          1 1 1 1 1 1 1 1 1 1 1 1
          1 1 1 1 1 1 1 1 1 1 1 1
          1 1 1 1 1 1 1 1 1 1 1 1
          1 1 1 1 1 1 1 1 1 1 1 1
          1 1 1 1 1 1 1 1 1 1 1 1
          1 1 1 1 1 1 1 1 1 1 1 1
          1 1 1 1 1 1 1 1 1 1 1 1
          1 1 1 1 1 1 1 1 1 1 1 1
          1 1 1 1 1 1 1 1 1 1 1 1
          1 1 1 1 1 1 1 1 1 1 1 1
          1 1 1 1 1 1 1 1 1 1 1 1
          1 1 1 1 1 1 1 1 1 1 1 1
          1 1 1 1 1 1 1 1 1 1 1 1
          1 1 1 1 1 1 1 1 1 1 1 1
          1 1 1 1 1 1 1 1 1 1 1 1
          1 1 1 1 1 1 1 1 1 1 1 1
          1 1 1 1 1 1 1 1 1 1 1 1
          1 1 1 1 1 1 1 1 1 1 1 1
          1 1 1 1 1 1 1 1 1 1 1 1
          1 1 1 1 1 1 1 1 1 1 1 1
          1 1 1 1 1 1 1 1 1 1 1 1
          1 1 1 1 1 1 1 1 1 1 1 1
          1 1 1 1 1 1 1 1 1 1 1 1
          1 1 1 1 1 1 1 1 1 1 1 1
          1 1 1 1 1 1 1 1 1 1 1 1
          1 1 1 1 1 1 1 1 1 1 1 1
          1 1 1 1 1 1 1 1 1 1 1 1
          1 1 1 1 1 1 1 1 1 1 1 1
          1 1 1 1 1 1 1 1 1 1 1 1
          1 1 1 1 1 1 1 1 1 1 1 1
          1 1 1 1 1 1 1 1 1 1 1 1
          1 1 1 1 1 1 1 1 1 1 1 1
          1 1 1 1 1 1 1 1 1 1 1 1
          1 1 1 1 1 1 1 1 1 1 1 1
          1 1 1 1 1 1 1 1 1 1 1 1
          1 1 1 1 1 1 1 1 1 1 1 1
          1 1 1 1 1 1 1 1 1 1 1 1
          1 1 1 1 1 1 1 1 1 1 1 1
          1
        </DataArray>
        <DataArray type="Float32" Name="pressureExact" NumberOfComponents="1" format="ascii">
          0.024375 0.024375 0 0 0.0475 0.024375 0.0475 0.069375 0.069375 0.0475 0.069375 0
          0.024375 0 0.0475 0.069375 0.09 0.09 0.109375 0.109375 0.09 0.109375 0.1275 0.1275
          0.144375 0.1275 0.09 0.109375 0.1275 0.144375 0.144375 0 0.024375 0.0475 0.024375 0
          0.0475 0.069375 0.069375 0.024375 0 0.0475 0.024375 0.069375 0.0475 0.069375 0.09 0.109375
          0.09 0.109375 0.1275 0.144375 0.1275 0.144375 0.09 0.109375 0.09 0.109375 0.1275 0.144375
          0.1275 0.144375 0.16 0.16 0.16 0.174375 0.174375 0.1875 0.1875 0.174375 0.1875 0.16
          0.174375 0.1875 0.199375 0.199375 0.21 0.199375 0.21 0.219375 0.219375 0.21 0.219375 0.199375
          0.21 0.219375 0.16 0.16 0.174375 0.1875 0.174375 0.1875 0.16 0.144375 0.16 0.174375
          0.1875 0.174375 0.1875 0.199375 0.21 0.199375 0.21 0.219375 0.219375 0.199375 0.21 0.199375
          0.219375 0.21 0.219375 0 0.024375 0 0.0475 0.069375 0 0.024375 0.0475 0.024375
          0 0.0475 0.069375 0.069375 0.09 0.109375 0.1275 0.144375 0.09 0.109375 0.09 0.109375
          0.1275 0.144375 0.1275 0.144375 0.024375 0 0.0475 0.024375 0.069375 0.0475 0.069375 0
          0.024375 0 0.0475 0.069375 0.09 0.109375 0.09 0.109375 0.1275 0.144375 0.1275 0.09
          0.109375 0.1275 0.144375 0.144375 0.16 0.174375 0.1875 0.16 0.16 0.174375 0.1875 0.174375
          0.1875 0.199375 0.21 0.219375 0.199375 0.21 0.199375 0.21 0.219375 0.219375 0.16 0.16
          0.174375 0.1875 0.174375 0.1875 0.16 0.174375 0.1875 0.199375 0.21 0.199375 0.219375 0.21
          0.219375 0.199375 0.21 0.219375 0.2275 0.2275 0.234375 0.234375 0.2275 0.234375 0.24 0.24
          0.244375 0.24 0.2275 0.234375 0.24 0.244375 0.244375 0.244375 0.2475 0.2475 0.2475 0.249375
          0.249375 0.25 0.25 0.249375 0.25 0.2475 0.249375 0.25 0.2275 0.234375 0.2275 0.234375
          0.24 0.244375 0.24 0.244375 0.2275 0.234375 0.2275 0.234375 0.24 0.244375 0.24 0.2475
          0.2475 0.249375 0.25 0.249375 0.25 0.2475 0.244375 0.2475 0.249375 0.25 0.249375 0.25
          0.249375 0.249375 0.2475 0.249375 0.2475 0.244375 0.244375 0.2475 0.244375 0.249375 0.2475 0.244375
          0.24 0.24 0.234375 0.234375 0.24 0.234375 0.2275 0.2275 0.219375 0.2275 0.24 0.234375
          0.2275 0.219375 0.219375 0.249375 0.2475 0.249375 0.2475 0.244375 0.244375 0.249375 0.2475 0.249375
          0.244375 0.2475 0.244375 0.24 0.234375 0.24 0.234375 0.2275 0.219375 0.2275 0.219375 0.24
          0.234375 0.24 0.234375 0.2275 0.219375 0.2275 0.2275 0.234375 0.24 0.244375 0.2275 0.234375
          0.2275 0.234375 0.24 0.244375 0.24 0.244375 0.2475 0.249375 0.25 0.2475 0.2475 0.249375
          0.25 0.249375 0.25 0.2275 0.234375 0.2275 0.234375 0.24 0.244375 0.24 0.2275 0.234375
          0.24 0.244375 0.244375 0.2475 0.2475 0.249375 0.25 0.249375 0.25 0.2475 0.249375 0.25
          0.249375 0.2475 0.244375 0.249375 0.2475 0.249375 0.2475 0.244375 0.244375 0.24 0.234375 0.2275
          0.219375 0.219375 0.24 0.234375 0.24 0.234375 0.2275 0.219375 0.2275 0.219375 0.249375 0.2475
          0.249375 0.244375 0.2475 0.244375 0.249375 0.2475 0.244375 0.24 0.234375 0.24 0.234375 0.2275
          0.219375 0.2275 0.24 0.234375 0.2275 0.219375 0.219375 0 0.024375 0.0475 0.024375 0
          0.0475 0.069375 0.069375 0.024375 0 0.0475 0.024375 0.069375 0.0475 0.069375 0.09 0.109375
          0.09 0.109375 0.1275 0.144375 0.1275 0.144375 0.09 0.109375 0.09 0.109375 0.1275 0.144375
          0.1275 0 0.024375 0 0.0475 0.069375 0 0.024375 0.0475 0.024375 0 0.0475
          0.069375 0.069375 0.09 0.109375 0.1275 0.144375 0.144375 0.09 0.109375 0.09 0.109375 0.1275
          0.144375 0.1275 0.144375 0.16 0.16 0.174375 0.1875 0.174375 0.1875 0.16 0.16 0.174375
          0.1875 0.174375 0.1875 0.199375 0.21 0.199375 0.21 0.219375 0.219375 0.199375 0.21 0.199375
          0.219375 0.21 0.219375 0.16 0.174375 0.1875 0.16 0.16 0.174375 0.1875 0.174375 0.1875
          0.199375 0.21 0.219375 0.199375 0.21 0.199375 0.21 0.219375 0.219375 0.024375 0 0.0475
          0.024375 0.069375 0.0475 0.069375 0 0.024375 0 0.0475 0.069375 0.09 0.109375 0.09
          0.109375 0.1275 0.144375 0.1275 0.09 0.109375 0.1275 0.144375 0.144375 0 0.024375 0.0475
          0.024375 0 0.0475 0.069375 0.069375 0.024375 0 0.0475 0.024375 0.069375 0.0475 0.069375
          0.09 0.109375 0.09 0.109375 0.1275 0.144375 0.1275 0.144375 0.09 0.109375 0.09 0.109375
          0.1275 0.144375 0.1275 0.16 0.16 0.174375 0.1875 0.174375 0.1875 0.16 0.174375 0.1875
          0.199375 0.21 0.199375 0.219375 0.21 0.219375 0.199375 0.21 0.219375 0.16 0.16 0.174375
          0.1875 0.174375 0.1875 0.16 0.144375 0.16 0.174375 0.1875 0.174375 0.1875 0.199375 0.21
          0.199375 0.21 0.219375 0.219375 0.199375 0.21 0.199375 0.219375 0.21 0.219375 0.2275 0.234375
          0.2275 0.234375 0.24 0.244375 0.24 0.244375 0.2275 0.234375 0.2275 0.234375 0.24 0.244375
          0.24 0.2475 0.2475 0.249375 0.25 0.249375 0.25 0.2475 0.244375 0.2475 0.249375 0.25
          0.249375 0.25 0.2275 0.234375 0.24 0.244375 0.2275 0.234375 0.2275 0.234375 0.24 0.244375
          0.24 0.244375 0.2475 0.249375 0.25 0.2475 0.2475 0.249375 0.25 0.249375 0.25 0.249375
          0.2475 0.249375 0.2475 0.244375 0.244375 0.249375 0.2475 0.249375 0.244375 0.2475 0.244375 0.24
          0.234375 0.24 0.234375 0.2275 0.219375 0.2275 0.219375 0.24 0.234375 0.24 0.234375 0.2275
          0.219375 0.2275 0.249375 0.2475 0.244375 0.249375 0.2475 0.249375 0.2475 0.244375 0.244375 0.24
          0.234375 0.2275 0.219375 0.219375 0.24 0.234375 0.24 0.234375 0.2275 0.219375 0.2275 0.219375
          0.2275 0.234375 0.2275 0.234375 0.24 0.244375 0.24 0.2275 0.234375 0.24 0.244375 0.244375
          0.2475 0.2475 0.249375 0.25 0.249375 0.25 0.2475 0.249375 0.25 0.2275 0.234375 0.2275
          0.234375 0.24 0.244375 0.24 0.244375 0.2275 0.234375 0.2275 0.234375 0.24 0.244375 0.24
          0.2475 0.2475 0.249375 0.25 0.249375 0.25 0.2475 0.244375 0.2475 0.249375 0.25 0.249375
          0.25 0.249375 0.2475 0.249375 0.244375 0.2475 0.244375 0.249375 0.2475 0.244375 0.24 0.234375
          0.24 0.234375 0.2275 0.219375 0.2275 0.24 0.234375 0.2275 0.219375 0.219375 0.249375 0.2475
          0.249375 0.2475 0.244375 0.244375 0.249375 0.2475 0.249375 0.244375 0.2475 0.244375 0.24 0.234375
          0.24 0.234375 0.2275 0.219375 0.2275 0.219375 0.24 0.234375 0.24 0.234375 0.2275 0.219375
          0.2275 0.219375 0.21 0.21 0.21 0.199375 0.199375 0.1875 0.1875 0.199375 0.1875 0.21
          0.199375 0.1875 0.174375 0.174375 0.16 0.174375 0.16 0.144375 0.144375 0.16 0.144375 0.174375
          0.16 0.144375 0.21 0.21 0.199375 0.1875 0.199375 0.1875 0.21 0.21 0.199375 0.1875
          0.199375 0.1875 0.174375 0.16 0.174375 0.16 0.144375 0.144375 0.174375 0.16 0.174375 0.144375
          0.16 0.144375 0.1275 0.1275 0.109375 0.109375 0.1275 0.109375 0.09 0.09 0.069375 0.09
          0.1275 0.109375 0.09 0.069375 0.069375 0.069375 0.0475 0.0475 0.0475 0.024375 0.024375 0
          0 0.024375 0 0.0475 0.024375 0 0.1275 0.109375 0.1275 0.109375 0.09 0.069375
          0.09 0.069375 0.1275 0.109375 0.1275 0.109375 0.09 0.069375 0.09 0.0475 0.0475 0.024375
          0 0.024375 0 0.0475 0.069375 0.0475 0.024375 0 0.024375 0 0.21 0.199375
          0.1875 0.21 0.21 0.199375 0.1875 0.199375 0.1875 0.174375 0.16 0.144375 0.174375 0.16
          0.174375 0.16 0.144375 0.144375 0.21 0.21 0.199375 0.1875 0.199375 0.1875 0.21 0.199375
          0.1875 0.174375 0.16 0.174375 0.144375 0.16 0.144375 0.174375 0.16 0.144375 0.1275 0.109375
          0.09 0.069375 0.1275 0.109375 0.1275 0.109375 0.09 0.069375 0.09 0.069375 0.0475 0.024375
          0 0.0475 0.0475 0.024375 0 0.024375 0 0.1275 0.109375 0.1275 0.109375 0.09