<?xml version="1.0"?>
<VTKFile type="UnstructuredGrid" version="0.1" byte_order="LittleEndian">
  <UnstructuredGrid>
    <Piece NumberOfCells="2204" NumberOfPoints="2924">
      <CellData Scalars="wetting pressure">
        <DataArray type="Float32" Name="wetting pressure" NumberOfComponents="1" format="ascii">
          265460 270498 271916 270839 267773 262901 256174 247334 235838 220590 265464 270512
          271942 270881 267836 262994 256298 247469 235943 220629 265472 270535 271984 270948
          267933 263147 256524 247737 236158 220709 265479 270558 272027 271013 267993 263271
          256778 248124 236477 220827 265483 270573 272056 271067 271097 269200 269186 271117
          266722 264757 264723 266713 266809 264052 263996 266775 262382 259671 259582 262331
          260852 257171 257275 260838 256575 252988 253045 256511 252863 247705 247895 253073
          248836 243830 244077 249166 236826 220950 265483 270573 272056 271068 271117 269186
          269201 271097 266714 264723 264756 266721 266775 263996 264053 266810 262331 259582
          259671 262380 260839 257276 257173 260853 256511 253046 252988 256575 253074 247897
          247709 252865 249166 244076 243850 248837 236833 220950 265479 270558 272028 271014
          267993 263274 256785 248128 236480 220828 265472 270535 271985 270948 267933 263148
          256527 247740 236159 220710 265464 270512 271942 270881 267837 262995 256300 247470
          235944 220630 265460 270498 271916 270839 267774 262902 256175 247335 235839 220590
          261907 264297 264576 262978 259710 254855 248358 240048 229678 217053 261912 264314
          264609 263032 259793 254979 248523 240224 229814 217103 261921 264341 264662 263122
          259932 255205 248855 240605 230114 217212 261930 264370 264718 263223 262794 260856
          260860 262809 259201 257266 257294 259238 258516 255799 255854 258533 254966 252332
          252447 255021 252646 249045 249256 252771 249303 245801 246142 249532 241252 230644
          217398 261935 264387 264748 263261 262779 260782 260734 262762 259240 257231 257219
          259240 258429 255763 255732 258386 254949 252423 252522 255007 252755 249388 249402
          252757 249583 246372 246491 249703 245472 240789 241098 245567 242792 238546 238694
          242841 235388 229123 229466 235879 233308 227134 227829 234082 217664 261935 264387
          264748 263261 262763 260734 260782 262779 259241 257219 257231 259239 258386 255732
          255764 258429 255007 252522 252424 254949 252757 249402 249389 252756 249703 246491
          246373 249584 245568 241101 240800 245475 242842 238697 238556 242792 235884 229468
          229128 235384 234084 227828 227168 233311 217659 261930 264370 264718 263224 262811
          260861 260857 262794 259238 257294 257265 259196 258536 255856 255799 258517 255022
          252449 252333 254965 252774 249257 249050 252646 249534 246146 245816 249303 241259
          230646 217397 261921 264342 264662 263123 259933 255205 248855 240607 230115 217212
          261912 264314 264609 263032 259794 254980 248524 240225 229815 217103 261907 264297
          264577 262979 259711 254855 248359 240048 229679 217053 260151 260189 259083 256735
          253152 248326 242190 234644 225640 215322 260157 260211 259127 256809 253271 248506
          242427 234889 225824 215389 260169 260247 259199 256937 253481 248858 242940 235446
          226254 215540 260180 260285 259275 257079 256032 254081 254145 256093 253183 251245
          251359 253278 251822 249294 249468 251899 249049 246647 246910 249191 246432 243123
          243661 246878 243933 240810 241556 244462 239353 235095 235870 240008 237192 233061
          233987 237998 227110 215813 260187 260308 259320 257153 256119 254115 254168 256143
          253334 251384 251487 253383 251954 249611 249823 252124 249370 247194 247443 249589
          246990 243985 244162 247186 244732 241921 242122 244966 240615 236951 236936 240739
          238682 235168 235313 238889 231738 225789 226692 232634 230409 224615 225592 231300
          216208 260187 260308 259320 257153 256143 254168 254115 256118 253383 251487 251384
          253333 252124 249823 249612 251955 249589 247443 247194 249370 247186 244163 243986
          246991 244966 242122 241922 244732 240740 236937 236956 240618 238890 235314 235171
          238684 232634 226691 225825 231737 231301 225588 224646 230415 216207 260180 260285
          259275 257079 256094 254146 254082 256027 253278 251359 251244 253176 251900 249470
          249298 251822 249191 246911 246647 249046 246882 243664 243131 246435 244462 241559
          240816 243930 240014 235867 235098 239351 238000 233985 233084 237195 227102 215811
          260169 260248 259199 256937 253481 248859 242941 235447 226253 215540 260158 260211
          259127 256810 253272 248507 242428 234889 225824 215389 260151 260189 259084 256736
          253153 248327 242191 234645 225640 215322 259029 257202 254791 251653 247720 242929
          237197 230454 222731 214229 259038 257231 254849 251754 247885 243178 237514 230768
          222958 214309 259052 257280 254947 251932 248194 243696 238235 231493 223489 214492
          259067 257330 255052 252133 250617 248676 248837 250750 248244 246322 246527 248412
          246550 244259 244648 246792 244262 242077 242547 244578 241681 238740 239773 242328
          239615 236817 237909 240338 235272 231355 232401 236250 233499 229748 230874 234586
          224533 214813 259077 257362 255117 252258 250835 248927 249068 250903 248525 246667
          246824 248608 247045 244999 245251 247278 244871 242924 243173 245108 242674 240030
          240232 242912 240716 238215 238422 240952 236986 233713 233833 237190 235371 232309
          232414 235563 229130 223607 224580 230084 227821 222556 223471 228863 215243 259077
          257362 255117 252258 250904 249068 248926 250834 248609 246824 246667 248524 247279
          245252 245000 247045 245108 243173 242925 244871 242913 240233 240032 242676 240953
          238422 238218 240717 237191 233834 233717 236988 235564 232415 232314 235374 230083
          224576 223636 229133 228864 223464 222582 227831 215242 259067 257330 255052 252133
          250750 248837 248678 250611 248412 246527 246318 248237 246792 244650 244265 246550
          244577 242548 242076 244258 242330 239777 238746 241683 240339 237913 236822 239612
          236252 232404 231381 235277 234588 230870 229770 233505 224529 214812 259052 257280
          254947 251932 248194 243697 238236 231494 223488 214492 259038 257232 254849 251754
          247886 243179 237515 230768 222959 214309 259029 257202 254792 251653 247720 242930
          237198 230455 222732 214229 258159 254771 251169 247265 242980 238225 232897 226933
          220375 213387 258171 254809 251244 247396 243194 238540 233283 227297 220630 213476
          258189 254871 251371 247629 243603 239206 234159 228129 221205 213671 258209 254937
          251507 247891 246026 244094 244348 246228 243881 241954 242241 244109 242084 239979
          240525 242470 239983 237951 238536 240412 237625 234958 236145 238424 235690 233137
          234386 236534 231798 228254 229394 232945 230113 226730 227813 231275 222261 213991
          258221 254978 251594 248063 246363 244523 244691 246457 244263 242438 242613 244365
          242784 240915 241160 243021 240738 238933 239176 240975 238812 236453 236651 239044
          236924 234693 234882 237154 233797 230934 231051 233967 232199 229153 229564 232341
          226505 221582 222366 227777 225036 220486 221129 226336 214366 258221 254978 251594
          248063 246457 244691 244523 246361 244366 242613 242438 244262 243021 241160 240916
          242785 240975 239176 238934 240738 239045 236652 236455 238813 237154 234882 234694
          236925 233968 231051 230935 233799 232342 229562 229136 232201 227775 222359 221607
          226506 226339 221122 220512 225047 214366 258209 254937 251507 247892 246227 244347
          244096 246020 244110 242240 241950 243874 242471 240527 239985 242086 240411 238537
          237950 239979 238426 236148 234962 237628 236536 234389 233141 235688 232947 229398
          228276 231803 231275 227803 226748 230120 222258 213990 258190 254872 251371 247629
          243604 239207 234160 228131 221205 213670 258171 254809 251244 247397 243195 238541
          233284 227299 220631 213476 258159 254772 251170 247266 242981 238226 232898 226934
          220376 213387 257363 252517 247777 243127 238499 233779 228848 223641 218196 212618
          257377 252564 247870 243290 238762 234155 229290 224043 218469 212712 257401 252643
          248029 243579 239263 234940 230271 224930 219054 212908 257425 252724 248198 243901
          241783 239832 240155 242038 239656 237699 238045 239931 237889 235917 236543 238358
          235783 233868 234518 236275 233746 231306 232619 234637 231777 229433 230781 232698
          228436 225263 226284 229579 226711 223722 224714 227838 220026 213203 257440 252776
          248307 244113 242207 240370 240551 242315 240114 238275 238461 240230 238695 236947
          237189 238933 236622 234928 235172 236863 235025 232908 233090 235253 233088 231077
          231260 233317 230528 227450 228034 230679 228813 225830 226458 228977 223588 219492
          219995 224446 222179 218422 218849 222920 213498 257440 252776 248307 244113 242316
          240551 240370 242204 240231 238461 238275 240113 238934 237190 236947 238695 236864
          235172 234928 236622 235253 233091 232909 235026 233317 231260 231077 233089 230679
          228034 227448 230530 228977 226458 225831 228813 224446 219988 219517 223594 222921
          218844 218449 222193 213498 257425 252724 248198 243901 242037 240155 239834 241777
          239932 238044 237695 239649 238358 236545 235921 237892 236275 234518 233866 235779
          234639 232621 231307 233749 232699 230781 229435 231774 229579 226283 225281 228439
          227836 224706 223741 226717 220023 213203 257401 252643 248029 243580 239264 234941
          230273 224931 219054 212908 257377 252565 247871 243291 238763 234157 229293 224046
          218470 212712 257363 252518 247777 243128 238500 233781 228851 223643 218198 212618
          256502 250111 244200 238807 233846 229170 224634 220185 215880 211789 256519 250170
          244316 239010 234169 229619 225144 220635 216177 211890 256548 250267 244513 239365
          234777 230533 226228 221583 216787 212093 256578 250368 244721 239752 237482 235501
          235876 237783 235192 233214 233611 235516 233609 231748 232431 234132 231356 229554
          230260 231902 229738 227484 228786 230699 227618 225436 226632 228609 224946 222193
          223149 226042 223090 220502 221438 224163 217719 212377 256597 250432 244855 240009
          237980 236123 236316 238103 235730 233878 234080 235864 234492 232851 233099 234737
          232278 230694 230948 232530 231091 229178 229372 231324 229014 227198 227413 229255
          227053 224211 224878 227231 225226 222519 223252 225425 220834 217444 217826 221488
          219406 216282 216603 220018 212631 256597 250432 244855 240009 238104 236317 236123
          237978 235865 234082 233878 235730 234738 233099 232851 234492 232532 230948 230693
          232277 231324 229371 229176 231090 229254 227411 227194 229011 227231 224878 224211
          227053 225423 223250 222519 225225 221488 217821 217469 220838 220023 216606 216291
          219414 212630 256578 250368 244721 239753 237782 235876 235503 237476 235516 233610
          233210 235186 234133 232431 231751 233611 231900 230259 229551 231351 230699 228770
          227478 229740 228607 226601 225432 227614 226038 223149 222210 224946 224157 221432
          220506 223087 217716 212377 256548 250267 244514 239366 234778 230534 226230 221585
          216789 212094 256519 250170 244317 239011 234171 229622 225147 220639 216180 211891
          256502 250112 244201 238808 233848 229173 224639 220189 215883 211790 255393 247169
          239989 233852 228588 223972 219827 216136 213054 210722 255415 247241 240134 234110
          229004 224544 220457 216679 213402 210839 255450 247361 240381 234562 229780 225678
          221750 217797 214096 211067 255487 247484 240639 235044 232764 230786 231221 233123
          230144 228213 228681 230543 228974 227236 227985 229559 226471 224810 225595 227090
          225383 223296 224495 226412 223035 221022 222264 224103 219512 215075 211369 255510
          247563 240807 235369 233360 231515 231732 233505 230810 229011 229247 230974 229959
          228440 228702 230222 227522 226077 226355 227802 226843 225135 225367 227095 224565
          222970 223213 224832 223323 220735 221595 223545 221315 218768 219795 221562 216065
          211632 255510 247563 240807 235370 233506 231739 231515 233358 230975 229257 229011
          230811 230226 228702 228436 229957 227805 226350 226069 227516 227092 225362 225127
          226836 224824 223200 222947 224552 223535 221580 220744 223315 221520 219736 218808
          221264 216087 211636 255487 247485 240640 235044 233121 231219 230789 232759 230541
          228674 228208 230141 229555 227981 227239 228974 227080 225585 224808 226462 226406
          224485 223305 225385 224090 222267 221046 223035 219524 215087 211373 255451 247361
          240382 234563 229781 225680 221757 217807 214104 211070 255415 247242 240136 234112
          229006 224548 220464 216688 213408 210841 255394 247170 239991 233854 228591 223977
          219834 216144 213059 210724 253652 243110 234591 227767 222265 217735 213937 210937
          209130 209027 253678 243196 234771 228100 222832 218535 214799 211648 209566 209170
          253720 243341 235077 228690 223931 220145 216600 213162 210449 209449 253763 243489
          235399 229325 227291 225435 225967 227750 224188 222490 223078 224723 223798 222226
          223081 224478 221032 219544 220445 221713 220541 218638 219945 221669 217949 216136
          217537 219105 215178 211692 209812 253790 243583 235607 229790 228060 226353 226615
          228246 225086 223544 223856 225307 224964 223609 223912 225277 222300 221048 221390
          222657 222176 220666 220931 222465 219680 218217 218515 220007 219108 216676 217475
          219413 216699 214401 215094 217022 212702 210101 253790 243583 235608 229789 228245
          226617 226349 228058 225303 223851 223541 225089 225272 223902 223596 224954 222652
          221383 221039 222292 222453 220917 220651 222160 219998 218506 218217 219672 219368
          217721 216767 219088 217002 215147 214449 216704 212736 210107 253763 243490 235400
          229325 227744 225960 225437 227289 224718 223073 222483 224191 224468 223069 222231
          223795 221703 220438 219546 221011 221658 219969 218674 220551 219099 217654 216186
          217960 215220 211720 209817 253720 243342 235079 228694 223934 220152 216616 213188
          210466 209454 253678 243197 234773 228102 222835 218542 214813 211666 209578 209174
          253652 243111 234593 227769 222268 217742 213948 210949 209139 209030 250109 236943
          227320 220028 214403 209969 206387 203833 203068 205520 250138 237039 227527 220431
          215161 211158 207618 204749 203599 205688 250184 237201 227880 221148 219259 217363
          218343 220038 215251 213676 214815 216101 215640 214056 215396 216832 212496 211244
          212413 213623 212395 210586 212134 213812 209851 207487 209569 211087 208884 207418
          208673 210340 205397 203762 205322 207444 204732 206022 250232 237367 228257 221991
          220736 219252 220014 221391 216924 215792 216812 217910 217918 216659 217668 218841
          214819 213695 214871 215932 215225 213507 214878 216397 212327 210819 212001 213558
          211706 209934 211074 213001 209278 207398 208690 210304 208255 207349 208133 209282
          205086 203991 204909 206515 206451 250260 237465 228458 225729 223433 223633 225895
          221674 219507 219684 221814 221819 220610 220986 222065 218362 217567 217968 218667
          219582 218440 218847 220002 216776 215737 216181 217217 217111 215620 215995 217502
          214428 212894 213325 214862 214083 212032 212818 214434 211170 209392 209794 211623
          210088 208674 209028 210565 207765 205764 206299 208184 206834 250260 237466 228461
          225896 223636 223430 225730 221815 219685 219508 221676 222064 220978 220608 221817
          218667 217970 217567 218363 220003 218845 218435 219580 217216 216174 215731 216774
          217494 215987 215620 217107 214854 213321 212904 214426 214394 212716 212054 214078
          211629 209823 209429 211197 210581 209040 208706 210117 208190 206319 205798 207788
          206835 250232 237368 228260 221993 221384 220014 219254 220735 217911 216813 215796
          216927 218842 217666 216658 217925 215932 214872 213704 214824 216396 214883 213542
          215241 213568 212035 210861 212345 213039 211112 209987 211752 210347 208738 207531
          209328 209323 208166 207370 208288 206567 204940 204018 205147 206445 250184 237202
          227884 221159 220037 218351 217371 219262 216106 214822 213681 215254 216847 215406
          214064 215651 213631 212421 211250 212502 213829 212161 210603 212409 211087 209614
          207525 209859 210381 208715 207447 208906 207493 205386 203800 205434 204754 206027
          250138 237040 227529 220434 215156 211163 207643 204779 203615 205692 250110 236944
          227322 220030 214405 209976 206402 203850 203080 205523
        </DataArray>
        <DataArray type="Float32" Name="nonwetting pressure" NumberOfComponents="1" format="ascii">
          265460 270498 271916 270839 267773 262901 256174 247334 235838 220590 265464 270512
          271942 270881 267836 262994 256298 247469 235943 220629 265472 270535 271984 270948
          267933 263147 256524 247737 236158 220709 265479 270558 272027 271013 267993 263271
          256778 248124 236477 220827 265483 270573 272056 271067 271097 269200 269379 271117
          266722 264771 265062 266713 266816 264052 264092 267019 262417 259691 259833 262780
          260852 257171 257293 260879 256575 252988 253120 256648 252863 247705 247895 253073
          248836 243830 244077 249189 236826 220950 265483 270573 272056 271068 271117 269379
          269201 271097 266714 265062 264771 266721 267019 264092 264053 266816 262780 259833
          259691 262415 260879 257293 257173 260853 256648 253120 252988 256575 253074 247897
          247709 252865 249189 244076 243850 248837 236833 220950 265479 270558 272028 271014
          267993 263274 256785 248128 236480 220828 265472 270535 271985 270948 267933 263148
          256527 247740 236159 220710 265464 270512 271942 270881 267837 262995 256300 247470
          235944 220630 265460 270498 271916 270839 267774 262902 256175 247335 235839 220590
          261907 264297 264576 262978 259710 254855 248358 240048 229678 217053 261912 264314
          264609 263032 259793 254979 248523 240224 229814 217103 261921 264341 264662 263122
          259932 255205 248855 240605 230114 217212 261930 264370 264718 263223 262794 260856
          260860 262809 259201 257266 257294 259238 258516 255799 255854 258533 254966 252332
          252447 255021 252646 249045 249256 252771 249303 245801 246142 249532 241252 230644
          217398 261935 264387 264748 263261 262779 260820 261186 262762 259240 257306 257763
          259240 258519 255839 256150 259006 255124 252594 253063 255748 252803 249417 249581
          253033 249721 246473 246775 250095 245472 240789 241159 245670 242851 238546 238843
          243046 235388 229123 229466 235879 233308 227134 227829 234155 217664 261935 264387
          264748 263261 262763 261186 260821 262779 259241 257763 257306 259239 259006 256151
          255839 258519 255748 253063 252595 255125 253033 249581 249418 252804 250095 246775
          246474 249722 245671 241162 240800 245475 243046 238846 238556 242850 235884 229468
          229128 235384 234156 227828 227168 233311 217659 261930 264370 264718 263224 262811
          260861 260857 262794 259238 257294 257265 259196 258536 255856 255799 258517 255022
          252449 252333 254965 252774 249257 249050 252646 249534 246146 245816 249303 241259
          230646 217397 261921 264342 264662 263123 259933 255205 248855 240607 230115 217212
          261912 264314 264609 263032 259794 254980 248524 240225 229815 217103 261907 264297
          264577 262979 259711 254855 248359 240048 229679 217053 260151 260189 259083 256735
          253152 248326 242190 234644 225640 215322 260157 260211 259127 256809 253271 248506
          242427 234889 225824 215389 260169 260247 259199 256937 253481 248858 242940 235446
          226254 215540 260180 260285 259275 257079 256032 254081 254145 256093 253183 251245
          251359 253278 251822 249294 249498 251916 249049 246647 246983 249236 246432 243123
          243661 246891 243933 240810 241556 244519 239353 235095 235870 240008 237192 233061
          233987 237998 227110 215813 260187 260308 259320 257153 256119 254237 254776 256143
          253334 251550 252135 253383 252219 249876 250423 252930 249695 247512 248064 250428
          247211 244156 244503 247635 245001 242131 242481 245435 240730 236977 237131 241000
          238838 235237 235526 239169 231738 225789 226692 232738 230409 224615 225592 231415
          216208 260187 260308 259320 257153 256143 254776 254237 256118 253383 252135 251550
          253333 252930 250423 249877 252219 250428 248065 247512 249695 247635 244503 244157
          247213 245435 242482 242132 245002 241001 237132 236981 240733 239170 235527 235240
          238839 232738 226691 225825 231737 231416 225588 224646 230415 216207 260180 260285
          259275 257079 256094 254146 254082 256027 253278 251359 251244 253176 251917 249500
          249298 251822 249236 246984 246647 249046 246895 243664 243131 246435 244519 241559
          240816 243930 240014 235867 235098 239351 238000 233985 233084 237195 227102 215811
          260169 260248 259199 256937 253481 248859 242941 235447 226253 215540 260158 260211
          259127 256810 253272 248507 242428 234889 225824 215389 260151 260189 259084 256736
          253153 248327 242191 234645 225640 215322 259029 257202 254791 251653 247720 242929
          237197 230454 222731 214229 259038 257231 254849 251754 247885 243178 237514 230768
          222958 214309 259052 257280 254947 251932 248194 243696 238235 231493 223489 214492
          259067 257330 255052 252133 250617 248676 248847 250750 248244 246322 246547 248412
          246550 244259 244753 246864 244262 242077 242671 244669 241681 238740 239798 242419
          239615 236817 237953 240447 235272 231355 232401 236250 233499 229748 230874 234586
          224533 214813 259077 257362 255117 252258 250835 249125 249740 250903 248525 246883
          247509 248608 247402 245341 245880 248133 245245 243276 243803 245972 242963 240258
          240594 243385 241011 238449 238780 241423 237154 233787 234047 237472 235538 232371
          232621 235839 229130 223607 224580 230190 227821 222556 223471 228958 215243 259077
          257362 255117 252258 250904 249740 249125 250834 248609 247509 246883 248524 248133
          245880 245342 247403 245972 243803 243277 245245 243385 240595 240260 242964 241423
          238780 238451 241012 237473 234048 233791 237156 235840 232622 232376 235541 230190
          224576 223636 229133 228958 223464 222582 227831 215242 259067 257330 255052 252133
          250750 248847 248678 250611 248412 246547 246318 248237 246864 244755 244265 246550
          244669 242672 242076 244258 242421 239802 238746 241683 240448 237957 236822 239612
          236252 232404 231381 235277 234588 230870 229770 233505 224529 214812 259052 257280
          254947 251932 248194 243697 238236 231494 223488 214492 259038 257232 254849 251754
          247886 243179 237515 230768 222959 214309 259029 257202 254792 251653 247720 242930
          237198 230455 222732 214229 258159 254771 251169 247265 242980 238225 232897 226933
          220375 213387 258171 254809 251244 247396 243194 238540 233283 227297 220630 213476
          258189 254871 251371 247629 243603 239206 234159 228129 221205 213671 258209 254937
          251507 247891 246026 244094 244375 246228 243881 241954 242273 244109 242084 239979
          240660 242574 239983 237951 238677 240522 237625 234958 236193 238541 235690 233137
          234430 236654 231798 228254 229394 232945 230113 226730 227813 231275 222261 213991
          258221 254978 251594 248063 246363 244748 245382 246457 244263 242667 243307 244365
          243166 241271 241790 243891 241124 239291 239806 241849 239108 236685 237003 239511
          237219 234921 235227 237617 233953 230969 231239 234236 232342 229153 229733 232601
          226505 221582 222366 227829 225036 220486 221129 226358 214366 258221 254978 251594
          248063 246457 245382 244748 246361 244366 243307 242667 244262 243891 241790 241272
          243166 241850 239806 239291 241124 239512 237003 236687 239109 237617 235227 234922
          237220 234236 231239 230970 233956 232602 229731 229136 232344 227828 222359 221607
          226506 226361 221122 220512 225047 214366 258209 254937 251507 247892 246227 244375
          244096 246020 244110 242273 241950 243874 242574 240661 239985 242086 240522 238677
          237950 239979 238543 236195 234962 237628 236656 234432 233141 235688 232947 229398
          228276 231803 231275 227803 226748 230120 222258 213990 258190 254872 251371 247629
          243604 239207 234160 228131 221205 213670 258171 254809 251244 247397 243195 238541
          233284 227299 220631 213476 258159 254772 251170 247266 242981 238226 232898 226934
          220376 213387 257363 252517 247777 243127 238499 233779 228848 223641 218196 212618
          257377 252564 247870 243290 238762 234155 229290 224043 218469 212712 257401 252643
          248029 243579 239263 234940 230271 224930 219054 212908 257425 252724 248198 243901
          241783 239832 240190 242038 239656 237699 238081 239931 237889 235917 236687 238472
          235783 233868 234663 236393 233746 231306 232652 234757 231777 229433 230804 232816
          228436 225263 226284 229579 226711 223722 224714 227838 220026 213203 257440 252776
          248307 244113 242207 240599 241246 242315 240114 238504 239157 240230 239084 237305
          237818 239812 237014 235286 235800 237746 235318 233131 233429 235711 233379 231293
          231592 233770 230662 227450 228184 230930 228937 225830 226593 229218 223588 219492
          219995 224446 222179 218422 218849 222920 213498 257440 252776 248307 244113 242316
          241246 240599 242204 240231 239157 238504 240113 239812 237818 237305 239084 237746
          235800 235287 237014 235711 233429 233132 235319 233770 231592 231293 233379 230930
          228183 227448 230663 229218 226593 225831 228937 224446 219988 219517 223594 222921
          218844 218449 222193 213498 257425 252724 248198 243901 242037 240190 239834 241777
          239932 238081 237695 239649 238473 236688 235921 237892 236392 234663 233866 235779
          234758 232654 231307 233749 232817 230804 229435 231774 229579 226283 225281 228439
          227836 224706 223741 226717 220023 213203 257401 252643 248029 243580 239264 234941
          230273 224931 219054 212908 257377 252565 247871 243291 238763 234157 229293 224046
          218470 212712 257363 252518 247777 243128 238500 233781 228851 223643 218198 212618
          256502 250111 244200 238807 233846 229170 224634 220185 215880 211789 256519 250170
          244316 239010 234169 229619 225144 220635 216177 211890 256548 250267 244513 239365
          234777 230533 226228 221583 216787 212093 256578 250368 244721 239752 237482 235501
          235914 237783 235192 233214 233650 235516 233609 231748 232578 234253 231356 229554
          230410 232026 229738 227484 228793 230814 227618 225436 226632 228722 224946 222193
          223149 226042 223090 220502 221438 224163 217719 212377 256597 250432 244855 240009
          237980 236352 237012 238103 235730 234108 234780 235864 234886 233210 233726 235624
          232676 231054 231576 233423 231379 229388 229698 231773 229300 227402 227732 229700
          227166 224211 224996 227463 225328 222519 223352 225646 220834 217444 217826 221488
          219406 216282 216603 220018 212631 256597 250432 244855 240009 238104 237013 236352
          237978 235865 234781 234108 235730 235624 233726 233210 234886 233423 231575 231053
          232675 231773 229697 229385 231378 229699 227730 227397 229297 227462 224996 224211
          227166 225644 223350 222519 225326 221488 217821 217469 220838 220023 216606 216291
          219414 212630 256578 250368 244721 239753 237782 235914 235503 237476 235516 233649
          233210 235186 234253 232578 231751 233611 232024 230409 229551 231351 230814 228775
          227478 229740 228720 226601 225432 227614 226038 223149 222210 224946 224157 221432
          220506 223087 217716 212377 256548 250267 244514 239366 234778 230534 226230 221585
          216789 212094 256519 250170 244317 239011 234171 229622 225147 220639 216180 211891
          256502 250112 244201 238808 233848 229173 224639 220189 215883 211790 255393 247169
          239989 233852 228588 223972 219827 216136 213054 210722 255415 247241 240134 234110
          229004 224544 220457 216679 213402 210839 255450 247361 240381 234562 229780 225678
          221750 217797 214096 211067 255487 247484 240639 235044 232764 230786 231263 233123
          230144 228213 228728 230543 228974 227236 228138 229689 226471 224810 225754 227228
          225383 223296 224495 226526 223035 221022 222264 224217 219512 215075 211369 255510