<?xml version="1.0"?>
<VTKFile type="UnstructuredGrid" version="0.1" byte_order="LittleEndian">
  <UnstructuredGrid>
    <Piece NumberOfCells="1670" NumberOfPoints="911">
      <CellData Scalars="S_aq">
        <DataArray type="Float32" Name="S_aq" NumberOfComponents="1" format="ascii">
          0.212781 0.160134 0.163875 0.273659 0.266029 0.266037 0.161296 0.273369 0.165101 0.216871 0.193282 0.229673
          0.212647 0.202468 0.183658 0.234701 0.204393 0.21032 0.197013 0.223859 0.242469 0.179486 0.226043 0.235967
          0.18383 0.241285 0.22324 0.193074 0.22056 0.158523 0.204346 0.276869 0.209942 0.1616 0.270819 0.214749
          0.199938 0.178735 0.224732 0.234673 0.225959 0.191169 0.202169 0.199427 0.219961 0.19681 0.186584 0.217774
          0.167784 0.259479 0.217033 0.198066 0.233731 0.183812 0.277644 0.157253 0.158508 0.276802 0.232176 0.185792
          0.204633 0.209768 0.270562 0.204432 0.161338 0.186861 0.250145 0.227555 0.189388 0.208534 0.250068 0.204915
          0.173738 0.20324 0.217657 0.190073 0.191636 0.226583 0.236452 0.172724 0.249192 0.174184 0.222932 0.228896
          0.185318 0.189292 0.216936 0.219522 0.156879 0.213961 0.279109 0.200454 0.240085 0.212135 0.202489 0.238827
          0.179954 0.271374 0.160204 0.161476 0.270785 0.237639 0.181757 0.228383 0.251501 0.173166 0.17164 0.248212
          0.18104 0.235674 0.183263 0.174331 0.157266 0.277946 0.247632 0.158426 0.27748 0.246892 0.175846 0.211211
          0.258573 0.202702 0.168067 0.170894 0.161121 0.270483 0.253164 0.16233 0.270194 0.252709 0.172305 0.178854
          0.239283 0.239016 0.181022 0.196929 0.201537 0.213024 0.229255 0.204726 0.247922 0.199709 0.20936 0.252146
          0.215045 0.175314 0.172341 0.227858 0.225698 0.258704 0.192037 0.224194 0.270792 0.190679 0.225812 0.168056
          0.272081 0.188116 0.161405 0.189504 0.260105 0.166375 0.159892 0.194445 0.187256 0.187909 0.176892 0.210682
          0.192572 0.203746 0.235731 0.196135 0.209419 0.205183 0.20569 0.209119 0.182244 0.241047 0.178036 0.16821
          0.256101 0.25648 0.240501 0.169649 0.179779 0.217556 0.212613 0.20148 0.242029 0.246133 0.225933 0.228226
          0.218367 0.197424 0.223688 0.193114 0.233352 0.183075 0.233843 0.18496 0.194205 0.191785 0.18108 0.178046
          0.19212 0.189282 0.172 0.25049 0.167985 0.257119 0.257142 0.250146 0.169371 0.173485 0.209732 0.211824
          0.218715 0.219811 0.195835 0.194619 0.27339 0.262002 0.165568 0.159391 0.175407 0.222994 0.192388 0.280869
          0.155432 0.156989 0.279442 0.220551 0.19493 0.243759 0.217751 0.197283 0.20259 0.198109 0.216732 0.196765
          0.255835 0.169072 0.187618 0.209486 0.20577 0.212063 0.382947 0.391175 0.356879 0.351377 0.31592 0.303812
          0.306154 0.674311 0.299795 0.338166 0.311786 0.338494 0.639544 0.381933 0.308483 0.341179 0.550734 0.558553
          0.579494 0.466147 0.484692 0.427583 0.371785 0.362359 0.432654 0.44134 0.33358 0.422526 0.33687 0.375634
          0.369019 0.89925 0.288906 0.348082 0.809859 0.419946 0.488957 0.49723 0.41963 0.578296 0.330214 0.34285
          0.291962 0.302248 0.315896 0.497443 0.414801 0.392213 0.382611 0.511131 0.329801 0.335603 0.635977 0.299861
          0.667638 0.361642 0.289103 0.311933 0.326865 0.323548 0.561879 0.288964 0.633415 0.351492 0.382716 0.376861
          0.290847 0.366248 0.372585 0.330877 0.359358 0.324781 0.376145 0.707883 0.803748 0.906982 0.905898 0.33442
          0.580274 0.324592 0.459675 0.470715 0.504795 0.495573 0.395154 0.438903 0.436983 0.328342 0.433705 0.516888
          0.411425 0.460697 0.408826 0.348647 0.341157 0.341603 0.581358 0.292622 0.351706 0.309571 0.407493 0.689224
          0.3438 0.442224 0.308866 0.383336 0.423622 0.42207 0.567807 0.387268 0.501395 0.45057 0.463983 0.558424
          0.51567 0.642173 0.643881 0.322284 0.517975 0.335701 0.291115 0.656159 0.648849 0.594088 0.31937 0.3572
          0.522554 0.516381 0.373298 0.318293 0.351205 0.404091 0.336841 0.394575 0.300993 0.474639 0.366685 0.376129
          0.288484 0.331867 0.912968 0.522735 0.300312 0.467792 0.319265 0.297774 0.551538 0.395211 0.395572 0.291028
          0.35875 0.452066 0.357621 0.319251 0.384784 0.32189 0.468155 0.343075 0.495557 0.81678 0.815656 0.408007
          0.295813 0.803829 0.800459 0.312958 0.295772 0.383778 0.584349 0.2919 0.319528 0.511634 0.338876 0.336179
          0.505072 0.299393 0.313856 0.291119 0.307489 0.310207 0.328891 0.289291 0.546115 0.406847 0.617076 0.353853
          0.317243 0.407258 0.295915 0.649929 0.322597 0.297096 0.381387 0.295124 0.910156 0.9075 0.576088 0.456439
          0.310446 0.371556 0.709679 0.720392 0.555476 0.411654 0.29058 0.328487 0.697747 0.694141 0.306497 0.469907
          0.41118 0.814685 0.821479 0.323112 0.299331 0.404391 0.404351 0.38069 0.374114 0.314332 0.304848 0.297537
          0.304082 0.637364 0.53231 0.342998 0.315778 0.393897 0.396957 0.380377 0.431253 0.394813 0.307466 0.313894
          0.54646 0.452851 0.582475 0.43344 0.434649 0.300468 0.30585 0.299317 0.450674 0.308819 0.427569 0.498295
          0.648739 0.468567 0.342928 0.696367 0.691695 0.332147 0.41682 0.314986 0.330872 0.329112 0.43053 0.443328
          0.366966 0.492191 0.339645 0.342443 0.373404 0.296208 0.306784 0.366107 0.491224 0.323598 0.440468 0.378117
          0.303047 0.339073 0.332376 0.354933 0.366184 0.288495 0.475107 0.322803 0.300947 0.363978 0.346177 0.342002
          0.361499 0.30419 0.728582 0.405231 0.616815 0.305807 0.288182 0.395419 0.352376 0.433318 0.453584 0.314796
          0.828981 0.479023 0.402807 0.32536 0.533354 0.310539 0.314563 0.318576 0.356172 0.316921 0.298316 0.46063
          0.734409 0.741465 0.287643 0.318627 0.567388 0.322991 0.349464 0.350734 0.330439 0.293839 0.36525 0.319058
          0.325213 0.928205 0.921901 0.290692 0.678572 0.293813 0.3116 0.811688 0.811704 0.392449 0.30201 0.288375
          0.308116 0.391851 0.592212 0.325316 0.330473 0.355967 0.290642 0.614069 0.937102 0.286652 0.935353 0.326216
          0.466205 0.29878 0.34839 0.347497 0.429113 0.414933 0.295211 0.362678 0.291066 0.311356 0.40669 0.500325
          0.59771 0.358716 0.419776 0.346328 0.320914 0.331727 0.814945 0.820276 0.290249 0.327935 0.31314 0.417309
          0.295521 0.534711 0.316093 0.321137 0.509633 0.3618 0.307587 0.335181 0.361403 0.354348 0.296666 0.407052
          0.347841 0.525302 0.546408 0.353853 0.351014 0.303885 0.32153 0.425664 0.434591 0.289894 0.341723 0.304933
          0.304967 0.568834 0.576326 0.309277 0.678287 0.61728 0.523276 0.525173 0.327341 0.322817 0.29903 0.291752
          0.30111 0.564743 0.484193 0.563246 0.504766 0.420476 0.337329 0.291034 0.4861 0.312725 0.332411 0.345928
          0.332445 0.289901 0.449606 0.288008 0.289369 0.361705 0.466587 0.436586 0.492671 0.444309 0.405181 0.474142
          0.499976 0.517861 0.556185 0.364593 0.414816 0.316388 0.313378 0.559298 0.295735 0.404824 0.342261 0.312566
          0.554006 0.411976 0.597831 0.335767 0.541571 0.626676 0.302544 0.330144 0.300957 0.46951 0.309928 0.299623
          0.306648 0.304897 0.794334 0.437073 0.565808 0.582075 0.43354 0.446757 0.438652 0.498736 0.328544 0.406251
          0.582388 0.621823 0.348213 0.891356 0.459933 0.334753 0.300857 0.337598 0.296106 0.312179 0.291706 0.316889
          0.536588 0.312631 0.310865 0.3054 0.333493 0.335714 0.368246 0.312649 0.323089 0.569408 0.411718 0.291197
          0.351801 0.427754 0.313816 0.325606 0.682941 0.681009 0.640821 0.304521 0.329024 0.32438 0.36496 0.532151
          0.580514 0.649741 0.339745 0.359011 0.488662 0.493945 0.332292 0.292435 0.298508 0.905686 0.905021 0.288363
          0.908451 0.387173 0.706566 0.697237 0.435419 0.504242 0.466904 0.627042 0.335395 0.309569 0.803611 0.733528
          0.738346 0.557222 0.523147 0.58848 0.431832 0.308761 0.392205 0.317686 0.379134 0.419962 0.698456 0.528152
          0.472234 0.358327 0.386037 0.320934 0.398097 0.360199 0.430866 0.359996 0.30796 0.322327 0.368911 0.475457
          0.373818 0.38476 0.823261 0.823827 0.383574 0.409586 0.442739 0.388279 0.431318 0.468561 0.547971 0.352937
          0.442833 0.442791 0.490689 0.289476 0.312719 0.375692 0.301996 0.384461 0.31894 0.291858 0.338393 0.527925
          0.463187 0.334952 0.288723 0.370966 0.393759 0.327865 0.344082 0.322609 0.400354 0.709646 0.71615 0.308958
          0.458617 0.369807 0.306498 0.383822 0.813231 0.817143 0.366988 0.328843 0.351854 0.392557 0.344932 0.361649
          0.344129 0.294674 0.586998 0.291053 0.339072 0.312289 0.298948 0.290516 0.409478 0.307514 0.320208 0.405515
          0.456837 0.303859 0.327688 0.34528 0.28877 0.382905 0.411949 0.375415 0.320844 0.380746 0.376835 0.313341
          0.315371 0.342918 0.601304 0.333888 0.3779 0.810033 0.810075 0.50241 0.314663 0.634591 0.47973 0.287738
          0.290198 0.304676 0.647118 0.373595 0.919169 0.918756 0.298881 0.431626 0.719606 0.340732 0.655541 0.289969
          0.498854 0.825317 0.350238 0.295275 0.366561 0.380948 0.372936 0.516934 0.345042 0.522805 0.357495 0.365732
          0.481886 0.463283 0.409366 0.334942 0.303686 0.353918 0.346362 0.42158 0.329162 0.339914 0.317432 0.323598
          0.418103 0.499289 0.346989 0.331691 0.668034 0.548056 0.333359 0.311778 0.350193 0.361168 0.406197 0.303509
          0.321682 0.611863 0.359011 0.401669 0.316149 0.353022 0.302097 0.297412 0.312618 0.359911 0.407083 0.44106
          0.36766 0.542853 0.322906 0.306089 0.3883 0.288588 0.395337 0.585995 0.306766 0.444878 0.342272 0.920852
          0.921439 0.322887 0.296456 0.925705 0.920415 0.319917 0.322861 0.337124 0.383823 0.474741 0.370999 0.803318
          0.80767 0.347148 0.381245 0.608806 0.295257 0.287768 0.299165 0.368147 0.354625 0.600249 0.326257 0.29093
          0.294633 0.351797 0.300171 0.506263 0.415542 0.31779 0.524321 0.295943 0.394468 0.395575 0.315708 0.388247
          0.313905 0.338884 0.666928 0.658807 0.397432 0.298875 0.344072 0.398582 0.347964 0.389874 0.346549 0.296874
          0.358223 0.354811 0.30384 0.307316 0.355533 0.43529 0.305827 0.319323 0.31515 0.413706 0.322477 0.352002
          0.415062 0.346249 0.535356 0.35374 0.361621 0.296797 0.625931 0.647567 0.302203 0.308837 0.309698 0.317709
          0.38252 0.298355 0.71196 0.717865 0.699931 0.695756 0.418988 0.402943 0.364046 0.372842 0.492644 0.500762
          0.466145 0.460382 0.421803 0.408755 0.411415 0.747374 0.404426 0.446191 0.417252 0.44656 0.718898 0.491684
          0.413925 0.449529 0.644698 0.651321 0.669085 0.570785 0.587339 0.535519 0.481495 0.471856 0.540237 0.548263
          0.441211 0.530785 0.444782 0.485367 0.478674 0.924077 0.392844 0.456893 0.855053 0.528394 0.591099 0.598413
          0.528094 0.668107 0.43772 0.45122 0.396505 0.406958 0.421946 0.598579 0.523508 0.501802 0.492354 0.610594
          0.43706 0.443398 0.715946 0.404324 0.741954 0.471045 0.393606 0.417613 0.433838 0.430205 0.654142 0.393017
          0.714004 0.460471 0.492413 0.486569 0.394953 0.475777 0.482317 0.43842 0.4687 0.431749 0.485842 0.774604
          0.850238 0.929895 0.929081 0.442227 0.669775 0.431576 0.56495 0.574896 0.605058 0.596943 0.504675 0.546
          0.544242 0.435479 0.541233 0.615587 0.520302 0.565884 0.517828 0.457475 0.449399 0.449961 0.670691 0.396378
          0.460705 0.415125 0.516555 0.759624 0.452292 0.549068 0.414052 0.493041 0.531813 0.530358 0.659199 0.496962
          0.602033 0.556715 0.568837 0.651272 0.614522 0.722512 0.721213 0.429037 0.616541 0.443595 0.395349 0.732651
          0.726693 0.681374 0.425757 0.466425 0.620508 0.615113 0.482994 0.424429 0.460141 0.513295 0.44491 0.504132
          0.405732 0.578409 0.476257 0.485841 0.392674 0.439416 0.934413 0.62064 0.405168 0.572274 0.425575 0.402514
          0.645362 0.504709 0.50509 0.395227 0.468057 0.558057 0.466871 0.425586 0.494471 0.428397 0.5726 0.451506
          0.596921 0.860289 0.859446 0.517045 0.399795 0.850303 0.847694 0.418811 0.400002 0.493498 0.673189 0.395546
          0.425768 0.611011 0.447039 0.444176 0.605257 0.403678 0.419796 0.395128 0.412829 0.41572 0.436157 0.39296
          0.640746 0.515975 0.700432 0.462917 0.423443 0.516365 0.400375 0.727572 0.429209 0.401614 0.491088 0.399201
          0.932266 0.930269 0.666237 0.562014 0.41579 0.48123 0.776044 0.784551 0.648775 0.520555 0.394412 0.435769
          0.76644 0.763628 0.411704 0.574171 0.520071 0.864033 0.858775 0.429887 0.403824 0.513586 0.513545 0.490406
          0.483805 0.420331 0.409989 0.402117 0.409167 0.717191 0.628922 0.451531 0.421891 0.503427 0.506406 0.490076
          0.538945 0.504357 0.412679 0.419775 0.641047 0.558785 0.671598 0.540984 0.54208 0.405248 0.411096 0.404029
          0.556811 0.413993 0.535532 0.599322 0.726448 0.572983 0.451331 0.765302 0.761587 0.439768 0.525433 0.420799
          0.43825 0.436456 0.53828 0.550088 0.476554 0.593972 0.447901 0.450879 0.483078 0.400715 0.411813 0.475648
          0.593113 0.43043 0.547443 0.487849 0.407717 0.44729 0.44 0.464136 0.475734 0.391891 0.578797 0.429548
          0.405373 0.473493 0.454811 0.450356 0.470939 0.408915 0.791139 0.514403 0.700292 0.41097 0.392408 0.504913
          0.461384 0.540876 0.559437 0.420676 0.869865 0.582296 0.512071 0.432196 0.629819 0.415985 0.420408 0.424733
          0.465411 0.422949 0.402586 0.565807 0.795659 0.801261 0.39117 0.425001 0.658888 0.429678 0.458409 0.45974
          0.437811 0.398195 0.474774 0.42551 0.432057 0.945916 0.941149 0.395073 0.750833 0.397685 0.417132 0.856569
          0.856621 0.502015 0.40659 0.392168 0.413385 0.501436 0.6798 0.432262 0.437885 0.465238 0.394818 0.697955
          0.951305 0.952632 0.39062 0.433266 0.570863 0.403536 0.457138 0.456186 0.536942 0.523639 0.399307 0.472198
          0.394897 0.416936 0.515812 0.601116 0.68441 0.468101 0.528237 0.455079 0.427428 0.439221 0.859093 0.863228
          0.394376 0.435074 0.418776 0.5259 0.400072 0.630983 0.422212 0.427755 0.60927 0.471239 0.412762 0.442976
          0.470801 0.463441 0.400756 0.516161 0.456673 0.622842 0.641002 0.462958 0.459969 0.408714 0.428041 0.533725
          0.54203 0.393473 0.45014 0.409742 0.409828 0.660065 0.666407 0.414526 0.353427 0.334887 0.38651 0.292224
          0.296191 0.383861 0.295628 0.382883 0.291611 0.385485 0.349666 0.338889 0.352593 0.335683 0.361988 0.324429
          0.365734 0.319666 0.3546 0.333464 0.31247 0.359179 0.327953 0.317459 0.360977 0.325845 0.313012 0.370938
          0.348365 0.340105 0.386712 0.291427 0.352936 0.335329 0.294185 0.384548 0.318177 0.366975 0.35282 0.335264
          0.352881 0.335114 0.346425 0.332291 0.355401 0.342152 0.354977 0.33324 0.300639 0.379928 0.387712 0.290807
          0.366869 0.319344 0.319025 0.366354 0.290377 0.38675 0.348606 0.339691 0.384613 0.342573 0.294827 0.345953
          0.377308 0.323514 0.306272 0.375811 0.375229 0.307325 0.343649 0.344889 0.353283 0.334616 0.326705 0.338178
          0.333239 0.350123 0.354543 0.369156 0.306896 0.316422 0.368245 0.340706 0.328317 0.347822 0.358839 0.338311
          0.350031 0.387914 0.290667 0.369531 0.314731 0.385716 0.293648 0.37032 0.314915 0.314602 0.369643 0.293216
          0.384751 0.305761 0.363544 0.36255 0.323788 0.376515 0.316558 0.307347 0.374959 0.324208 0.290302 0.387913
          0.375479 0.308088 0.307717 0.374673 0.289773 0.387123 0.379012 0.340997 0.301717 0.347516 0.293924 0.38545
          0.378241 0.304268 0.303846 0.377359 0.293411 0.384542 0.371088 0.314251 0.314187 0.369966 0.3604 0.361606
          0.326553 0.324726 0.374089 0.376447 0.308696 0.305458 0.353354 0.347391 0.334944 0.341068 0.385769 0.381435
          0.379749 0.361074 0.300681 0.362246 0.326329 0.384609 0.293568 0.326368 0.360491 0.324889 0.293675 0.300416
          0.324397 0.362099 0.37414 0.360277 0.35614 0.327638 0.331968 0.36091 0.362979 0.366091 0.323866 0.318921
          0.370925 0.357293 0.357296 0.330118 0.330064 0.363108 0.379821 0.371878 0.302117 0.312861 0.31275 0.370984
          0.301902 0.378736 0.369881 0.310151 0.313311 0.339096 0.334048 0.349296 0.353823 0.360393 0.326441 0.362515
          0.32383 0.367947 0.318699 0.319109 0.366223 0.347293 0.342593 0.345929 0.341177 0.366885 0.374121 0.380169
          0.377057 0.301563 0.305857 0.305523 0.301213 0.376134 0.3792 0.386064 0.381626 0.293297 0.299574 0.332194
          0.355521 0.33332 0.354529 0.388671 0.289506 0.358151 0.329628 0.329164 0.358188 0.289299 0.387453 0.372028
          0.311591 0.343533 0.344857 0.341263 0.347199 0.378744 0.303341 0.3352 0.352836 0.3695 0.356287 0.331786
          0.348658 0.339611
        </DataArray>
        <DataArray type="Float32" Name="p_aq" NumberOfComponents="1" format="ascii">
          100111 100165 100164 100059 100062 100062 100163 100059 100162 100105 100138 100090
          100110 100127 100149 100084 100124 100113 100133 100097 100077 100153 100095 100082
          100150 100078 100096 100139 100101 100165 100124 100058 100113 100164 100060 100106
          100130 100153 100096 100085 100093 100142 100126 100131 100101 100134 100146 100105
          100161 100066 100104 100133 100086 100149 100057 100165 100164 100058 100085 100148
          100123 100117 100060 100122 100164 100145 100072 100091 100144 100118 100071 100121
          100158 100125 100105 100143 100141 100093 100083 100158 100071 100157 100098 100090
          100148 100144 100106 100103 100165 100111 100057 100128 100079 100110 100127 100081
          100153 100059 100165 100164 100060 100080 100151 100092 100070 100158 100159 100073
          100151 100082 100150 100158 100165 100057 100074 100164 100058 100073 100157 100115
          100066 100124 100161 100160 100165 100060 100070 100163 100060 100069 100159 100153
          100080 100079 100152 100132 100126 100112 100090 100123 100073 100131 100114 100070
          100106 100157 100159 100093 100095 100066 100141 100094 100060 100142 100092 100161
          100059 100144 100164 100142 100065 100162 100165 100135 100144 100144 100155 100115
          100138 100123 100083 100133 100117 100121 100122 100115 100150 100079 100154 100161
          100068 100067 100078 100160 100153 100105 100112 100126 100077 100074 100094 100092
          100102 100134 100096 100139 100086 100149 100084 100148 100137 100140 100152 100155
          100138 100142 100159 100071 100161 100067 100066 100070 100160 100158 100116 100113
          100104 100103 100134 100136 100059 100064 100162 100165 100156 100099 100139 100056
          100165 100165 100057 100099 100137 100076 100102 100134 100126 100132 100107 100133
          100067 100161 100144 100116 100122 100113 100013 100012 100019 100021 100037 100044
          100042 100001 100046 100026 100039 100026 100001 100013 100041 100025 100002 100002
          100001 100005 100004 100007 100015 100018 100007 100006 100028 100008 100027 100015
          100016 100000 100053 100022 100000 100008 100004 100003 100008 100001 100029 100024
          100051 100045 100037 100003 100009 100012 100013 100003 100030 100027 100001 100046
          100001 100018 100052 100039 100031 100033 100002 100053 100001 100021 100013 100014
          100052 100017 100015 100029 100019 100032 100014 100000 100000 100000 100000 100028
          100001 100032 100005 100004 100003 100003 100011 100006 100006 100030 100007 100003
          100009 100005 100009 100022 100025 100025 100001 100051 100021 100040 100009 100001
          100024 100006 100041 100013 100008 100008 100002 100012 100003 100005 100005 100002
          100003 100001 100001 100033 100003 100027 100052 100001 100001 100001 100035 100019
          100002 100003 100015 100036 100021 100010 100026 100011 100045 100004 100017 100015
          100053 100029 100000 100002 100046 100005 100035 100047 100002 100011 100011 100052
          100019 100005 100019 100035 100013 100034 100004 100024 100003 100000 100000 100009
          100049 100000 100000 100038 100049 100013 100001 100052 100035 100003 100026 100027
          100003 100047 100038 100052 100041 100040 100030 100053 100002 100009 100001 100020
          100036 100009 100049 100001 100033 100048 100013 100049 100000 100000 100001 100005
          100040 100016 100000 100000 100002 100009 100052 100030 100000 100000 100042 100004
          100009 100000 100000 100033 100047 100010 100010 100014 100015 100037 100043 100047
          100043 100001 100002 100024 100037 100011 100011 100014 100007 100011 100042 100038
          100002 100005 100001 100007 100007 100046 100042 100046 100005 100041 100007 100003
          100001 100004 100024 100000 100000 100028 100008 100037 100029 100030 100007 100006
          100017 100003 100025 100024 100015 100048 100042 100017 100003 100033 100006 100014
          100044 100025 100028 100020 100017 100054 100004 100033 100046 100017 100023 100024
          100018 100044 100000 100010 100001 100042 100053 100011 100021 100007 100005 100037
          100000 100004 100010 100032 100002 100040 100037 100035 100020 100036 100047 100005
          100000 100000 100054 100035 100002 100033 100022 100021 100029 100050 100017 100035
          100032 100000 100000 100052 100001 100050 100039 100000 100000 100012 100045 100054
          100041 100012 100001 100032 100029 100020 100052 100001 100000 100054 100000 100031
          100005 100047 100022 100022 100007 100009 100049 100018 100052 100039 100009 100003
          100001 100019 100008 100023 100034 100029 100000 100000 100052 100031 100039 100008
          100049 100002 100036 100034 100003 100018 100042 100027 100018 100020 100049 100009
          100022 100002 100002 100020 100021 100044 100034 100007 100007 100053 100024 100043
          100043 100002 100001 100041 100001 100001 100002 100002 100031 100033 100047 100052
          100046 100002 100004 100002 100003 100008 100026 100051 100004 100038 100028 100023
          100028 100053 100005 100053 100053 100018 100004 100006 100003 100006 100010 100004
          100003 100003 100002 100017 100008 100036 100038 100002 100049 100010 100024 100038
          100002 100009 100001 100027 100002 100001 100045 100029 100046 100004 100040 100046
          100042 100043 100000 100006 100002 100001 100007 100006 100006 100003 100030 100009
          100001 100001 100022 100000 100005 100027 100046 100026 100049 100039 100051 100036
          100002 100039 100040 100043 100028 100027 100016 100039 100033 100001 100009 100052
          100021 100007 100038 100031 100000 100000 100001 100043 100030 100032 100017 100002
          100001 100001 100025 100018 100004 100003 100028 100051 100047 100000 100000 100054
          100000 100012 100000 100000 100006 100003 100004 100001 100027 100040 100000 100000
          100000 100002 100002 100001 100007 100041 100011 100036 100014 100008 100000 100002
          100004 100019 100012 100034 100011 100018 100007 100018 100041 100033 100016 100004
          100015 100013 100000 100000 100013 100009 100006 100012 100007 100004 100002 100020
          100006 100006 100003 100053 100038 100014 100045 100013 100035 100051 100026 100002
          100005 100027 100052 100015 100011 100030 100023 100033 100010 100000 100000 100041
          100005 100016 100042 100013 100000 100000 100016 100030 100021 100011 100023 100018
          100023 100050 100001 100051 100025 100039 100047 100052 100009 100042 100034 100010
          100005 100044 100030 100023 100053 100013 100009 100014 100034 100013 100014 100038
          100037 100024 100001 100027 100014 100000 100000 100003 100037 100001 100004 100054
          100052 100043 100001 100015 100000 100000 100047 100007 100000 100025 100001 100052
          100003 100000 100021 100049 100017 100013 100015 100003 100023 100002 100019 100017
          100004 100005 100009 100027 100044 100020 100022 100008 100030 100025 100036 100032
          100008 100003 100022 100028 100001 100002 100028 100039 100021 100018 100009 100044
          100033 100001 100019 100010 100036 100020 100045 100048 100038 100018 100009 100006
          100016 100002 100033 100042 100012 100053 100011 100001 100042 100006 100024 100000
          100000 100033 100048 100000 100000 100034 100033 100026 100013 100004 100015 100000
          100000 100022 100013 100001 100049 100054 100047 100016 100020 100001 100031 100052
          100049 100021 100046 100003 100008 100035 100002 100048 100011 100011 100037 100012
          100038 100025 100001 100001 100011 100047 100023 100010 100022 100012 100022 100048
          100019 100020 100044 100042 100020 100006 100043 100035 100037 100009 100033 100021
          100008 100022 100002 100020 100018 100048 100001 100001 100045 100041 100040 100036
          100013 100047 100000 100000 100000 100000 100008 100010 100017 100015 100011 100010
          100015 100016 100026 100031 100030 100001 100032 100019 100028 100019 100001 100011
          100029 100018 100002 100002 100002 100004 100004 100006 100012 100014 100006 100006
          100020 100007 100019 100012 100013 100000 100037 100017 100000 100007 100004 100003
          100007 100002 100021 100018 100035 100031 100026 100003 100007 100010 100011 100003
          100021 100020 100001 100032 100001 100014 100036 100027 100022 100023 100002 100037
          100001 100016 100011 100011 100036 100013 100012 100021 100014 100023 100012 100001
          100000 100000 100000 100020 100002 100023 100005 100004 100003 100003 100009 100006
          100006 100022 100006 100003 100008 100005 100008 100016 100018 100018 100002 100035
          100016 100028 100008 100001 100018 100006 100029 100011 100007 100007 100002 100010
          100003 100005 100004 100002 100003 100001 100001 100024 100003 100020 100036 100001
          100001 100001 100025 100015 100003 100003 100012 100025 100016 100008 100019 100009
          100032 100004 100013 100012 100037 100021 100000 100003 100032 100004 100025 100033
          100002 100009 100009 100036 100014 100005 100015 100025 100010 100024 100004 100018
          100003 100000 100000 100008 100034 100000 100000 100027 100034 100010 100002 100036
          100025 100003 100019 100019 100003 100032 100027 100036 100029 100028 100022 100037
          100002 100008 100001 100015 100026 100008 100034 100001 100024 100033 100011 100034
          100000 100000 100002 100005 100028 100012 100001 100000 100002 100008 100036 100022
          100001 100001 100030 100004 100008 100000 100000 100023 100032 100008 100008 100011
          100012 100026 100030 100033 100030 100001 100002 100018 100026 100009 100009 100011
          100006 100009 100029 100027 100002 100005 100002 100006 100006 100032 100030 100032
          100005 100029 100006 100003 100001 100004 100018 100001 100001 100021 100007 100026
          100021 100021 100006 100005 100013 100003 100019 100018 100012 100033 100029 100013
          100003 100023 100006 100011 100031 100019 100021 100015 100013 100037 100004 100024
          100032 100013 100017 100018 100014 100031 100000 100008 100001 100030 100037 100009
          100016 100006 100005 100026 100000 100004 100008 100023 100002 100028 100026 100025
          100015 100026 100033 100005 100000 100000 100037 100025 100002 100023 100016 100016
          100021 100034 100013 100025 100023 100000 100000 100036 100001 100035 100028 100000
          100000 100010 100031 100037 100029 100010 100001 100023 100021 100015 100036 100001
          100000 100000 100037 100023 100004 100033 100017 100017 100006 100007 100034 100014
          100036 100028 100008 100003 100001 100014 100007 100017 100024 100021 100000 100000
          100036 100022 100027 100007 100034 100002 100026 100024 100003 100014 100029 100020
          100014 100015 100034 100008 100017 100003 100002 100015 100016 100031 100024 100007
          100006 100036 100018 100030 100030 100002 100002 100029 100051 100055 100039 100055
          100056 100040 100056 100041 100056 100039 100052 100054 100051 100054 100048 100056
          100047 100056 100050 100055 100056 100049 100056 100056 100049 100056 100057 100045
          100052 100054 100039 100056 100051 100055 100056 100040 100056 100046 100051 100055
          100051 100055 100052 100055 100050 100053 100050 100055 100056 100042 100039 100055
          100046 100056 100056 100047 100056 100039 100052 100054 100040 100053 100056 100053
          100043 100056 100057 100043 100044 100056 100053 100053 100051 100055 100056 100054
          100055 100052 100050 100046 100056 100056 100046 100054 100056 100052 100049 100054
          100052 100039 100055 100046 100056 100040 100055 100045 100056 100057 100046 100056
          100040 100056 100048 100048 100056 100043 100056 100057 100044 100056 100055 100039
          100043 100056 100057 100044 100056 100039 100042 100053 100056 100052 100055 100040
          100042 100056 100057 100043 100056 100040 100045 100056 100057 100045 100049 100048
          100056 100056 100044 100043 100057 100056 100051 100052 100055 100054 100040 100041
          100042 100048 100056 100048 100056 100040 100056 100056 100049 100056 100055 100056
          100056 100048 100044 100049 100050 100056 100055 100048 100048 100047 100056 100056
          100045 100050 100050 100055 100055 100048 100042 100045 100056 100056 100057 100045
          100056 100042 100045 100056 100056 100054 100055 100052 100051 100049 100056 100048
          100056 100046 100056 100056 100047 100052 100053 100053 100054 100046 100044 100042
          100043 100056 100056 100057 100056 100043 100042 100039 100041 100055 100056 100055
          100050 100055 100050 100038 100055 100049 100055 100055 100049 100056 100039 100045
          100057 100053 100053 100053 100052 100042 100056 100055 100051 100046 100050 100055
          100052 100054
        </DataArray>
        <DataArray type="Float32" Name="rho_aq" NumberOfComponents="1" format="ascii">
          1000 1000 1000 1000 1000 1000 1000 1000 1000 1000 1000 1000
          1000 1000 1000 1000 1000 1000 1000 1000 1000 1000 1000 1000