<?xml version="1.0"?>
<VTKFile type="UnstructuredGrid" version="0.1" byte_order="LittleEndian">
  <UnstructuredGrid>
    <Piece NumberOfCells="2204" NumberOfPoints="2924">
      <CellData Scalars="wetting pressure">
        <DataArray type="Float32" Name="wetting pressure" NumberOfComponents="1" format="ascii">
          265446 270457 271849 270750 267668 262787 256063 247239 235774 220567 265450 270470
          271874 270790 267727 262873 256178 247364 235871 220604 265457 270492 271914 270853
          267816 263014 256385 247611 236070 220678 265464 270514 271955 270913 267867 263123
          256611 247963 236365 220787 265468 270528 271981 270964 236691 220899 265468 270528
          271982 270964 236698 220899 265464 270514 271955 270913 267867 263125 256617 247967
          236368 220787 265457 270492 271914 270853 267816 263015 256387 247613 236071 220678
          265450 270471 271874 270790 267727 262874 256179 247365 235872 220604 265446 270457
          271850 270751 267669 262788 256064 247240 235774 220567 261893 264255 264508 262888
          259602 254737 248242 239948 229611 217029 261898 264271 264539 262938 259680 254854
          248397 240113 229738 217076 261906 264297 264590 263024 259810 255065 248706 240468
          230017 217177 261914 264324 264643 263120 241070 230508 217348 261919 264341 264672
          263155 217589 261919 264341 264672 263155 217583 261914 264324 264643 263120 241076
          230510 217348 261906 264298 264590 263024 259811 255065 248706 240469 230018 217177
          261898 264271 264539 262939 259681 254854 248398 240114 229738 217076 261893 264255
          264509 262888 259603 254738 248243 239949 229611 217029 260136 260145 259012 256640
          253038 248201 242066 234537 225567 215296 260142 260166 259054 256710 253150 248371
          242289 234767 225740 215359 260153 260201 259123 256832 253350 248704 242774 235290
          226142 215501 260164 260238 259196 256969 226941 215756 260171 260260 259240 257040
          216128 260171 260260 259240 257040 216126 260164 260238 259197 256969 226933 215754
          260153 260201 259123 256833 253350 248705 242774 235291 226141 215500 260143 260166
          259054 256711 253151 248372 242290 234768 225740 215359 260136 260145 259013 256640
          253038 248202 242067 234538 225567 215296 259013 257156 254716 251551 247597 242794
          237062 230338 222652 214201 259022 257184 254771 251648 247755 243031 237363 230634
          222866 214277 259036 257231 254866 251819 248050 243525 238046 231318 223365 214448
          259050 257280 254967 252014 224347 214751 259059 257310 255031 252136 215160 259059
          257310 255031 252136 215160 259050 257280 254967 252014 224343 214750 259036 257231
          254866 251820 248051 243526 238047 231319 223364 214448 259022 257184 254772 251649
          247756 243032 237364 230635 222866 214277 259013 257156 254716 251552 247598 242795
          237063 230339 222653 214201 258143 254722 251089 247156 242848 238079 232751 226808
          220290 213357 258154 254758 251161 247282 243054 238380 233118 227153 220530 213441
          258172 254819 251284 247507 243447 239019 233952 227938 221071 213623 258191 254882
          251416 247762 222052 213923 258203 254923 251501 247930 214275 258203 254923 251501
          247930 214275 258191 254883 251416 247762 222050 213922 258172 254819 251285 247508
          243448 239020 233954 227940 221070 213623 258154 254759 251162 247283 243055 238382
          233120 227154 220531 213441 258143 254722 251090 247157 242849 238080 232753 226809
          220291 213357 257345 252465 247690 243010 238356 233622 228691 223507 218106 212586
          257359 252510 247781 243169 238610 233982 229113 223889 218364 212675 257382 252587
          247936 243449 239095 234737 230047 224728 218916 212860 257406 252667 248101 243762
          219829 213137 257421 252718 248208 243970 213414 257421 252718 248208 243970 213413
          257406 252667 248101 243762 219826 213137 257382 252587 247937 243450 239097 234739
          230049 224730 218916 212860 257359 252511 247782 243170 238612 233985 229116 223891
          218365 212675 257346 252465 247692 243012 238358 233624 228694 223509 218107 212586
          256483 250056 244108 238682 233694 229000 224466 220041 215783 211755 256500 250113
          244222 238879 234007 229434 224954 220471 216067 211852 256529 250208 244414 239226
          234598 230317 225992 221374 216648 212045 256558 250307 244618 239605 217535 212315
          256577 250370 244750 239858 212556 256577 250370 244750 239859 212555 256558 250307
          244619 239606 217531 212314 256529 250209 244415 239228 234600 230320 225996 221377
          216649 212045 256500 250113 244223 238881 234010 229437 224958 220475 216069 211852
          256483 250056 244110 238684 233696 229004 224470 220045 215786 211756 255374 247110
          239892 233719 228424 223789 219644 215980 212950 210685 255395 247181 240035 233971
          228829 224344 220252 216503 213284 210798 255430 247299 240277 234414 229588 225447
          221503 217580 213952 211017 255466 247421 240532 234890 219231 214896 211308 255489
          247499 240697 235212 215859 211562 255489 247499 240698 235213 215868 211563 255466
          247421 240532 234891 219242 214902 211310 255430 247300 240278 234417 229591 225452
          221510 217588 213957 211018 255395 247182 240036 233974 228833 224349 220259 216510
          213289 210799 255374 247111 239894 233721 228427 223794 219650 215987 212954 210687
          253632 243049 234490 227626 222089 217535 213735 210766 209017 208988 253657 243134
          234666 227953 222644 218313 214566 211452 209437 209125 253698 243276 234968 228535
          223724 219887 216317 212917 210288 209394 253741 243424 235287 229164 214877 211493
          209745 253768 243516 235494 229628 212471 210025 253768 243517 235495 229628 212483
          210026 253741 243424 235289 229165 214902 211509 209747 253699 243277 234971 228539
          223728 219896 216331 212934 210297 209396 253657 243135 234669 227956 222647 218320
          214578 211465 209444 209128 253632 243050 234492 227629 222093 217542 213744 210776
          209024 208990 250089 236880 227216 219882 214218 209753 206164 203648 202947 205478
          250116 236975 227419 220278 214958 210905 207330 204525 203455 205639 250162 237135
          227768 220985 204538 205960 250209 237300 228143 221825 206375 250238 237397 228343
          206748 250238 237398 228346 206746 250210 237301 228146 221828 206364 250163 237137
          227773 220998 204546 205960 250117 236977 227422 220281 214955 210912 207351 204548
          203465 205641 250089 236881 227218 219885 214221 209760 206177 203662 202955 205480
          270974 269063 269045 270992 266598 264616 264580 266587 266659 263889 263832 266625
          262231 259507 259420 262181 270993 269045 269064 270974 266588 264580 264615 266596
          266625 263832 263889 266660 262181 259420 259507 262230 262652 260639 260591 262635
          259111 257086 257075 259110 258279 255600 255574 258238 254797 252254 252362 254859
          262636 260591 260639 262653 259111 257075 257086 259110 258238 255574 255600 258280
          254859 252362 252255 254797 255986 253965 254020 256009 253194 251227 251332 253243
          251795 249430 249652 251970 249201 247002 247259 249427 256010 254020 253965 255985
          253244 251332 251227 253193 251971 249653 249431 251796 249427 247260 247003 249201
          250688 248759 248903 250756 248370 246490 246648 248453 246864 244791 245052 247103
          244677 242700 242957 244919 250757 248903 248759 250687 248454 246648 246489 248369
          247103 245052 244792 246864 244920 242958 242700 244677 246201 244336 244504 246293
          244092 242241 242416 244194 242578 240675 240930 242821 240520 238680 238933 240763
          246294 244504 244336 246198 244195 242416 242241 244091 242821 240930 240676 242578
          240764 238934 238681 240520 242030 240165 240346 242137 239931 238063 238251 240047
          238468 236685 236937 238713 236389 234659 234913 236637 242138 240346 240165 242027
          240048 238251 238063 239931 238714 236938 236686 238468 236637 234914 234660 236389
          237793 235907 236102 237916 235539 233658 233863 235673 234254 232578 232836 234507
          232035 230417 230681 232296 237917 236103 235907 237791 235674 233863 233658 235540
          234507 232836 232579 234254 232296 230682 230418 232036 233166 231293 231512 233311
          230612 228785 229024 230777 229711 228158 228433 229984 227270 225792 226081 227558
          233311 231512 231293 233164 230776 229024 228786 230614 229984 228433 228160 229713
          227560 226082 225792 227270 227860 226126 226393 228047 224886 223322 223636 225108
          224712 223322 223636 225026 222057 220771 221127 222417 228045 226392 226125 227859
          225104 223631 223317 224889 225025 223634 223317 224707 222413 221122 220762 222047
          221617 220394 220771 221864 218155 217354 217752 218461 219345 218169 218589 219768
          216538 215467 215919 216979 221863 220762 220388 221615 218464 217753 217357 218159
          219766 218585 218162 219341 216982 215918 215468 216541 216801 215269 215651 217199
          214121 212557 212994 214567 217194 215643 215267 216796 214564 212993 212565 214123
          226520 224773 225010 226780 224237 222594 222847 224513 226781 225012 224778 226522
          224513 222847 222598 224238 222143 220566 220294 221844 219692 218155 217847 219354
          217646 216348 217379 218591 214540 213377 214580 215677 218589 217376 216350 217669
          215681 214586 213391 214551 260669 256967 257040 260645 256389 252771 252778 256313
          260645 257040 256969 260670 256313 252778 252771 256389 252567 249173 249192 252571
          249386 246143 246269 249511 252572 249192 249174 252568 249512 246270 246144 249387
          246773 243739 243915 246978 244504 241647 241851 244742 246979 243916 243740 246774
          244742 241852 241648 244504 242424 239725 239937 242668 240446 237891 238103 240689
          242669 239938 239727 242425 240690 238103 237892 240447 238525 236113 236313 238764
          236624 234337 234532 236861 238765 236314 236115 238526 236861 234532 234339 236625
          234716 232543 232734 234951 232773 230702 230902 233009 234951 232735 232545 234717
          233010 230902 230704 232775 230774 228806 229018 231015 228695 226834 227061 228944
          231015 229019 228808 230775 228945 227062 226837 228697 221847 220296 220568 222146
          219362 217862 218162 219698 220527 219011 219788 221186 216708 215539 216583 217702
          221180 219782 219017 220528 217709 216586 215548 216713 228730 226966 227693 229301
          226222 224533 225298 226828 229305 227696 226973 228735 226828 225299 224536 226216
          227546 225732 225210 227092 224515 222839 222244 223988 224208 222777 221948 223533
          221433 220143 219253 220707 258372 255644 255692 258385 254817 252169 252276 254867
          258388 255694 255643 258373 254868 252278 252170 254815 251664 249119 249277 251733
          248882 246461 246714 249016 251734 249279 249123 251664 249016 246715 246461 248879
          246372 244059 244435 246606 244074 241863 242317 244380 246606 244437 244065 246373
          244379 242317 241863 244070 241885 239753 240279 242259 239774 237713 238277 240189
          242260 240280 239758 241887 240189 238277 237712 239771 237671 235670 236275 238125
          235558 233613 234242 236036 238126 236276 235675 237675 236036 234244 233613 235555
          233378 231488 232150 233887 231119 229288 229974 231651 233888 232152 231493 233382
          231652 229976 229290 231117 232576 230570 230993 232929 229952 227991 228449 230345
          223541 221943 222780 224215 220748 219251 220152 221460 225577 223255 223456 225743
          221520 219326 219503 221660 255904 253938 253998 255961 253049 251094 251203 253139
          255962 253998 253938 255899 253139 251203 251093 253042 250476 248516 248665 250604
          248096 246153 246348 248258 250603 248665 248517 250470 248258 246348 246150 248089
          245872 243917 244161 246067 243720 241769 242045 243941 246066 244161 243919 245866
          243942 242045 241765 243713 241616 239639 239951 241864 239483 237500 237835 239751
          241863 239951 239642 241610 239752 237835 237497 239477 237304 235296 235660 237598
          235009 233004 233390 235326 237598 235661 235300 237299 235328 233392 233002 235004
          232929 230998 230576 232573 230346 228452 227990 229950 227093 225207 225734 227549
          223985 222251 222849 224521 225744 223459 223253 225578 221662 219505 219328 221523
          262674 260724 260723 262685 259077 257129 257152 259111 262687 260724 260724 262674
          259111 257153 257127 259072 214890 213153 214497 216068 211972 210437 211651 213232
          216068 214519 213182 214906 213243 211673 210463 211992 213707 211660 212304 214049
          210817 209003 209432 211271 214006 212287 211683 213699 211274 209455 209025 210836
          245262 240595 240906 245371 242544 238303 238541 242610 245372 240908 240605 245265
          242611 238544 238310 242543 240346 236496 236579 240454 238381 234821 234937 238576
          240455 236580 236497 240349 238576 234938 234823 238381 236653 233340 233442 236847
          234998 231883 231994 235187 236848 233442 233343 236654 235187 231994 231886 234999
          233420 230406 230576 233565 231808 228659 229105 231933 233566 230576 230406 233423
          231934 229105 228660 231809 230128 227062 227593 230272 228416 225475 226046 228577
          230272 227594 227064 230131 228578 226046 225477 228418 215365 213732 215081 216552
          212175 210850 212072 213316 216575 215097 213748 215380 213332 212092 210873 212189
          246241 242927 243443 246642 243730 240592 241301 244241 246645 243446 242934 246243
          244241 241302 240597 243726 241460 238494 239432 242076 239377 236563 237589 240063
          242078 239434 238499 241462 240064 237591 236568 239374 237374 234693 235813 238132
          235427 232861 234034 236227 238134 235815 234697 237377 236228 234037 232865 235425
          233474 231013 232244 234327 231495 229113 230324 232386 234330 232245 231015 233478
          232388 230323 229116 231495 226661 223872 224487 226843 224842 222192 222872 225042
          226844 224488 223874 226665 225043 222873 222196 224847 222932 220415 221197 223154
          220884 218456 219330 221134 223156 221198 220427 222943 221136 219331 218479 220894
          218996 217176 216407 218701 216614 214711 214097 216301 229451 227151 228276 230383
          227329 225129 226248 228284 230386 228274 227152 229455 228287 226250 225136 227331
          225093 223002 224157 226084 222741 220728 221930 223766 226088 224160 223017 225101
          223771 221940 220752 222745 220239 218330 219600 221333 217636 215802 217112 218785
          218702 216373 217127 219003 216324 214075 214708 216622 221335 219616 218361 220248
          218776 217195 215841 217642 252481 248875 249066 252593 249127 245620 245939 249340
          252596 249066 248879 252481 249342 245942 245634 249127 219058 217126 218098 219830
          215040 213416 214548 215883 219832 218110 217137 219063 215890 214561 213426 215047
          211352 209563 210724 212648 208881 206761 208291 209945 212674 210744 209577 211381
          209971 208310 206779 208907 212007 210258 211789 213467 209109 207073 209170 210705
          213490 211808 210270 212031 210728 209196 207105 209166 209785 208465 208804 210229
          207431 205541 206056 207827 210255 208812 208485 209806 207838 206065 205555 207447
          252657 247531 247705 252823 248608 243651 243903 248804 252824 247706 247535 252659
          248804 243901 243669 248608 231444 225591 226436 232243 230124 224423 225369 230929
          232244 226436 225628 231445 230930 225365 224453 230130 228833 223411 224365 229675
          227507 222348 223246 228414 229675 224361 223440 228837 228414 223239 222376 227518
          226128 221358 222137 227212 224636 220245 220829 225679 227212 222131 221384 226132
          225681 220823 220272 224651 235216 228985 229290 235708 233080 226942 227481 233903
          235714 229291 228989 235212 233904 227480 226977 233083 235036 231138 232120 235960
          233250 229517 230572 234283 235961 232123 231163 235041 234284 230569 229539 233256
          239156 234907 235602 239771 236974 232856 233721 237734 239776 235598 234909 239154
          237736 233719 232879 236977 231538 228009 229059 232629 229844 226480 227480 230952
          232632 229062 228031 231543 230953 227475 226500 229852 223260 219270 219735 224047
          221893 218224 218627 222595 224048 219728 219296 223267 222597 218621 218252 221907
          208596 207173 208370 210018 205073 203484 204947 207084 209022 207956 207174 207985
          206223 204707 203790 204754 210043 208389 207189 208608 207111 204967 203502 205096
          228157 225014 225972 229242 226420 223474 224411 227480 229243 225974 225035 228162
          227480 224405 223494 226428 207979 207168 207937 209000 204739 203785 204695 206201
          224650 221945 222852 225675 222807 220261 221153 223824 220569 217259 217623 221194
          219155 216109 216414 219742 221195 217618 217283 220573 219746 216415 216113 219160
          225677 222855 221965 224655 223828 221150 220266 222809
        </DataArray>
        <DataArray type="Float32" Name="nonwetting pressure" NumberOfComponents="1" format="ascii">
          265446 270457 271849 270750 267668 262787 256063 247239 235774 220567 265450 270470
          271874 270790 267727 262873 256178 247364 235871 220604 265457 270492 271914 270853
          267816 263014 256385 247611 236070 220678 265464 270514 271955 270913 267867 263123
          256611 247963 236365 220787 265468 270528 271981 270964 236691 220899 265468 270528
          271982 270964 236698 220899 265464 270514 271955 270913 267867 263125 256617 247967
          236368 220787 265457 270492 271914 270853 267816 263015 256387 247613 236071 220678
          265450 270471 271874 270790 267727 262874 256179 247365 235872 220604 265446 270457
          271850 270751 267669 262788 256064 247240 235774 220567 261893 264255 264508 262888
          259602 254737 248242 239948 229611 217029 261898 264271 264539 262938 259680 254854
          248397 240113 229738 217076 261906 264297 264590 263024 259810 255065 248706 240468
          230017 217177 261914 264324 264643 263120 241070 230508 217348 261919 264341 264672
          263155 217589 261919 264341 264672 263155 217583 261914 264324 264643 263120 241076
          230510 217348 261906 264298 264590 263024 259811 255065 248706 240469 230018 217177
          261898 264271 264539 262939 259681 254854 248398 240114 229738 217076 261893 264255
          264509 262888 259603 254738 248243 239949 229611 217029 260136 260145 259012 256640
          253038 248201 242066 234537 225567 215296 260142 260166 259054 256710 253150 248371
          242289 234767 225740 215359 260153 260201 259123 256832 253350 248704 242774 235290
          226142 215501 260164 260238 259196 256969 226941 215756 260171 260260 259240 257040
          216128 260171 260260 259240 257040 216126 260164 260238 259197 256969 226933 215754
          260153 260201 259123 256833 253350 248705 242774 235291 226141 215500 260143 260166
          259054 256711 253151 248372 242290 234768 225740 215359 260136 260145 259013 256640
          253038 248202 242067 234538 225567 215296 259013 257156 254716 251551 247597 242794
          237062 230338 222652 214201 259022 257184 254771 251648 247755 243031 237363 230634
          222866 214277 259036 257231 254866 251819 248050 243525 238046 231318 223365 214448
          259050 257280 254967 252014 224347 214751 259059 257310 255031 252136 215160 259059
          257310 255031 252136 215160 259050 257280 254967 252014 224343 214750 259036 257231
          254866 251820 248051 243526 238047 231319 223364 214448 259022 257184 254772 251649
          247756 243032 237364 230635 222866 214277 259013 257156 254716 251552 247598 242795
          237063 230339 222653 214201 258143 254722 251089 247156 242848 238079 232751 226808
          220290 213357 258154 254758 251161 247282 243054 238380 233118 227153 220530 213441
          258172 254819 251284 247507 243447 239019 233952 227938 221071 213623 258191 254882
          251416 247762 222052 213923 258203 254923 251501 247930 214275 258203 254923 251501
          247930 214275 258191 254883 251416 247762 222050 213922 258172 254819 251285 247508
          243448 239020 233954 227940 221070 213623 258154 254759 251162 247283 243055 238382
          233120 227154 220531 213441 258143 254722 251090 247157 242849 238080 232753 226809
          220291 213357 257345 252465 247690 243010 238356 233622 228691 223507 218106 212586
          257359 252510 247781 243169 238610 233982 229113 223889 218364 212675 257382 252587
          247936 243449 239095 234737 230047 224728 218916 212860 257406 252667 248101 243762
          219829 213137 257421 252718 248208 243970 213414 257421 252718 248208 243970 213413
          257406 252667 248101 243762 219826 213137 257382 252587 247937 243450 239097 234739
          230049 224730 218916 212860 257359 252511 247782 243170 238612 233985 229116 223891
          218365 212675 257346 252465 247692 243012 238358 233624 228694 223509 218107 212586
          256483 250056 244108 238682 233694 229000 224466 220041 215783 211755 256500 250113
          244222 238879 234007 229434 224954 220471 216067 211852 256529 250208 244414 239226
          234598 230317 225992 221374 216648 212045 256558 250307 244618 239605 217535 212315
          256577 250370 244750 239858 212556 256577 250370 244750 239859 212555 256558 250307
          244619 239606 217531 212314 256529 250209 244415 239228 234600 230320 225996 221377
          216649 212045 256500 250113 244223 238881 234010 229437 224958 220475 216069 211852
          256483 250056 244110 238684 233696 229004 224470 220045 215786 211756 255374 247110
          239892 233719 228424 223789 219644 215980 212950 210685 255395 247181 240035 233971
          228829 224344 220252 216503 213284 210798 255430 247299 240277 234414 229588 225447
          221503 217580 213952 211017 255466 247421 240532 234890 219231 214896 211308 255489
          247499 240697 235212 215859 211562 255489 247499 240698 235213 215868 211563 255466
          247421 240532 234891 219242 214902 211310 255430 247300 240278 234417 229591 225452
          221510 217588 213957 211018 255395 247182 240036 233974 228833 224349 220259 216510
          213289 210799 255374 247111 239894 233721 228427 223794 219650 215987 212954 210687
          253632 243049 234490 227626 222089 217535 213735 210766 209017 208988 253657 243134
          234666 227953 222644 218313 214566 211452 209437 209125 253698 243276 234968 228535
          223724 219887 216317 212917 210288 209394 253741 243424 235287 229164 214877 211493
          209745 253768 243516 235494 229628 212471 210025 253768 243517 235495 229628 212483
          210026 253741 243424 235289 229165 214902 211509 209747 253699 243277 234971 228539
          223728 219896 216331 212934 210297 209396 253657 243135 234669 227956 222647 218320
          214578 211465 209444 209128 253632 243050 234492 227629 222093 217542 213744 210776
          209024 208990 250089 236880 227216 219882 214218 209753 206164 203648 202947 205478
          250116 236975 227419 220278 214958 210905 207330 204525 203455 205639 250162 237135
          227768 220985 204538 205960 250209 237300 228143 221825 206375 250238 237397 228343
          206748 250238 237398 228346 206746 250210 237301 228146 221828 206364 250163 237137
          227773 220998 204546 205960 250117 236977 227422 220281 214955 210912 207351 204548
          203465 205641 250089 236881 227218 219885 214221 209760 206177 203662 202955 205480
          270974 269063 269240 270992 266598 264631 264924 266587 266666 263889 263929 266872
          262268 259528 259674 262635 270993 269240 269064 270974 266588 264924 264631 266596
          266872 263930 263889 266666 262635 259674 259528 262266 262652 260679 261049 262635
          259111 257165 257626 259110 258372 255678 255996 258864 254977 252429 252904 255605
          262636 261049 260680 262653 259111 257626 257165 259110 258864 255996 255679 258373
          255605 252904 252430 254977 255986 254092 254635 256009 253194 251398 251986 253243
          252064 249698 250252 252781 249530 247321 247880 250268 256010 254635 254092 255985
          253244 251987 251398 253193 252781 250252 249698 252065 250269 247880 247322 249530
          250688 248961 249581 250756 248370 246709 247339 248453 247224 245134 245680 247961
          245053 243052 243587 245786 250757 249581 248961 250687 248454 247339 246709 248369
          247961 245680 245134 247224 245786 243587 243053 245053 246201 244564 245202 246293
          244092 242473 243117 244194 242962 241032 241559 243693 240908 239039 239563 241640
          246294 245202 244564 246198 244195 243117 242473 244091 243693 241560 241033 242962
          241640 239563 239039 240908 242030 240397 241047 242137 239931 238296 238952 240047
          238858 237043 237566 239594 236781 235018 235541 237521 242138 241047 240397 242027
          240048 238952 238296 239931 239594 237566 237044 238859 237521 235541 235019 236782
          237793 236139 236803 237916 235539 233890 234567 235673 234648 232937 233463 235395
          232433 230777 231308 233189 237917 236803 236139 237791 235674 234567 233891 235540
          235395 233463 232938 234649 233189 231309 230778 232434 233166 231529 232221 233311
          230612 229029 229744 230777 230115 228520 229060 230884 227684 226158 226710 228469
          233311 232221 231529 233164 230776 229744 229030 230614 230884 229060 228522 230117
          228470 226710 226158 227684 227860 226386 227136 228047 224886 223615 224423 225108
          225141 223695 224269 225953 222514 221158 221770 223372 228045 227136 226385 227859
          225104 224420 223610 224889 225951 224267 223691 225136 223369 221766 221151 222505
          221617 220798 221705 221864 218536 218559 219511 219156 219909 218635 219323 220841
          217902 216686 217449 218873 221863 221702 220795 221615 219157 219513 218563 218538
          220840 219321 218633 219907 218875 217450 216691 217906 217148 215501 215998 217707
          215145 213372 213982 215805 217705 215992 215504 217147 215808 213987 213387 215153
          226804 224972 225322 227221 224520 222788 223152 224951 227222 225323 224976 226806
          224951 223153 222792 224522 222580 220867 220486 222130 220133 218457 218043 219647
          217705 216413 217630 218846 215142 213990 215487 216628 218846 217630 216418 217729
          216636 215498 214008 215156 260669 256967 257058 260686 256389 252771 252856 256452
          260686 257058 256969 260670 256452 252856 252771 256389 252617 249205 249373 252850
          249527 246248 246554 249904 252850 249373 249205 252618 249904 246554 246249 249527
          246996 243912 244256 247428 244774 241858 242210 245210 247428 244256 243913 246998
          245210 242210 241859 244774 242713 239955 240298 243140 240741 238125 238460 241159
          243141 240299 239956 242714 241160 238460 238126 240742 238821 236345 236664 239231
          236919 234566 234876 237323 239231 236665 236347 238822 237323 234876 234567 236920
          235009 232766 233071 235408 233063 230919 231232 233463 235409 233072 232768 235010
          233463 231233 230920 233065 231061 229015 229342 231463 228980 227038 227378 229389
          231464 229342 229017 231063 229389 227379 227041 228982 222132 220487 220870 222582
          219654 218053 218462 220137 220527 219011 219914 221186 216708 215957 217340 217781
          221180 219910 219017 220528 217784 217346 215967 216713 228730 226966 227848 229433
          226222 224533 225458 226968 229435 227851 226973 228735 226967 225459 224536 226216
          227546 225789 225210 227092 224515 222913 222244 223988 224361 222947 221948 223533
          221615 220329 219253 220726 258372 255644 255692 258385 254817 252169 252276 254867
          258388 255694 255643 258373 254868 252278 252170 254815 251664 249119 249309 251752
          248882 246461 246788 249064 251753 249311 249123 251664 249064 246789 246461 248879
          246372 244059 244541 246680 244074 241863 242442 244473 246680 244543 244065 246373
          244473 242443 241863 244070 241885 239753 240415 242365 239774 237713 238418 240301
          242365 240416 239758 241887 240301 238419 237712 239771 237671 235670 236419 238242
          235558 233613 234389 236155 238243 236421 235675 237675 236155 234390 233613 235555
          233378 231488 232298 234008 231119 229288 230125 231776 234010 232301 231493 233382
          231777 230127 229290 231117 232576 230570 231036 232929 229952 227991 228497 230345
          223541 221943 222950 224369 220760 219251 220337 221639 225577 223255 223456 225743
          221520 219326 219503 221660 255904 253938 253998 255961 253049 251094 251203 253139
          255962 253998 253938 255899 253139 251203 251093 253042 250476 248516 248676 250604
          248096 246153 246370 248258 250603 248676 248517 250470 248258 246370 246150 248089
          245872 243917 244190 246067 243720 241769 242079 243941 246066 244190 243919 245866
          243942 242079 241765 243713 241616 239639 239987 241864 239483 237500 237872 239751
          241863 239988 239642 241610 239752 237872 237497 239477 237304 235296 235699 237598