<?xml version="1.0"?>
<VTKFile type="UnstructuredGrid" version="0.1" byte_order="LittleEndian">
  <UnstructuredGrid>
    <Piece NumberOfCells="1600" NumberOfPoints="1681">
      <PointData Scalars="p">
        <DataArray type="Float32" Name="p" NumberOfComponents="1" format="ascii">
          5.29712e-05 0.0252144 -0.000581851 0.0244872 0.0490521 0.0471308 -0.00131678 0.0249833 0.0476181 0.0714128 0.0689141 0.0924843
          0.0893824 0.112189 0.108663 0.0696624 0.0902729 0.109678 -0.00179966 0.0250721 -0.00224682 0.0252303 0.0474501 0.0474643
          -0.00257614 0.0253244 0.0474342 0.0694936 0.0900403 0.0695721 0.0901187 0.109413 0.109505 0.069574 0.0901072 0.109494
          0.130556 0.126714 0.147583 0.143544 0.127815 0.1447 0.163279 0.159146 0.177649 0.173521 0.190699 0.186664
          0.160328 0.174701 0.187818 0.127521 0.127619 0.144388 0.14449 0.127604 0.144473 0.160007 0.174378 0.16011
          0.174481 0.187501 0.187601 0.160092 0.174462 0.187583 -0.00281826 0.0253986 0.0474223 -0.00297072 0.0254438 0.0474125
          0.0695911 0.0901188 0.109509 0.069599 0.0901226 0.109514 -0.00304158 0.0254662 -0.00303618 0.0254669 0.0474093 0.0474115
          -0.00296096 0.0254482 0.0474193 0.0696055 0.0901276 0.0696092 0.0901318 0.109521 0.109525 0.0696111 0.0901362 0.10953
          0.127619 0.144489 0.127624 0.144494 0.160107 0.174477 0.187597 0.160112 0.174482 0.187602 0.12763 0.127636
          0.144501 0.144506 0.12764 0.144511 0.160119 0.174488 0.160124 0.174494 0.187608 0.187614 0.160129 0.174499
          0.187619 0.202435 0.198576 0.212864 0.209253 0.19968 0.210288 0.221992 0.218694 0.229826 0.226897 0.236372
          0.233861 0.219641 0.227741 0.234587 0.199376 0.199472 0.210003 0.210092 0.199454 0.210076 0.21938 0.227509
          0.219463 0.227583 0.234388 0.234453 0.219448 0.22757 0.234443 0.241637 0.239584 0.245627 0.244064 0.240181
          0.244523 0.248348 0.247299 0.249808 0.249289 0.250012 0.250031 0.247614 0.249454 0.250044 0.240018 0.240073
          0.244399 0.244443 0.240065 0.244438 0.247531 0.249414 0.247563 0.249434 0.250046 0.250055 0.247562 0.249436
          0.25006 0.199468 0.210089 0.199472 0.210093 0.21946 0.227582 0.234453 0.219464 0.227586 0.234458 0.199479
          0.199484 0.210099 0.210105 0.199489 0.21011 0.21947 0.227592 0.219476 0.227597 0.234463 0.234468 0.219481
          0.227602 0.234473 0.240075 0.244447 0.24008 0.244452 0.24757 0.249442 0.250065 0.247574 0.249447 0.25007
          0.240085 0.24009 0.244457 0.244462 0.240095 0.244467 0.24758 0.249452 0.247584 0.249457 0.250075 0.25008
          0.247589 0.249461 0.250084 -0.00282218 0.0254119 0.0474322 -0.00262624 0.0253599 0.0474497 0.0696112 0.0901405 0.109534
          0.0696099 0.090145 0.109537 -0.00237956 0.0252939 -0.00208859 0.0252156 0.0474715 0.0474968 -0.0017598 0.0251267 0.0475253
          0.0696075 0.0901496 0.0696039 0.0901544 0.10954 0.109543 0.0695994 0.0901592 0.109545 0.127645 0.144515 0.127649
          0.14452 0.160134 0.174504 0.187624 0.160138 0.174508 0.187628 0.127652 0.127656 0.144523 0.144527 0.127659
          0.14453 0.160142 0.174512 0.160146 0.174516 0.187632 0.187636 0.160149 0.174519 0.187639 -0.00139964 0.0250289
          0.0475562 -0.00101458 0.0249237 0.047589 0.069594 0.0901641 0.109547 0.0695878 0.0901689 0.109549 -0.000611098 0.0248129
          -0.000195639 0.0246981 0.0476231 0.0476579 0.000225339 0.0245809 0.0476928 0.0695809 0.0901736 0.0695734 0.090178 0.10955
          0.109551 0.0695652 0.0901821 0.109552 0.127662 0.144533 0.127665 0.144535 0.160152 0.174522 0.187643 0.160155
          0.174525 0.187646 0.127667 0.12767 0.144538 0.14454 0.127672 0.144542 0.160158 0.174528 0.16016 0.17453
          0.187648 0.187651 0.160162 0.174533 0.187653 0.199494 0.210114 0.199498 0.210119 0.219485 0.227606 0.234478
          0.21949 0.227611 0.234482 0.199502 0.199506 0.210123 0.210127 0.19951 0.210131 0.219494 0.227615 0.219498
          0.227619 0.234486 0.23449 0.219501 0.227623 0.234494 0.2401 0.244471 0.240104 0.244476 0.247593 0.249466
          0.250088 0.247598 0.24947 0.250092 0.240108 0.240112 0.24448 0.244484 0.240116 0.244487 0.247602 0.249474
          0.247606 0.249478 0.250096 0.2501 0.247609 0.249481 0.250103 0.199513 0.210134 0.199516 0.210137 0.219505
          0.227626 0.234498 0.219508 0.227629 0.234501 0.199519 0.199522 0.21014 0.210143 0.199524 0.210146 0.219511
          0.227633 0.219514 0.227636 0.234504 0.234507 0.219517 0.227638 0.23451 0.240119 0.244491 0.240122 0.244494
          0.247613 0.249485 0.250107 0.247616 0.249488 0.25011 0.240126 0.240129 0.244497 0.244501 0.240132 0.244503
          0.247619 0.249491 0.247622 0.249495 0.250114 0.250117 0.247625 0.249497 0.25012 0.248966 0.249523 0.246678
          0.247765 0.249384 0.247476 0.243154 0.244754 0.2384 0.240489 0.232423 0.234967 0.244319 0.239915 0.234263
          0.24943 0.249426 0.247564 0.247547 0.249434 0.247559 0.244448 0.240082 0.24442 0.240042 0.234467 0.234416
          0.244434 0.240059 0.234435 0.225228 0.228188 0.216823 0.220149 0.227364 0.21922 0.207213 0.210849 0.196406
          0.200286 0.184407 0.188458 0.209829 0.199194 0.187314 0.227601 0.22754 0.219486 0.219415 0.227561 0.219438
          0.21012 0.199503 0.21004 0.199416 0.187636 0.187543 0.210064 0.199441 0.187567 0.249439 0.247562 0.249444
          0.247567 0.244436 0.24006 0.234434 0.244441 0.240065 0.234439 0.249448 0.249452 0.247571 0.247576 0.249457
          0.247579 0.244445 0.240068 0.244449 0.240072 0.234442 0.234445 0.244452 0.240075 0.234448 0.227559 0.219434
          0.227563 0.219438 0.210059 0.199434 0.187559 0.210062 0.199436 0.18756 0.227566 0.227568 0.219439 0.219442
          0.227571 0.219444 0.210063 0.199436 0.210064 0.199437 0.187559 0.187559 0.210066 0.199438 0.18756 0.171223
          0.175364 0.156861 0.161001 0.17419 0.159822 0.141326 0.145367 0.124624 0.128463 0.106765 0.110279 0.14421
          0.127355 0.109253 0.174517 0.17442 0.160148 0.160048 0.174443 0.160069 0.144526 0.127654 0.144425 0.127554
          0.109522 0.109424 0.144443 0.127568 0.109434 0.087745 0.0908321 0.0675974 0.0700608 0.0899223 0.0692919 0.0462492
          0.0481312 0.0238649 0.0245154 0.000310713 0.000791462 0.0476098 0.023992 0.00152121 0.0901582 0.0900695 0.0694619 0.0693703
          0.0900761 0.0693614 0.0477778 0.0239063 0.0477435 0.0237259 0.00202074 0.00243962 0.0477602 0.0236175 0.00274757 0.174433
          0.160057 0.174433 0.160055 0.144429 0.127553 0.109415 0.144426 0.127548 0.109408 0.174431 0.17443 0.160052
          0.16005 0.17443 0.16005 0.144421 0.127542 0.144419 0.127538 0.109401 0.109396 0.144418 0.127537 0.109394
          0.0900581 0.0693353 0.0900498 0.0693208 0.0477572 0.0235255 0.00296833 0.0477549 0.0234667 0.00310427 0.0900415 0.0900361
          0.0693093 0.0693033 0.0900328 0.069302 0.0477487 0.0234338 0.0477405 0.0234272 0.00316412 0.00315358 0.0477307 0.0234444
          0.00307908 0.249461 0.247583 0.249465 0.247587 0.244456 0.240079 0.234452 0.24446 0.240082 0.234455 0.249468
          0.249472 0.247591 0.247595 0.249476 0.247598 0.244463 0.240086 0.244467 0.24009 0.234458 0.234462 0.244471
          0.240093 0.234466 0.227574 0.219447 0.227577 0.21945 0.210069 0.19944 0.187561 0.210071 0.199443 0.187564
          0.227581 0.227584 0.219453 0.219456 0.227588 0.21946 0.210075 0.199446 0.210078 0.19945 0.187567 0.187571
          0.210082 0.199454 0.187576 0.249479 0.247602 0.249483 0.247605 0.244474 0.240097 0.234469 0.244478 0.2401
          0.234473 0.249486 0.249489 0.247609 0.247612 0.249492 0.247615 0.244481 0.240104 0.244484 0.240107 0.234477
          0.234481 0.244488 0.240111 0.234484 0.227592 0.219464 0.227596 0.219469 0.210087 0.199459 0.187581 0.210091
          0.199464 0.187586 0.2276 0.227604 0.219473 0.219477 0.227608 0.219481 0.210096 0.199469 0.210101 0.199474
          0.187592 0.187598 0.210105 0.19948 0.187604 0.174432 0.160051 0.174434 0.160053 0.144419 0.127537 0.109395
          0.144421 0.127539 0.109398 0.174437 0.174441 0.160057 0.160061 0.174446 0.160067 0.144424 0.127543 0.144429
          0.127548 0.109402 0.109409 0.144436 0.127555 0.109418 0.0900319 0.0693053 0.0900331 0.0693128 0.0477195 0.0234836
          0.00294654 0.0477074 0.0235428 0.00276195 0.0900365 0.0900419 0.0693242 0.0693392 0.0900489 0.0693574 0.0476945 0.0236199
          0.0476812 0.0237128 0.00253116 0.00226003 0.0476675 0.0238193 0.0019544 0.174452 0.160073 0.174458 0.16008 0.144443
          0.127563 0.109428 0.144451 0.127572 0.109439 0.174465 0.174472 0.160088 0.160096 0.174479 0.160104 0.14446
          0.127582 0.144469 0.127593 0.109452 0.109465 0.144479 0.127603 0.109479 0.0900576 0.0693782 0.0900675 0.0694013
          0.0476536 0.0239372 0.00162008 0.0476397 0.0240643 0.00126289 0.0900785 0.0900903 0.0694261 0.0694522 0.0901026 0.0694792
          0.0476259 0.0241986 0.0476124 0.0243376 0.000888654 0.000503192 0.0475991 0.0244794 0.000112334 0.000645389 0.0244631 0.0477271
          0.00105807 0.0243462 0.0477603 0.0695566 0.0901858 0.109553 0.0695475 0.090189 0.109553 0.00145695 0.024232 0.00183561
          0.024122 0.0477918 0.047821 0.00218762 0.0240181 0.0478474 0.069538 0.0901915 0.0695282 0.0901934 0.109552 0.109551
          0.0695183 0.0901946 0.10955 0.127673 0.144543 0.127674 0.144545 0.160164 0.174535 0.187656 0.160166 0.174537
          0.187658 0.127675 0.127676 0.144546 0.144546 0.127676 0.144547 0.160167 0.174538 0.160168 0.17454 0.18766
          0.187662 0.160169 0.174542 0.187664 0.00250658 0.0239219 0.0478703 0.00278607 0.023835 0.0478893 0.0695084 0.0901951
          0.109549 0.0694985 0.0901947 0.109547 0.0030197 0.0237593 0.00320105 0.0236965 0.0479038 0.0479133 0.00332376 0.0236482
          0.0479174 0.0694888 0.0901936 0.0694796 0.0901918 0.109545 0.109543 0.069471 0.0901893 0.109541 0.127676 0.144547
          0.127676 0.144548 0.160171 0.174543 0.187666 0.160172 0.174545 0.187668 0.127676 0.127675 0.144548 0.144549
          0.127675 0.14455 0.160173 0.174547 0.160175 0.174549 0.18767 0.187673 0.160177 0.174552 0.187677 0.199527
          0.210148 0.199529 0.210151 0.21952 0.227641 0.234513 0.219522 0.227644 0.234515 0.199531 0.199534 0.210153
          0.210155 0.199536 0.210158 0.219525 0.227646 0.219527 0.227649 0.234518 0.234521 0.21953 0.227652 0.234523
          0.240134 0.244506 0.240137 0.244509 0.247628 0.2495 0.250122 0.247631 0.249503 0.250125 0.24014 0.240142
          0.244511 0.244514 0.240145 0.244516 0.247633 0.249505 0.247636 0.249508 0.250127 0.25013 0.247638 0.24951
          0.250132 0.199538 0.21016 0.199541 0.210163 0.219532 0.227654 0.234526 0.219535 0.227657 0.234529 0.199544
          0.199547 0.210166 0.21017 0.199551 0.210174 0.219538 0.22766 0.219542 0.227664 0.234532 0.234535 0.219546
          0.227668 0.234539 0.240147 0.244519 0.24015 0.244521 0.24764 0.249512 0.250133 0.247642 0.249513 0.250135
          0.240153 0.240156 0.244524 0.244526 0.240159 0.244529 0.247644 0.249515 0.247647 0.249517 0.250136 0.250137
          0.247649 0.249518 0.250138 0.00338134 0.0236165 0.0479155 0.00336756 0.0236027 0.0479074 0.0694635 0.0901863 0.109539
          0.0694569 0.0901828 0.109538 0.00327548 0.0236096 0.0031 0.0236368 0.0478928 0.0478706 0.00283091 0.0236935 0.0478453
          0.0694527 0.0901798 0.0694486 0.0901752 0.109538 0.109537 0.0694545 0.0901787 0.109546 0.127675 0.144551 0.127676
          0.144554 0.160179 0.174556 0.187681 0.160183 0.17456 0.187686 0.127678 0.127679 0.144558 0.144561 0.127691
          0.144575 0.160188 0.174567 0.160193 0.174572 0.187693 0.1877 0.160209 0.174589 0.187717 0.0024723 0.0237616
          0.0477998 0.00198783 0.0239062 0.0478015 0.0694411 0.0901577 0.109528 0.0695121 0.090231 0.109618 0.00145797 0.0239499
          0.000670783 0.0244528 0.04761 0.048095 -0.000103354 0.0237692 0.0462113 0.069319 0.0899837 0.0700698 0.090876 0.109344
          0.110363 0.0675785 0.0877917 0.106859 0.127673 0.144558 0.127771 0.144662 0.160193 0.174575 0.187704 0.1603
          0.174683 0.18781 0.127475 0.128582 0.144354 0.145518 0.124766 0.141506 0.159987 0.174371 0.161177 0.17556
          0.187507 0.188669 0.157073 0.171459 0.18466 0.199555 0.210179 0.199561 0.210185 0.219551 0.227673 0.234543
          0.219557 0.227678 0.234548 0.199569 0.199575 0.210192 0.210199 0.199593 0.210216 0.219564 0.227685 0.219571
          0.227691 0.234554 0.23456 0.219587 0.227706 0.234573 0.240163 0.244532 0.240167 0.244536 0.247651 0.24952
          0.250138 0.247654 0.249521 0.250139 0.240173 0.240178 0.24454 0.244544 0.240188 0.244553 0.247657 0.249523
          0.24766 0.249525 0.250139 0.25014 0.247666 0.249528 0.25014 0.199581 0.210206 0.199683 0.210301 0.219578
          0.227698 0.234567 0.219666 0.227777 0.234634 0.199394 0.200506 0.210032 0.211072 0.196668 0.207479 0.219421
          0.22756 0.220371 0.228404 0.234449 0.235173 0.217085 0.225482 0.232664 0.240184 0.24455 0.240239 0.244591
          0.247664 0.249528 0.250141 0.247692 0.249542 0.25014 0.240089 0.240681 0.244479 0.244929 0.238624 0.243357
          0.247618 0.249507 0.247921 0.249657 0.250146 0.250141 0.246856 0.249117 0.250134 0.249495 0.247618 0.249498
          0.24762 0.244491 0.240114 0.234487 0.244493 0.240116 0.23449 0.2495 0.249502 0.247622 0.247624 0.249504
          0.247626 0.244495 0.240119 0.244497 0.240121 0.234493 0.234495 0.244499 0.240122 0.234496 0.227611 0.219485
          0.227614 0.219489 0.21011 0.199485 0.18761 0.210114 0.199489 0.187615 0.227617 0.227619 0.219492 0.219494
          0.227621 0.219496 0.210117 0.199494 0.21012 0.199497 0.18762 0.187625 0.210122 0.1995 0.187628 0.249505
          0.247627 0.249506 0.247628 0.2445 0.240123 0.234497 0.2445 0.240123 0.234497 0.249507 0.249507 0.247628
          0.247628 0.249507 0.247627 0.2445 0.240122 0.244499 0.240121 0.234496 0.234494 0.244497 0.240119 0.234491
          0.227621 0.219497 0.227621 0.219497 0.210123 0.199501 0.18763 0.210123 0.199501 0.187631 0.22762 0.227617
          0.219495 0.219493 0.227614 0.219488 0.210122 0.1995 0.210119 0.199497 0.18763 0.187627 0.210115 0.199493
          0.187623 0.174486 0.160112 0.174492 0.160119 0.144488 0.127614 0.109492 0.144497 0.127625 0.109506 0.174498
          0.174503 0.160126 0.160133 0.174507 0.160138 0.144506 0.127635 0.144514 0.127644 0.109519 0.109531 0.144521
          0.127653 0.109542 0.0901152 0.0695064 0.0901277 0.0695334 0.0475864 0.0246216 -0.000278087 0.0475743 0.0247622 -0.00066223
          0.0901398 0.0901514 0.0695598 0.069585 0.090162 0.0696084 0.0475628 0.0248988 0.0475523 0.0250294 -0.00103424 -0.00138827
          0.0475426 0.0251517 -0.00171845 0.17451 0.160142 0.174512 0.160145 0.144526 0.12766 0.109552 0.14453 0.127665
          0.10956 0.174512 0.174509 0.160145 0.160144 0.174505 0.16014 0.144532 0.127668 0.144531 0.127669 0.109565
          0.109568 0.144528 0.127667 0.109568 0.0901713 0.0696297 0.090179 0.0696482 0.047534 0.0252635 -0.0020189 0.0475267
          0.0253628 -0.00228375 0.0901849 0.0901884 0.0696635 0.0696749 0.0901893 0.069682 0.0475206 0.0254473 0.0475159 0.0255148
          -0.0025071 -0.00268304 0.0475126 0.0255633 -0.00280571 0.249507 0.247626 0.249506 0.247624 0.244495 0.240115 0.234486
          0.244492 0.240111 0.234481 0.249505 0.249504 0.247621 0.247619 0.249502 0.247613 0.244488 0.240105 0.244484
          0.2401 0.234474 0.234467 0.244476 0.240089 0.234453 0.227609 0.219483 0.227602 0.219475 0.210108 0.199486
          0.187615 0.2101 0.199477 0.187606 0.227594 0.227586 0.219465 0.219456 0.227569 0.219436 0.210089 0.199465
          0.210078 0.199452 0.187593 0.18758 0.210056 0.199428 0.187554 0.249504 0.247617 0.249488 0.247587 0.24448
          0.240094 0.234459 0.244436 0.240036 0.234388 0.249534 0.249374 0.247671 0.247359 0.2499 0.248409 0.244558
          0.240194 0.244098 0.239593 0.234579 0.233846 0.245656 0.241636 0.236341 0.227575 0.219442 0.227492 0.219349
          0.210062 0.199433 0.187558 0.209959 0.199322 0.18744 0.227713 0.226859 0.219596 0.218635 0.229767 0.221907
          0.210227 0.199607 0.209176 0.198483 0.187735 0.18656 0.212756 0.202307 0.190554 0.174498 0.160133 0.174488
          0.160123 0.144522 0.127661 0.109564 0.144512 0.127653 0.109557 0.174474 0.17446 0.160109 0.160094 0.174433
          0.160065 0.144498 0.127639 0.144483 0.127624 0.109544 0.109528 0.144453 0.127594 0.109499 0.0901871 0.069684
          0.0901814 0.0696805 0.0475109 0.0255903 -0.00286907 0.0475107 0.0255939 -0.00286748 0.0901711 0.0901577 0.06967 0.0696537
          0.090132 0.0696232 0.0475117 0.0255713 0.0475146 0.0255214 -0.00279431 -0.00264546 0.0475148 0.0254376 -0.00241048 0.174435
          0.160066 0.174313 0.159942 0.144451 0.12759 0.109491 0.144328 0.127469 0.109375 0.174612 0.173408 0.160237
          0.159029 0.177493 0.163116 0.144611 0.127733 0.143427 0.126602 0.109608 0.10856 0.147418 0.130394 0.112034
          0.0901239 0.0696026 0.0900205 0.0694988 0.0475271 0.0253291 -0.00209507 0.0474892 0.0251512 -0.00166691 0.0902206 0.0892947
          0.0696346 0.0688454 0.092342 0.0712936 0.0476231 0.0250335 0.0470933 0.0244948 -0.00118376 -0.000542855 0.0489225 0.0251886
          9.60539e-05
        </DataArray>
        <DataArray type="Float32" Name="rho" NumberOfComponents="1" format="ascii">
          1 1 1 1 1 1 1 1 1 1 1 1
          1 1 1 1 1 1 1 1 1 1 1 1
          1 1 1 1 1 1 1 1 1 1 1 1
          1 1 1 1 1 1 1 1 1 1 1 1
          1 1 1 1 1 1 1 1 1 1 1 1
          1 1 1 1 1 1 1 1 1 1 1 1
          1 1 1 1 1 1 1 1 1 1 1 1
          1 1 1 1 1 1 1 1 1 1 1 1
          1 1 1 1 1 1 1 1 1 1 1 1
          1 1 1 1 1 1 1 1 1 1 1 1
          1 1 1 1 1 1 1 1 1 1 1 1
          1 1 1 1 1 1 1 1 1 1 1 1
          1 1 1 1 1 1 1 1 1 1 1 1
          1 1 1 1 1 1 1 1 1 1 1 1
          1 1 1 1 1 1 1 1 1 1 1 1
          1 1 1 1 1 1 1 1 1 1 1 1
          1 1 1 1 1 1 1 1 1 1 1 1
          1 1 1 1 1 1 1 1 1 1 1 1
          1 1 1 1 1 1 1 1 1 1 1 1
          1 1 1 1 1 1 1 1 1 1 1 1
          1 1 1 1 1 1 1 1 1 1 1 1
          1 1 1 1 1 1 1 1 1 1 1 1
          1 1 1 1 1 1 1 1 1 1 1 1
          1 1 1 1 1 1 1 1 1 1 1 1
          1 1 1 1 1 1 1 1 1 1 1 1
          1 1 1 1 1 1 1 1 1 1 1 1
          1 1 1 1 1 1 1 1 1 1 1 1
          1 1 1 1 1 1 1 1 1 1 1 1
          1 1 1 1 1 1 1 1 1 1 1 1
          1 1 1 1 1 1 1 1 1 1 1 1
          1 1 1 1 1 1 1 1 1 1 1 1
          1 1 1 1 1 1 1 1 1 1 1 1
          1 1 1 1 1 1 1 1 1 1 1 1
          1 1 1 1 1 1 1 1 1 1 1 1
          1 1 1 1 1 1 1 1 1 1 1 1
          1 1 1 1 1 1 1 1 1 1 1 1
          1 1 1 1 1 1 1 1 1 1 1 1
          1 1 1 1 1 1 1 1 1 1 1 1
          1 1 1 1 1 1 1 1 1 1 1 1
          1 1 1 1 1 1 1 1 1 1 1 1
          1 1 1 1 1 1 1 1 1 1 1 1
          1 1 1 1 1 1 1 1 1 1 1 1
          1 1 1 1 1 1 1 1 1 1 1 1
          1 1 1 1 1 1 1 1 1 1 1 1
          1 1 1 1 1 1 1 1 1 1 1 1
          1 1 1 1 1 1 1 1 1 1 1 1
          1 1 1 1 1 1 1 1 1 1 1 1
          1 1 1 1 1 1 1 1 1 1 1 1
          1 1 1 1 1 1 1 1 1 1 1 1
          1 1 1 1 1 1 1 1 1 1 1 1
          1 1 1 1 1 1 1 1 1 1 1 1
          1 1 1 1 1 1 1 1 1 1 1 1
          1 1 1 1 1 1 1 1 1 1 1 1
          1 1 1 1 1 1 1 1 1 1 1 1
          1 1 1 1 1 1 1 1 1 1 1 1
          1 1 1 1 1 1 1 1 1 1 1 1
          1 1 1 1 1 1 1 1 1 1 1 1
          1 1 1 1 1 1 1 1 1 1 1 1
          1 1 1 1 1 1 1 1 1 1 1 1
          1 1 1 1 1 1 1 1 1 1 1 1
          1 1 1 1 1 1 1 1 1 1 1 1
          1 1 1 1 1 1 1 1 1 1 1 1
          1 1 1 1 1 1 1 1 1 1 1 1
          1 1 1 1 1 1 1 1 1 1 1 1
          1 1 1 1 1 1 1 1 1 1 1 1
          1 1 1 1 1 1 1 1 1 1 1 1
          1 1 1 1 1 1 1 1 1 1 1 1
          1 1 1 1 1 1 1 1 1 1 1 1
          1 1 1 1 1 1 1 1 1 1 1 1
          1 1 1 1 1 1 1 1 1 1 1 1
          1 1 1 1 1 1 1 1 1 1 1 1
          1 1 1 1 1 1 1 1 1 1 1 1
          1 1 1 1 1 1 1 1 1 1 1 1
          1 1 1 1 1 1 1 1 1 1 1 1
          1 1 1 1 1 1 1 1 1 1 1 1
          1 1 1 1 1 1 1 1 1 1 1 1
          1 1 1 1 1 1 1 1 1 1 1 1
          1 1 1 1 1 1 1 1 1 1 1 1
          1 1 1 1 1 1 1 1 1 1 1 1
          1 1 1 1 1 1 1 1 1 1 1 1
          1 1 1 1 1 1 1 1 1 1 1 1
          1 1 1 1 1 1 1 1 1 1 1 1
          1 1 1 1 1 1 1 1 1 1 1 1
          1 1 1 1 1 1 1 1 1 1 1 1
          1 1 1 1 1 1 1 1 1 1 1 1
          1 1 1 1 1 1 1 1 1 1 1 1
          1 1 1 1 1 1 1 1 1 1 1 1
          1 1 1 1 1 1 1 1 1 1 1 1
          1 1 1 1 1 1 1 1 1 1 1 1
          1 1 1 1 1 1 1 1 1 1 1 1
          1 1 1 1 1 1 1 1 1 1 1 1
          1 1 1 1 1 1 1 1 1 1 1 1
          1 1 1 1 1 1 1 1 1 1 1 1
          1 1 1 1 1 1 1 1 1 1 1 1
          1 1 1 1 1 1 1 1 1 1 1 1
          1 1 1 1 1 1 1 1 1 1 1 1
          1 1 1 1 1 1 1 1 1 1 1 1
          1 1 1 1 1 1 1 1 1 1 1 1
          1 1 1 1 1 1 1 1 1 1 1 1
          1 1 1 1 1 1 1 1 1 1 1 1
          1 1 1 1 1 1 1 1 1 1 1 1
          1 1 1 1 1 1 1 1 1 1 1 1
          1 1 1 1 1 1 1 1 1 1 1 1
          1 1 1 1 1 1 1 1 1 1 1 1
          1 1 1 1 1 1 1 1 1 1 1 1
          1 1 1 1 1 1 1 1 1 1 1 1
          1 1 1 1 1 1 1 1 1 1 1 1
          1 1 1 1 1 1 1 1 1 1 1 1
          1 1 1 1 1 1 1 1 1 1 1 1
          1 1 1 1 1 1 1 1 1 1 1 1
          1 1 1 1 1 1 1 1 1 1 1 1
          1 1 1 1 1 1 1 1 1 1 1 1
          1 1 1 1 1 1 1 1 1 1 1 1
          1 1 1 1 1 1 1 1 1 1 1 1
          1 1 1 1 1 1 1 1 1 1 1 1
          1 1 1 1 1 1 1 1 1 1 1 1
          1 1 1 1 1 1 1 1 1 1 1 1
          1 1 1 1 1 1 1 1 1 1 1 1
          1 1 1 1 1 1 1 1 1 1 1 1
          1 1 1 1 1 1 1 1 1 1 1 1
          1 1 1 1 1 1 1 1 1 1 1 1
          1 1 1 1 1 1 1 1 1 1 1 1
          1 1 1 1 1 1 1 1 1 1 1 1
          1 1 1 1 1 1 1 1 1 1 1 1
          1 1 1 1 1 1 1 1 1 1 1 1
          1 1 1 1 1 1 1 1 1 1 1 1
          1 1 1 1 1 1 1 1 1 1 1 1
          1 1 1 1 1 1 1 1 1 1 1 1
          1 1 1 1 1 1 1 1 1 1 1 1
          1 1 1 1 1 1 1 1 1 1 1 1
          1 1 1 1 1 1 1 1 1 1 1 1
          1 1 1 1 1 1 1 1 1 1 1 1
          1 1 1 1 1 1 1 1 1 1 1 1
          1 1 1 1 1 1 1 1 1 1 1 1
          1 1 1 1 1 1 1 1 1 1 1 1
          1 1 1 1 1 1 1 1 1 1 1 1
          1 1 1 1 1 1 1 1 1 1 1 1
          1 1 1 1 1 1 1 1 1 1 1 1
          1 1 1 1 1 1 1 1 1 1 1 1
          1 1 1 1 1 1 1 1 1 1 1 1
          1
        </DataArray>
        <DataArray type="Float32" Name="pressureExact" NumberOfComponents="1" format="ascii">
          0 0.024375 0 0.024375 0.0475 0.0475 0 0.024375 0.0475 0.069375 0.069375 0.09
          0.09 0.109375 0.109375 0.069375 0.09 0.109375 0 0.024375 0 0.024375 0.0475 0.0475
          0 0.024375 0.0475 0.069375 0.09 0.069375 0.09 0.109375 0.109375 0.069375 0.09 0.109375
          0.1275 0.1275 0.144375 0.144375 0.1275 0.144375 0.16 0.16 0.174375 0.174375 0.1875 0.1875
          0.16 0.174375 0.1875 0.1275 0.1275 0.144375 0.144375 0.1275 0.144375 0.16 0.174375 0.16
          0.174375 0.1875 0.1875 0.16 0.174375 0.1875 0 0.024375 0.0475 0 0.024375 0.0475
          0.069375 0.09 0.109375 0.069375 0.09 0.109375 0 0.024375 0 0.024375 0.0475 0.0475
          0 0.024375 0.0475 0.069375 0.09 0.069375 0.09 0.109375 0.109375 0.069375 0.09 0.109375
          0.1275 0.144375 0.1275 0.144375 0.16 0.174375 0.1875 0.16 0.174375 0.1875 0.1275 0.1275
          0.144375 0.144375 0.1275 0.144375 0.16 0.174375 0.16 0.174375 0.1875 0.1875 0.16 0.174375
          0.1875 0.199375 0.199375 0.21 0.21 0.199375 0.21 0.219375 0.219375 0.2275 0.2275 0.234375
          0.234375 0.219375 0.2275 0.234375 0.199375 0.199375 0.21 0.21 0.199375 0.21 0.219375 0.2275
          0.219375 0.2275 0.234375 0.234375 0.219375 0.2275 0.234375 0.24 0.24 0.244375 0.244375 0.24
          0.244375 0.2475 0.2475 0.249375 0.249375 0.25 0.25 0.2475 0.249375 0.25 0.24 0.24
          0.244375 0.244375 0.24 0.244375 0.2475 0.249375 0.2475 0.249375 0.25 0.25 0.2475 0.249375
          0.25 0.199375 0.21 0.199375 0.21 0.219375 0.2275 0.234375 0.219375 0.2275 0.234375 0.199375
          0.199375 0.21 0.21 0.199375 0.21 0.219375 0.2275 0.219375 0.2275 0.234375 0.234375 0.219375
          0.2275 0.234375 0.24 0.244375 0.24 0.244375 0.2475 0.249375 0.25 0.2475 0.249375 0.25
          0.24 0.24 0.244375 0.244375 0.24 0.244375 0.2475 0.249375 0.2475 0.249375 0.25 0.25
          0.2475 0.249375 0.25 0 0.024375 0.0475 0 0.024375 0.0475 0.069375 0.09 0.109375
          0.069375 0.09 0.109375 0 0.024375 0 0.024375 0.0475 0.0475 0 0.024375 0.0475
          0.069375 0.09 0.069375 0.09 0.109375 0.109375 0.069375 0.09 0.109375 0.1275 0.144375 0.1275
          0.144375 0.16 0.174375 0.1875 0.16 0.174375 0.1875 0.1275 0.1275 0.144375 0.144375 0.1275
          0.144375 0.16 0.174375 0.16 0.174375 0.1875 0.1875 0.16 0.174375 0.1875 0 0.024375
          0.0475 0 0.024375 0.0475 0.069375 0.09 0.109375 0.069375 0.09 0.109375 0 0.024375
          0 0.024375 0.0475 0.0475 0 0.024375 0.0475 0.069375 0.09 0.069375 0.09 0.109375
          0.109375 0.069375 0.09 0.109375 0.1275 0.144375 0.1275 0.144375 0.16 0.174375 0.1875 0.16
          0.174375 0.1875 0.1275 0.1275 0.144375 0.144375 0.1275 0.144375 0.16 0.174375 0.16 0.174375
          0.1875 0.1875 0.16 0.174375 0.1875 0.199375 0.21 0.199375 0.21 0.219375 0.2275 0.234375
          0.219375 0.2275 0.234375 0.199375 0.199375 0.21 0.21 0.199375 0.21 0.219375 0.2275 0.219375
          0.2275 0.234375 0.234375 0.219375 0.2275 0.234375 0.24 0.244375 0.24 0.244375 0.2475 0.249375
          0.25 0.2475 0.249375 0.25 0.24 0.24 0.244375 0.244375 0.24 0.244375 0.2475 0.249375
          0.2475 0.249375 0.25 0.25 0.2475 0.249375 0.25 0.199375 0.21 0.199375 0.21 0.219375
          0.2275 0.234375 0.219375 0.2275 0.234375 0.199375 0.199375 0.21 0.21 0.199375 0.21 0.219375
          0.2275 0.219375 0.2275 0.234375 0.234375 0.219375 0.2275 0.234375 0.24 0.244375 0.24 0.244375
          0.2475 0.249375 0.25 0.2475 0.249375 0.25 0.24 0.24 0.244375 0.244375 0.24 0.244375
          0.2475 0.249375 0.2475 0.249375 0.25 0.25 0.2475 0.249375 0.25 0.249375 0.249375 0.2475
          0.2475 0.249375 0.2475 0.244375 0.244375 0.24 0.24 0.234375 0.234375 0.244375 0.24 0.234375
          0.249375 0.249375 0.2475 0.2475 0.249375 0.2475 0.244375 0.24 0.244375 0.24 0.234375 0.234375
          0.244375 0.24 0.234375 0.2275 0.2275 0.219375 0.219375 0.2275 0.219375 0.21 0.21 0.199375
          0.199375 0.1875 0.1875 0.21 0.199375 0.1875 0.2275 0.2275 0.219375 0.219375 0.2275 0.219375
          0.21 0.199375 0.21 0.199375 0.1875 0.1875 0.21 0.199375 0.1875 0.249375 0.2475 0.249375
          0.2475 0.244375 0.24 0.234375 0.244375 0.24 0.234375 0.249375 0.249375 0.2475 0.2475 0.249375
          0.2475 0.244375 0.24 0.244375 0.24 0.234375 0.234375 0.244375 0.24 0.234375 0.2275 0.219375
          0.2275 0.219375 0.21 0.199375 0.1875 0.21 0.199375 0.1875 0.2275 0.2275 0.219375 0.219375
          0.2275 0.219375 0.21 0.199375 0.21 0.199375 0.1875 0.1875 0.21 0.199375 0.1875 0.174375
          0.174375 0.16 0.16 0.174375 0.16 0.144375 0.144375 0.1275 0.1275 0.109375 0.109375 0.144375
          0.1275 0.109375 0.174375 0.174375 0.16 0.16 0.174375 0.16 0.144375 0.1275 0.144375 0.1275
          0.109375 0.109375 0.144375 0.1275 0.109375 0.09 0.09 0.069375 0.069375 0.09 0.069375 0.0475
          0.0475 0.024375 0.024375 0 0 0.0475 0.024375 0 0.09 0.09 0.069375 0.069375
          0.09 0.069375 0.0475 0.024375 0.0475 0.024375 0 0 0.0475 0.024375 0 0.174375
          0.16 0.174375 0.16 0.144375 0.1275 0.109375 0.144375 0.1275 0.109375 0.174375 0.174375 0.16
          0.16 0.174375 0.16 0.144375 0.1275 0.144375 0.1275 0.109375 0.109375 0.144375 0.1275 0.109375
          0.09 0.069375 0.09 0.069375 0.0475 0.024375 0 0.0475 0.024375 0 0.09 0.09
          0.069375 0.069375 0.09 0.069375 0.0475 0.024375 0.0475 0.024375 0 0 0.0475 0.024375
          0 0.249375 0.2475 0.249375 0.2475 0.244375 0.24 0.234375 0.244375 0.24 0.234375 0.249375
          0.249375 0.2475 0.2475 0.249375 0.2475 0.244375 0.24 0.244375 0.24 0.234375 0.234375 0.244375
          0.24 0.234375 0.2275 0.219375 0.2275 0.219375 0.21 0.199375 0.1875 0.21 0.199375 0.1875
          0.2275 0.2275 0.219375 0.219375 0.2275 0.219375 0.21 0.199375 0.21 0.199375 0.1875 0.1875
          0.21 0.199375 0.1875 0.249375 0.2475 0.249375 0.2475 0.244375 0.24 0.234375 0.244375 0.24
          0.234375 0.249375 0.249375 0.2475 0.2475 0.249375 0.2475 0.244375 0.24 0.244375 0.24 0.234375
          0.234375 0.244375 0.24 0.234375 0.2275 0.219375 0.2275 0.219375 0.21 0.199375 0.1875 0.21
          0.199375 0.1875 0.2275 0.2275 0.219375 0.219375 0.2275 0.219375 0.21 0.199375 0.21 0.199375
          0.1875 0.1875 0.21 0.199375 0.1875 0.174375 0.16 0.174375 0.16 0.144375 0.1275 0.109375
          0.144375 0.1275 0.109375 0.174375 0.174375 0.16 0.16 0.174375 0.16 0.144375 0.1275 0.144375
          0.1275 0.109375 0.109375 0.144375 0.1275 0.109375 0.09 0.069375 0.09 0.069375 0.0475 0.024375
          0 0.0475 0.024375 0 0.09 0.09 0.069375 0.069375 0.09 0.069375 0.0475 0.024375
          0.0475 0.024375 0 0 0.0475 0.024375 0 0.174375 0.16 0.174375 0.16 0.144375
          0.1275 0.109375 0.144375 0.1275 0.109375 0.174375 0.174375 0.16 0.16 0.174375 0.16 0.144375
          0.1275 0.144375 0.1275 0.109375 0.109375 0.144375 0.1275 0.109375 0.09 0.069375 0.09 0.069375
          0.0475 0.024375 0 0.0475 0.024375 0 0.09 0.09 0.069375 0.069375 0.09 0.069375
          0.0475 0.024375 0.0475 0.024375 0 0 0.0475 0.024375 0 0 0.024375 0.0475
          0 0.024375 0.0475 0.069375 0.09 0.109375 0.069375 0.09 0.109375 0 0.024375 0
          0.024375 0.0475 0.0475 0 0.024375 0.0475 0.069375 0.09 0.069375 0.09 0.109375 0.109375
          0.069375 0.09 0.109375 0.1275 0.144375 0.1275 0.144375 0.16 0.174375 0.1875 0.16 0.174375
          0.1875 0.1275 0.1275 0.144375 0.144375 0.1275 0.144375 0.16 0.174375 0.16 0.174375 0.1875
          0.1875 0.16 0.174375 0.1875 0 0.024375 0.0475 0 0.024375 0.0475 0.069375 0.09
          0.109375 0.069375 0.09 0.109375 0 0.024375 0 0.024375 0.0475 0.0475 0 0.024375
          0.0475 0.069375 0.09 0.069375 0.09 0.109375 0.109375 0.069375 0.09 0.109375 0.1275 0.144375
          0.1275 0.144375 0.16 0.174375 0.1875 0.16 0.174375 0.1875 0.1275 0.1275 0.144375 0.144375