<?xml version="1.0"?>
<VTKFile type="UnstructuredGrid" version="0.1" byte_order="LittleEndian">
  <UnstructuredGrid>
    <Piece NumberOfCells="4096" NumberOfPoints="4225">
      <PointData Scalars="S_liq">
        <DataArray type="Float32" Name="S_liq" NumberOfComponents="1" format="ascii">
          1 1 1 1 1 1 1 1 1 1 1 1
          1 1 1 1 1 1 1 1 1 1 1 1
          1 1 1 1 1 1 1 1 1 1 1 1
          1 1 1 1 1 1 1 1 0.983703 1 0.897093 0.903732
          0.827915 0.847084 0.825824 0.843129 0.825692 0.842687 0.825661 0.842521 0.825653 0.842468 0.825664 0.842525
          0.825629 0.842599 0.824061 0.840199 0.799644 0.809613 0.800037 0.810714 0.80034 0.811606 0.800417 0.811939
          0.800453 0.812123 0.800489 0.812295 0.800543 0.81253 0.800804 0.813235 0.804121 0.819807 0.889533 0.890251
          0.992282 1 1 1 1 1 1 1 1 1 1 1
          1 1 1 1 1 1 1 1 1 1 1 1
          1 1 1 1 1 1 1 1 1 1 1 1
          1 1 1 1 1 1 1 1 1 1 1 1
          1 1 1 1 1 1 1 1 1 1 1 1
          1 1 1 1 1 1 1 1 1 0.97265 0.885887 0.879415
          0.877774 0.87699 0.876724 0.876959 0.877716 0.875726 0.835939 0.836665 0.838435 0.839435 0.840191 0.840984
          0.842019 0.843968 0.853645 0.958583 1 1 1 1 1 1 1 1
          1 1 1 1 1 1 1 1 1 1 1 1
          1 1 1 1 1 1 1 1 1 1 1 1
          1 1 1 1 1 1 1 1 1 1 1 1
          1 1 1 0.971093 0.958824 0.954538 0.952371 0.951612 0.952168 0.954246 0.954113 0.894165
          0.898475 0.902987 0.905827 0.908218 0.910848 0.914271 0.919924 0.94007 1 1 1 1
          1 1 1 1 1 1 1 1 1 1 1 1
          1 1 1 1 1 1 1 1 1 1 1 1
          1 1 1 1 1 1 1 1 1 1 1 1
          1 1 1 1 1 1 1 1 1 1 1 1
          1 1 1 1 0.991703 0.995471 0.998269 0.999868 1 1 1 1
          1 1 1 1 1 1 1 1 1 1 1 1
          1 1 1 1 1 1 1 1 1 1 1 1
          1 1 1 1 1 1 1 1 1 1 1 1
          1 1 1 1 1 1 1 1 1 1 1 1
          1 1 1 1 1 1 1 1 1 1 1 1
          1 1 1 1 1 1 1 1 1 1 1 1
          1 1 1 1 1 1 1 1 1 1 1 1
          1 1 1 1 1 1 1 1 1 1 1 1
          1 1 1 1 1 1 1 1 1 1 1 1
          1 1 1 1 1 1 1 1 1 1 1 1
          1 1 1 1 1 1 1 1 1 1 1 1
          1 1 1 1 1 1 1 1 1 1 1 1
          1 1 1 1 1 1 1 1 1 1 1 1
          1 1 1 1 1 1 1 1 1 1 1 1
          1 1 1 1 1 1 1 1 1 1 1 1
          1 1 1 1 1 1 1 1 1 1 1 1
          1 1 1 1 1 1 1 1 1 1 1 1
          1 1 1 1 1 1 1 1 1 1 1 1
          1 1 1 1 1 1 1 1 1 1 1 1
          1 1 1 1 1 1 1 1 1 1 1 1
          1 1 1 1 1 1 1 1 1 1 1 1
          1 1 1 1 1 1 1 1 1 1 1 1
          1 1 1 1 1 1 1 1 1 1 1 1
          1 1 1 1 1 1 1 1 1 1 1 1
          1 1 1 1 1 1 1 1 1 1 1 1
          1 1 1 1 1 1 1 1 1 1 1 1
          1 1 1 1 1 1 1 1 1 1 1 1
          1 1 1 1 1 1 1 1 1 1 1 1
          1 1 1 1 1 1 1 1 1 1 1 1
          1 1 1 1 1 1 1 1 1 1 1 1
          1 1 1 1 1 1 1 1 1 1 1 1
          1 1 1 1 1 1 1 1 1 1 1 1
          1 1 1 1 1 1 1 1 1 1 1 1
          1 1 1 1 1 1 1 1 1 1 1 1
          1 1 1 1 1 1 1 1 1 1 1 1
          1 1 1 1 1 1 1 1 1 1 1 1
          1 1 1 1 1 1 1 1 1 1 1 1
          1 1 1 1 1 1 1 1 1 1 1 1
          1 1 1 1 1 1 1 1 1 1 1 1
          1 1 1 1 1 1 1 1 1 1 1 1
          1 1 1 1 1 1 1 1 1 1 1 1
          1 1 1 1 1 1 1 1 1 1 1 1
          1 1 1 1 1 1 1 1 1 1 1 1
          1 1 1 1 1 1 1 1 1 1 1 1
          1 1 1 1 1 1 1 1 1 1 1 1
          1 1 1 1 1 1 1 1 1 1 1 1
          1 1 1 1 1 1 1 1 1 1 1 1
          1 1 1 1 1 1 1 1 1 1 1 1
          1 1 1 1 1 1 1 1 1 1 1 1
          1 1 1 1 1 1 1 1 1 1 1 1
          1 1 1 1 1 1 1 1 1 1 1 1
          1 1 1 1 1 1 1 1 1 1 1 1
          1 1 1 1 1 1 1 1 1 1 1 1
          1 1 1 1 1 1 1 1 1 1 1 1
          1 1 1 1 1 1 1 1 1 1 1 1
          1 1 1 1 1 1 1 1 1 1 1 1
          1 1 1 1 1 1 1 1 1 1 1 1
          1 1 1 1 1 1 1 1 1 1 1 1
          1 1 1 1 1 1 1 1 1 1 1 1
          1 1 1 1 1 1 1 1 1 1 1 1
          1 1 1 1 1 1 1 1 1 1 1 1
          1 1 1 1 1 1 1 1 1 1 1 1
          1 1 1 1 1 1 1 1 1 1 1 1
          1 1 1 1 1 1 1 1 1 1 1 1
          1 1 1 1 1 1 1 1 1 1 1 1
          1 1 1 1 1 1 1 1 1 1 1 1
          1 1 1 1 1 1 1 1 1 1 1 1
          1 1 1 1 1 1 1 1 1 1 1 1
          1 1 1 1 1 1 1 1 1 1 1 1
          1 1 1 1 1 1 1 1 1 1 1 1
          1 1 1 1 1 1 1 1 1 1 1 1
          1 1 1 1 1 1 1 1 1 1 1 1
          1 1 1 1 1 1 1 1 1 1 1 1
          1 1 1 1 1 1 1 1 1 1 1 1
          1 1 1 1 1 1 1 1 1 1 1 1
          1 1 1 1 1 1 1 1 1 1 1 1
          1 1 1 1 1 1 1 1 1 1 1 1
          1 1 1 1 1 1 1 1 1 1 1 1
          1 1 1 1 1 1 1 1 1 1 1 1
          1 1 1 1 1 1 1 1 1 1 1 1
          1 1 1 1 1 1 1 1 1 1 1 1
          1 1 1 1 1 1 1 1 1 1 1 1
          1 1 1 1 1 1 1 1 1 1 1 1
          1 1 1 1 1 1 1 1 1 1 1 1
          1 1 1 1 1 1 1 1 1 1 1 1
          1 1 1 1 1 1 1 1 1 1 1 1
          1 1 1 1 1 1 1 1 1 1 1 1
          1 1 1 1 1 1 1 1 1 1 1 1
          1 1 1 1 1 1 1 1 1 1 1 1
          1 1 1 1 1 1 1 1 1 1 1 1
          1 1 1 1 1 1 1 1 1 1 1 1
          1 1 1 1 1 1 1 1 1 1 1 1
          1 1 1 1 1 1 1 1 1 1 1 1
          1 1 1 1 1 1 1 1 1 1 1 1
          1 1 1 1 1 1 1 1 1 1 1 1
          1 1 1 1 1 1 1 1 1 1 1 1
          1 1 1 1 1 1 1 1 1 1 1 1
          1 1 1 1 1 1 1 1 1 1 1 1
          1 1 1 1 1 1 1 1 1 1 1 1
          1 1 1 1 1 1 1 1 1 1 1 1
          1 1 1 1 1 1 1 1 1 1 1 1
          1 1 1 1 1 1 1 1 1 1 1 1
          1 1 1 1 1 1 1 1 1 1 1 1
          1 1 1 1 1 1 1 1 1 1 1 1
          1 1 1 1 1 1 1 1 1 1 1 1
          1 1 1 1 1 1 1 1 1 1 1 1
          1 1 1 1 1 1 1 1 1 1 1 1
          1 1 1 1 1 1 1 1 1 1 1 1
          1 1 1 1 1 1 1 1 1 1 1 1
          1 1 1 1 1 1 1 1 1 1 1 1
          1 1 1 1 1 1 1 1 1 1 1 1
          1 1 1 1 1 1 1 1 1 1 1 1
          1 1 1 1 1 1 1 1 1 1 1 1
          1 1 1 1 1 1 1 1 1 1 1 1
          1 1 1 1 1 1 1 1 1 1 1 1
          1 1 1 1 1 1 1 1 1 1 1 1
          1 1 1 1 1 1 1 1 1 1 1 1
          1 1 1 1 1 1 1 1 1 1 1 1
          1 1 1 1 1 1 1 1 1 1 1 1
          1 1 1 1 1 1 1 1 1 1 1 1
          1 1 1 1 1 1 1 1 1 1 1 1
          1 1 1 1 1 1 1 1 1 1 1 1
          1 1 1 1 1 1 1 1 1 1 1 1
          1 1 1 1 1 1 1 1 1 1 1 1
          1 1 1 1 1 1 1 1 1 1 1 1
          1 1 1 1 1 1 1 1 1 1 1 1
          1 1 1 1 1 1 1 1 1 1 1 1
          1 1 1 1 1 1 1 1 1 1 1 1
          1 1 1 1 1 1 1 1 1 1 1 1
          1 1 1 1 1 1 1 1 1 1 1 1
          1 1 1 1 1 1 1 1 1 1 1 1
          1 1 1 1 1 1 1 1 1 1 1 1
          1 1 1 1 1 1 1 1 1 1 1 1
          1 1 1 1 1 1 1 1 1 1 1 1
          1 1 1 1 1 1 1 1 1 1 1 1
          1 1 1 1 1 1 1 1 1 1 1 1
          1 1 1 1 1 1 1 1 1 1 1 1
          1 1 1 1 1 1 1 1 1 1 1 1
          1 1 1 1 1 1 1 1 1 1 1 1
          1 1 1 1 1 1 1 1 1 1 1 1
          1 1 1 1 1 1 1 1 1 1 1 1
          1 1 1 1 1 1 1 1 1 1 1 1
          1 1 1 1 1 1 1 1 1 1 1 1
          1 1 1 1 1 1 1 1 1 1 1 1
          1 1 1 1 1 1 1 1 1 1 1 1
          1 1 1 1 1 1 1 1 1 1 1 1
          1 1 1 1 1 1 1 1 1 1 1 1
          1 1 1 1 1 1 1 1 1 1 1 1
          1 1 1 1 1 1 1 1 1 1 1 1
          1 1 1 1 1 1 1 1 1 1 1 1
          1 1 1 1 1 1 1 1 1 1 1 1
          1 1 1 1 1 1 1 1 1 1 1 1
          1 1 1 1 1 1 1 1 1 1 1 1
          1 1 1 1 1 1 1 1 1 1 1 1
          1 1 1 1 1 1 1 1 1 1 1 1
          1 1 1 1 1 1 1 1 1 1 1 1
          1 1 1 1 1 1 1 1 1 1 1 1
          1 1 1 1 1 1 1 1 1 1 1 1
          1 1 1 1 1 1 1 1 1 1 1 1
          1 1 1 1 1 1 1 1 1 1 1 1
          1 1 1 1 1 1 1 1 1 1 1 1
          1 1 1 1 1 1 1 1 1 1 1 1
          1 1 1 1 1 1 1 1 1 1 1 1
          1 1 1 1 1 1 1 1 1 1 1 1
          1 1 1 1 1 1 1 1 1 1 1 1
          1 1 1 1 1 1 1 1 1 1 1 1
          1 1 1 1 1 1 1 1 1 1 1 1
          1 1 1 1 1 1 1 1 1 1 1 1
          1 1 1 1 1 1 1 1 1 1 1 1
          1 1 1 1 1 1 1 1 1 1 1 1
          1 1 1 1 1 1 1 1 1 1 1 1
          1 1 1 1 1 1 1 1 1 1 1 1
          1 1 1 1 1 1 1 1 1 1 1 1
          1 1 1 1 1 1 1 1 1 1 1 1
          1 1 1 1 1 1 1 1 1 1 1 1
          1 1 1 1 1 1 1 1 1 1 1 1
          1 1 1 1 1 1 1 1 1 1 1 1
          1 1 1 1 1 1 1 1 1 1 1 1
          1 1 1 1 1 1 1 1 1 1 1 1
          1 1 1 1 1 1 1 1 1 1 1 1
          1 1 1 1 1 1 1 1 1 1 1 1
          1 1 1 1 1 1 1 1 1 1 1 1
          1 1 1 1 1 1 1 1 1 1 1 1
          1 1 1 1 1 1 1 1 1 1 1 1
          1 1 1 1 1 1 1 1 1 1 1 1
          1 1 1 1 1 1 1 1 1 1 1 1
          1 1 1 1 1 1 1 1 1 1 1 1
          1 1 1 1 1 1 1 1 1 1 1 1
          1 1 1 1 1 1 1 1 1 1 1 1
          1 1 1 1 1 1 1 1 1 1 1 1
          1 1 1 1 1 1 1 1 1 1 1 1
          1 1 1 1 1 1 1 1 1 1 1 1
          1 1 1 1 1 1 1 1 1 1 1 1
          1 1 1 1 1 1 1 1 1 1 1 1
          1 1 1 1 1 1 1 1 1 1 1 1
          1 1 1 1 1 1 1 1 1 1 1 1
          1 1 1 1 1 1 1 1 1 1 1 1
          1 1 1 1 1 1 1 1 1 1 1 1
          1 1 1 1 1 1 1 1 1 1 1 1
          1 1 1 1 1 1 1 1 1 1 1 1
          1 1 1 1 1 1 1 1 1 1 1 1
          1 1 1 1 1 1 1 1 1 1 1 1
          1 1 1 1 1 1 1 1 1 1 1 1
          1 1 1 1 1 1 1 1 1 1 1 1
          1 1 1 1 1 1 1 1 1 1 1 1
          1 1 1 1 1 1 1 1 1 1 1 1
          1 1 1 1 1 1 1 1 1 1 1 1
          1 1 1 1 1 1 1 1 1 1 1 1
          1 1 1 1 1 1 1 1 1 1 1 1
          1 1 1 1 1 1 1 1 1 1 1 1
          1 1 1 1 1 1 1 1 1 1 1 1
          1 1 1 1 1 1 1 1 1 1 1 1
          1 1 1 1 1 1 1 1 1 1 1 1
          1 1 1 1 1 1 1 1 1 1 1 1
          1 1 1 1 1 1 1 1 1 1 1 1
          1 1 1 1 1 1 1 1 1 1 1 1
          1 1 1 1 1 1 1 1 1 1 1 1
          1 1 1 1 1 1 1 1 1 1 1 1
          1 1 1 1 1 1 1 1 1 1 1 1
          1 1 1 1 1 1 1 1 1 1 1 1
          1 1 1 1 1 1 1 1 1 1 1 1
          1 1 1 1 1 1 1 1 1 1 1 1
          1 1 1 1 1 1 1 1 1 1 1 1
          1 1 1 1 1 1 1 1 1 1 1 1
          1 1 1 1 1 1 1 1 1 1 1 1
          1 1 1 1 1 1 1 1 1 1 1 1
          1 1 1 1 1 1 1 1 1 1 1 1
          1 1 1 1 1 1 1 1 1 1 1 1
          1 1 1 1 1 1 1 1 1 1 1 1
          1 1 1 1 1 1 1 1 1 1 1 1
          1 1 1 1 1 1 1 1 1 1 1 1
          1 1 1 1 1 1 1 1 1 1 1 1
          1 1 1 1 1 1 1 1 1 1 1 1
          1 1 1 1 1 1 1 1 1 1 1 1
          1 1 1 1 1 1 1 1 1 1 1 1
          1 1 1 1 1 1 1 1 1 1 1 1
          1 1 1 1 1 1 1 1 1 1 1 1
          1 1 1 1 1 1 1 1 1 1 1 1
          1 1 1 1 1 1 1 1 1 1 1 1
          1 1 1 1 1 1 1 1 1 1 1 1
          1 1 1 1 1 1 1 1 1 1 1 1
          1 1 1 1 1 1 1 1 1 1 1 1
          1 1 1 1 1 1 1 1 1 1 1 1
          1 1 1 1 1 1 1 1 1 1 1 1
          1 1 1 1 1 1 1 1 1 1 1 1
          1 1 1 1 1 1 1 1 1 1 1 1
          1 1 1 1 1 1 1 1 1 1 1 1
          1 1 1 1 1 1 1 1 1 1 1 1
          1 1 1 1 1 1 1 1 1 1 1 1
          1 1 1 1 1 1 1 1 1 1 1 1
          1 1 1 1 1 1 1 1 1 1 1 1
          1 1 1 1 1 1 1 1 1 1 1 1
          1 1 1 1 1 1 1 1 1 1 1 1
          1 1 1 1 1 1 1 1 1 1 1 1
          1 1 1 1 1 1 1 1 1 1 1 1
          1 1 1 1 1 1 1 1 1 1 1 1
          1 1 1 1 1 1 1 1 1 1 1 1
          1 1 1 1 1 1 1 1 1 1 1 1
          1 1 1 1 1 1 1 1 1 1 1 1
          1 1 1 1 1 1 1 1 1 1 1 1
          1 1 1 1 1 1 1 1 1 1 1 1
          1 1 1 1 1 1 1 1 1 1 1 1
          1 1 1 1 1 1 1 1 1 1 1 1
          1 1 1 1 1 1 1 1 1 1 1 1
          1 1 1 1 1 1 1 1 1 1 1 1
          1 1 1 1 1 1 1 1 1 1 1 1
          1 1 1 1 1 1 1 1 1 1 1 1
          1 1 1 1 1 1 1 1 1 1 1 1
          1 1 1 1 1 1 1 1 1 1 1 1
          1 1 1 1 1 1 1 1 1 1 1 1
          1 1 1 1 1 1 1 1 1 1 1 1
          1 1 1 1 1 1 1 1 1 1 1 1
          1 1 1 1 1 1 1 1 1 1 1 1
          1 1 1 1 1 1 1 1 1 1 1 1
          1 1 1 1 1 1 1 1 1 1 1 1
          1 1 1 1 1 1 1 1 1 1 1 1
          1 1 1 1 1 1 1 1 1 1 1 1
          1 1 1 1 1 1 1 1 1 1 1 1
          1 1 1 1 1 1 1 1 1 1 1 1
          1 1 1 1 1 1 1 1 1 1 1 1
          1 1 1 1 1 1 1 1 1 1 1 1
          1 1 1 1 1 1 1 1 1 1 1 1
          1 1 1 1 1 1 1 1 1 1 1 1
          1 1 1 1 1 1 1 1 1 1 1 1
          1 1 1 1 1 1 1 1 1 1 1 1
          1 1 1 1 1 1 1 1 1 1 1 1
          1 1 1 1 1 1 1 1 1 1 1 1
          1 1 1 1 1 1 1 1 1 1 1 1
          1 1 1 1 1 1 1 1 1 1 1 1
          1 1 1 1 1 1 1 1 1 1 1 1
          1 1 1 1 1 1 1 1 1 1 1 1
          1 1 1 1 1 1 1 1 1 1 1 1
          1 1 1 1 1 1 1 1 1 1 1 1
          1 1 1 1 1 1 1 1 1 1 1 1
          1 1 1 1 1 1 1 1 1 1 1 1
          1 1 1 1 1 1 1 1 1 1 1 1
          1 1 1 1 1 1 1 1 1 1 1 1
          1 1 1 1 1 1 1 1 1 1 1 1
          1 1 1 1 1 1 1 1 1 1 1 1
          1 1 1 1 1 1 1 1 1 1 1 1
          1 1 1 1 1 1 1 1 1 1 1 1
          1 1 1 1 1 1 1 1 1 1 1 1
          1 1 1 1 1 1 1 1 1 1 1 1
          1 1 1 1 1 1 1 1 1 1 1 1
          1 1 1 1 1 1 1 1 1 1 1 1
          1 1 1 1 1 1 1 1 1 1 1 1
          1 1 1 1 1 1 1 1 1 1 1 1
          1 1 1 1 1 1 1 1 1 1 1 1
          1 1 1 1 1 1 1 1 1 1 1 1
          1 1 1 1 1 1 1 1 1 1 1 1
          1 1 1 1 1 1 1 1 1 1 1 1
          1 1 1 1 1 1 1 1 1 1 1 1
          1 1 1 1 1 1 1 1 1 1 1 1
          1 1 1 1 1 1 1 1 1 1 1 1
          1 1 1 1 1 1 1 1 1 1 1 1
          1 1 1 1 1 1 1 1 1 1 1 1
          1 1 1 1 1 1 1 1 1 1 1 1
          1 1 1 1 1 1 1 1 1 1 1 1
          1 1 1 1 1 1 1 1 1 1 1 1
          1 1 1 1 1 1 1 1 1 1 1 1
          1 1 1 1 1 1 1 1 1 1 1 1
          1 1 1 1 1 1 1 1 1 1 1 1
          1 1 1 1 1 1 1 1 1 1 1 1
          1 1 1 1 1 1 1 1 1 1 1 1
          1 1 1 1 1 1 1 1 1 1 1 1
          1 1 1 1 1 1 1 1 1 1 1 1
          1 1 1 1 1 1 1 1 1 1 1 1
          1
        </DataArray>
        <DataArray type="Float32" Name="p_liq" NumberOfComponents="1" format="ascii">
          9.91e+06 9.9109e+06 9.90387e+06 9.90478e+06 9.91182e+06 9.90571e+06 9.91275e+06 9.90664e+06 9.91369e+06 9.90758e+06 9.91464e+06 9.90853e+06
          9.91561e+06 9.90949e+06 9.91659e+06 9.91047e+06 9.91758e+06 9.91146e+06 9.91859e+06 9.91247e+06 9.91962e+06 9.9135e+06 9.92068e+06 9.91456e+06
          9.92176e+06 9.91564e+06 9.92288e+06 9.91675e+06 9.92404e+06 9.91791e+06 9.92524e+06 9.9191e+06 9.9265e+06 9.92036e+06 9.92781e+06 9.92167e+06
          9.92921e+06 9.92305e+06 9.93068e+06 9.92452e+06 9.93226e+06 9.9261e+06 9.93393e+06 9.9278e+06 9.93592e+06 9.92958e+06 9.93845e+06 9.93271e+06
          9.94132e+06 9.93535e+06 9.94355e+06 9.93759e+06 9.94523e+06 9.93926e+06 9.94638e+06 9.94039e+06 9.94702e+06 9.94103e+06 9.94718e+06 9.94119e+06
          9.94682e+06 9.94086e+06 9.9459e+06 9.93999e+06 9.94442e+06 9.9385e+06 9.94356e+06 9.93766e+06 9.94272e+06 9.93684e+06 9.94182e+06 9.93595e+06
          9.94083e+06 9.93498e+06 9.93973e+06 9.93389e+06 9.93846e+06 9.93264e+06 9.937e+06 9.93119e+06 9.93531e+06 9.9295e+06 9.93336e+06 9.92768e+06
          9.93188e+06 9.92592e+06 9.9309e+06 9.925e+06 9.93003e+06 9.92412e+06 9.92923e+06 9.92332e+06 9.92851e+06 9.9226e+06 9.92788e+06 9.92196e+06
          9.92735e+06 9.9214e+06 9.92693e+06 9.92089e+06 9.92591e+06 9.91982e+06 9.92475e+06 9.91864e+06 9.92357e+06 9.91746e+06 9.9224e+06 9.91628e+06
          9.92123e+06 9.91511e+06 9.92007e+06 9.91395e+06 9.91892e+06 9.9128e+06 9.91777e+06 9.91166e+06 9.91664e+06 9.91053e+06 9.91551e+06 9.9094e+06
          9.91439e+06 9.90828e+06 9.91328e+06 9.90717e+06 9.91217e+06 9.90606e+06 9.91108e+06 9.90496e+06 9.91e+06 9.90387e+06 9.89774e+06 9.89866e+06
          9.89958e+06 9.90051e+06 9.90145e+06 9.9024e+06 9.90336e+06 9.90434e+06 9.90532e+06 9.90633e+06 9.90735e+06 9.9084e+06 9.90948e+06 9.91059e+06
          9.91173e+06 9.91292e+06 9.91415e+06 9.91545e+06 9.91681e+06 9.91826e+06 9.91982e+06 9.9215e+06 9.92342e+06 9.92606e+06 9.92907e+06 9.93127e+06
          9.93287e+06 9.93396e+06 9.93458e+06 9.93476e+06 9.93448e+06 9.93371e+06 9.93217e+06 9.93139e+06 9.9306e+06 9.92975e+06 9.92883e+06 9.92779e+06
          9.92661e+06 9.92522e+06 9.92356e+06 9.92158e+06 9.92005e+06 9.91902e+06 9.91813e+06 9.91733e+06 9.91661e+06 9.91596e+06 9.91538e+06 9.91484e+06
          9.91373e+06 9.91253e+06 9.91134e+06 9.91016e+06 9.90899e+06 9.90783e+06 9.90668e+06 9.90554e+06 9.9044e+06 9.90328e+06 9.90216e+06 9.90105e+06
          9.89994e+06 9.89884e+06 9.89774e+06 9.89161e+06 9.89253e+06 9.89345e+06 9.89438e+06 9.89532e+06 9.89626e+06 9.89722e+06 9.89819e+06 9.89917e+06
          9.90017e+06 9.90118e+06 9.90222e+06 9.90329e+06 9.90438e+06 9.90551e+06 9.90668e+06 9.90789e+06 9.90916e+06 9.91049e+06 9.9119e+06 9.9134e+06
          9.91503e+06 9.91686e+06 9.91885e+06 9.92148e+06 9.92356e+06 9.92506e+06 9.92608e+06 9.92668e+06 9.92687e+06 9.92664e+06 9.92602e+06 9.92494e+06
          9.92424e+06 9.9235e+06 9.9227e+06 9.92183e+06 9.92088e+06 9.9198e+06 9.91854e+06 9.91698e+06 9.91512e+06 9.91397e+06 9.91294e+06 9.91205e+06
          9.91125e+06 9.91054e+06 9.90989e+06 9.9093e+06 9.90876e+06 9.90763e+06 9.90641e+06 9.90521e+06 9.90403e+06 9.90286e+06 9.9017e+06 9.90055e+06
          9.89941e+06 9.89828e+06 9.89715e+06 9.89603e+06 9.89492e+06 9.89381e+06 9.89271e+06 9.89161e+06 9.88548e+06 9.88639e+06 9.88732e+06 9.88824e+06
          9.88917e+06 9.89011e+06 9.89106e+06 9.89202e+06 9.893e+06 9.89399e+06 9.89499e+06 9.89602e+06 9.89707e+06 9.89815e+06 9.89925e+06 9.9004e+06
          9.90158e+06 9.90281e+06 9.90409e+06 9.90544e+06 9.90686e+06 9.90838e+06 9.91e+06 9.91173e+06 9.91341e+06 9.91492e+06 9.91613e+06 9.91701e+06
          9.91755e+06 9.91776e+06 9.91765e+06 9.9172e+06 9.91645e+06 9.91592e+06 9.91525e+06 9.91449e+06 9.91372e+06 9.91289e+06 9.91198e+06 9.91096e+06
          9.90986e+06 9.90876e+06 9.90768e+06 9.90673e+06 9.90588e+06 9.9051e+06 9.9044e+06 9.90376e+06 9.90318e+06 9.90263e+06 9.90149e+06 9.90027e+06
          9.89907e+06 9.89788e+06 9.89671e+06 9.89555e+06 9.89441e+06 9.89327e+06 9.89214e+06 9.89102e+06 9.8899e+06 9.88879e+06 9.88768e+06 9.88658e+06
          9.88548e+06 9.87934e+06 9.88026e+06 9.88118e+06 9.8821e+06 9.88302e+06 9.88396e+06 9.8849e+06 9.88585e+06 9.88681e+06 9.88779e+06 9.88878e+06
          9.88979e+06 9.89082e+06 9.89188e+06 9.89296e+06 9.89407e+06 9.89522e+06 9.8964e+06 9.89763e+06 9.8989e+06 9.90023e+06 9.90161e+06 9.90304e+06
          9.90448e+06 9.90587e+06 9.90711e+06 9.90814e+06 9.90891e+06 9.90941e+06 9.90963e+06 9.90958e+06 9.90926e+06 9.9087e+06 9.90832e+06 9.90781e+06
          9.9072e+06 9.90652e+06 9.90578e+06 9.90496e+06 9.90408e+06 9.90315e+06 9.9022e+06 9.90128e+06 9.90042e+06 9.89962e+06 9.89889e+06 9.89821e+06
          9.89758e+06 9.897e+06 9.89646e+06 9.89533e+06 9.89411e+06 9.8929e+06 9.89172e+06 9.89056e+06 9.8894e+06 9.88826e+06 9.88712e+06 9.886e+06
          9.88488e+06 9.88376e+06 9.88265e+06 9.88155e+06 9.88044e+06 9.87934e+06 9.87321e+06 9.87412e+06 9.87503e+06 9.87594e+06 9.87686e+06 9.87779e+06
          9.87872e+06 9.87966e+06 9.88061e+06 9.88158e+06 9.88255e+06 9.88354e+06 9.88456e+06 9.88559e+06 9.88664e+06 9.88772e+06 9.88882e+06 9.88995e+06
          9.89112e+06 9.89231e+06 9.89354e+06 9.89479e+06 9.89605e+06 9.8973e+06 9.89847e+06 9.89952e+06 9.9004e+06 9.90108e+06 9.90154e+06 9.90178e+06
          9.90179e+06 9.90158e+06 9.90119e+06 9.9009e+06 9.90049e+06 9.89998e+06 9.8994e+06 9.89874e+06 9.89802e+06 9.89725e+06 9.89645e+06 9.89563e+06
          9.89482e+06 9.89404e+06 9.8933e+06 9.89261e+06 9.89196e+06 9.89136e+06 9.89079e+06 9.89026e+06 9.88913e+06 9.88792e+06 9.88672e+06 9.88555e+06
          9.88438e+06 9.88324e+06 9.8821e+06 9.88097e+06 9.87985e+06 9.87873e+06 9.87762e+06 9.87652e+06 9.87541e+06 9.87431e+06 9.87321e+06 9.86708e+06
          9.86798e+06 9.86888e+06 9.86979e+06 9.8707e+06 9.87161e+06 9.87253e+06 9.87346e+06 9.8744e+06 9.87535e+06 9.87631e+06 9.87728e+06 9.87827e+06
          9.87927e+06 9.88029e+06 9.88133e+06 9.88239e+06 9.88347e+06 9.88457e+06 9.88569e+06 9.88682e+06 9.88796e+06 9.88908e+06 9.89017e+06 9.89119e+06
          9.8921e+06 9.89287e+06 9.89348e+06 9.89391e+06 9.89415e+06 9.89421e+06 9.89409e+06 9.89382e+06 9.89359e+06 9.89326e+06 9.89284e+06 9.89233e+06
          9.89176e+06 9.89114e+06 9.89046e+06 9.88976e+06 9.88904e+06 9.88832e+06 9.88762e+06 9.88694e+06 9.88629e+06 9.88568e+06 9.88509e+06 9.88454e+06
          9.88402e+06 9.88291e+06 9.88171e+06 9.88052e+06 9.87936e+06 9.8782e+06 9.87706e+06 9.87593e+06 9.87481e+06 9.87369e+06 9.87258e+06 9.87147e+06
          9.87037e+06 9.86927e+06 9.86818e+06 9.86708e+06 9.86095e+06 9.86184e+06 9.86274e+06 9.86363e+06 9.86453e+06 9.86543e+06 9.86634e+06 9.86725e+06
          9.86818e+06 9.86911e+06 9.87005e+06 9.871e+06 9.87196e+06 9.87294e+06 9.87393e+06 9.87493e+06 9.87594e+06 9.87697e+06 9.87801e+06 9.87906e+06
          9.8801e+06 9.88114e+06 9.88215e+06 9.88312e+06 9.88402e+06 9.88482e+06 9.88551e+06 9.88606e+06 9.88646e+06 9.88671e+06 9.88681e+06 9.88676e+06
          9.88658e+06 9.8864e+06 9.88613e+06 9.88577e+06 9.88534e+06 9.88484e+06 9.8843e+06 9.88371e+06 9.88309e+06 9.88245e+06 9.8818e+06 9.88116e+06
          9.88054e+06 9.87994e+06 9.87936e+06 9.8788e+06 9.87827e+06 9.87775e+06 9.87666e+06 9.87548e+06 9.87431e+06 9.87315e+06 9.87201e+06 9.87088e+06
          9.86975e+06 9.86864e+06 9.86753e+06 9.86642e+06 9.86532e+06 9.86423e+06 9.86313e+06 9.86204e+06 9.86095e+06 9.85482e+06 9.8557e+06 9.85658e+06
          9.85747e+06 9.85835e+06 9.85924e+06 9.86014e+06 9.86104e+06 9.86195e+06 9.86286e+06 9.86378e+06 9.86471e+06 9.86564e+06 9.86659e+06 9.86755e+06
          9.86851e+06 9.86948e+06 9.87046e+06 9.87144e+06 9.87242e+06 9.87339e+06 9.87434e+06 9.87526e+06 9.87613e+06 9.87694e+06 9.87766e+06 9.87828e+06
          9.87879e+06 9.87917e+06 9.87943e+06 9.87955e+06 9.87955e+06 9.87944e+06 9.8793e+06 9.87908e+06 9.87878e+06 9.87841e+06 9.87798e+06 9.8775e+06
          9.87698e+06 9.87643e+06 9.87586e+06 9.87528e+06 9.8747e+06 9.87412e+06 9.87356e+06 9.87301e+06 9.87248e+06 9.87196e+06 9.87146e+06 9.87039e+06
          9.86923e+06 9.86808e+06 9.86693e+06 9.8658e+06 9.86468e+06 9.86357e+06 9.86246e+06 9.86136e+06 9.86026e+06 9.85917e+06 9.85808e+06 9.85699e+06
          9.8559e+06 9.85482e+06 9.84869e+06 9.84956e+06 9.85043e+06 9.8513e+06 9.85218e+06 9.85305e+06 9.85393e+06 9.85482e+06 9.85571e+06 9.8566e+06
          9.8575e+06 9.85841e+06 9.85932e+06 9.86024e+06 9.86116e+06 9.86208e+06 9.86301e+06 9.86394e+06 9.86487e+06 9.86579e+06 9.86669e+06 9.86757e+06
          9.86841e+06 9.86921e+06 9.86994e+06 9.8706e+06 9.87118e+06 9.87165e+06 9.87201e+06 9.87227e+06 9.87242e+06 9.87246e+06 9.8724e+06 9.87229e+06
          9.87211e+06 9.87186e+06 9.87154e+06 9.87116e+06 9.87074e+06 9.87029e+06 9.8698e+06 9.86928e+06 9.86876e+06 9.86823e+06 9.8677e+06 9.86717e+06
          9.86665e+06 9.86614e+06 9.86565e+06 9.86516e+06 9.86411e+06 9.86297e+06 9.86183e+06 9.86071e+06 9.85959e+06 9.85848e+06 9.85738e+06 9.85628e+06
          9.85519e+06 9.8541e+06 9.85301e+06 9.85193e+06 9.85085e+06 9.84977e+06 9.84869e+06 9.84256e+06 9.84341e+06 9.84427e+06 9.84513e+06 9.84599e+06
          9.84686e+06 9.84772e+06 9.84859e+06 9.84946e+06 9.85034e+06 9.85122e+06 9.8521e+06 9.85299e+06 9.85388e+06 9.85476e+06 9.85566e+06 9.85654e+06
          9.85743e+06 9.85831e+06 9.85917e+06 9.86001e+06 9.86083e+06 9.86161e+06 9.86235e+06 9.86303e+06 9.86364e+06 9.86417e+06 9.86461e+06 9.86496e+06
          9.86522e+06 9.86539e+06 9.86546e+06 9.86544e+06 9.86536e+06 9.86521e+06 9.865e+06 9.86472e+06 9.8644e+06 9.86403e+06 9.86362e+06 9.86318e+06
          9.86272e+06 9.86224e+06 9.86176e+06 9.86126e+06 9.86077e+06 9.86028e+06 9.8598e+06 9.85932e+06 9.85884e+06 9.85781e+06 9.85669e+06 9.85558e+06
          9.85447e+06 9.85337e+06 9.85227e+06 9.85118e+06 9.85009e+06 9.84901e+06 9.84793e+06 9.84685e+06 9.84578e+06 9.8447e+06 9.84363e+06 9.84256e+06
          9.83642e+06 9.83727e+06 9.83812e+06 9.83896e+06 9.83981e+06 9.84066e+06 9.84151e+06 9.84236e+06 9.84322e+06 9.84407e+06 9.84493e+06 9.84579e+06
          9.84665e+06 9.84751e+06 9.84837e+06 9.84923e+06 9.85008e+06 9.85092e+06 9.85176e+06 9.85257e+06 9.85337e+06 9.85413e+06 9.85486e+06 9.85555e+06
          9.85618e+06 9.85675e+06 9.85724e+06 9.85767e+06 9.85801e+06 9.85827e+06 9.85845e+06 9.85854e+06 9.85855e+06 9.8585e+06 9.85837e+06 9.85819e+06
          9.85796e+06 9.85768e+06 9.85735e+06 9.85699e+06 9.85659e+06 9.85618e+06 9.85574e+06 9.85529e+06 9.85483e+06 9.85437e+06 9.8539e+06 9.85344e+06
          9.85298e+06 9.85252e+06 9.85151e+06 9.85041e+06 9.84932e+06 9.84823e+06 9.84714e+06 9.84606e+06 9.84498e+06 9.8439e+06 9.84283e+06 9.84176e+06
          9.84069e+06 9.83962e+06 9.83856e+06 9.83749e+06 9.83642e+06 9.83029e+06 9.83113e+06 9.83196e+06 9.83279e+06 9.83363e+06 9.83446e+06 9.8353e+06
          9.83613e+06 9.83697e+06 9.83781e+06 9.83864e+06 9.83948e+06 9.84032e+06 9.84115e+06 9.84198e+06 9.8428e+06 9.84362e+06 9.84443e+06 9.84522e+06
          9.846e+06 9.84675e+06 9.84747e+06 9.84815e+06 9.8488e+06 9.84939e+06 9.84992e+06 9.8504e+06 9.85081e+06 9.85114e+06 9.8514e+06 9.8516e+06
          9.85171e+06 9.85173e+06 9.8517e+06 9.8516e+06 9.85145e+06 9.85125e+06 9.851e+06 9.85071e+06 9.85038e+06 9.85003e+06 9.84965e+06 9.84925e+06
          9.84883e+06 9.8484e+06 9.84797e+06 9.84753e+06 9.84708e+06 9.84664e+06 9.84619e+06 9.8452e+06 9.84413e+06 9.84306e+06 9.84198e+06 9.84091e+06
          9.83984e+06 9.83878e+06 9.83771e+06 9.83665e+06 9.83559e+06 9.83453e+06 9.83347e+06 9.83241e+06 9.83135e+06 9.83029e+06 9.82416e+06 9.82498e+06
          9.8258e+06 9.82662e+06 9.82744e+06 9.82826e+06 9.82908e+06 9.8299e+06 9.83072e+06 9.83154e+06 9.83236e+06 9.83317e+06 9.83398e+06 9.83479e+06
          9.83559e+06 9.83639e+06 9.83718e+06 9.83795e+06 9.8387e+06 9.83944e+06 9.84016e+06 9.84084e+06 9.84149e+06 9.8421e+06 9.84266e+06 9.84317e+06
          9.84362e+06 9.84401e+06 9.84434e+06 9.84461e+06 9.84481e+06 9.84495e+06 9.84498e+06 9.84496e+06 9.84488e+06 9.84475e+06 9.84458e+06 9.84436e+06
          9.8441e+06 9.84381e+06 9.84349e+06 9.84314e+06 9.84277e+06 9.84238e+06 9.84198e+06 9.84157e+06 9.84115e+06 9.84072e+06 9.84029e+06 9.83986e+06
          9.83889e+06 9.83784e+06 9.83679e+06 9.83573e+06 9.83468e+06 9.83362e+06 9.83257e+06 9.83152e+06 9.83047e+06 9.82941e+06 9.82836e+06 9.82731e+06
          9.82626e+06 9.82521e+06 9.82416e+06 9.81803e+06 9.81884e+06 9.81964e+06 9.82045e+06 9.82126e+06 9.82206e+06 9.82286e+06 9.82367e+06 9.82447e+06
          9.82527e+06 9.82607e+06 9.82686e+06 9.82765e+06 9.82844e+06 9.82922e+06 9.82998e+06 9.83074e+06 9.83148e+06 9.83221e+06 9.83291e+06 9.83359e+06
          9.83424e+06 9.83486e+06 9.83544e+06 9.83598e+06 9.83646e+06 9.8369e+06 9.83728e+06 9.83761e+06 9.83788e+06 9.83809e+06 9.83824e+06 9.83828e+06
          9.83827e+06 9.83821e+06 9.8381e+06 9.83795e+06 9.83776e+06 9.83753e+06 9.83727e+06 9.83697e+06 9.83665e+06 9.83631e+06 9.83595e+06 9.83557e+06
          9.83518e+06 9.83478e+06 9.83437e+06 9.83396e+06 9.83353e+06 9.83259e+06 9.83156e+06 9.83052e+06 9.82948e+06 9.82845e+06 9.82741e+06 9.82636e+06
          9.82532e+06 9.82428e+06 9.82324e+06 9.8222e+06 9.82116e+06 9.82012e+06 9.81907e+06 9.81803e+06 9.8119e+06 9.81269e+06 9.81349e+06 9.81428e+06
          9.81507e+06 9.81586e+06 9.81665e+06 9.81744e+06 9.81822e+06 9.81901e+06 9.81979e+06 9.82056e+06 9.82133e+06 9.82209e+06 9.82285e+06 9.82359e+06
          9.82432e+06 9.82504e+06 9.82573e+06 9.82641e+06 9.82706e+06 9.82768e+06 9.82828e+06 9.82883e+06 9.82934e+06 9.82981e+06 9.83024e+06 9.83061e+06
          9.83094e+06 9.8312e+06 9.83142e+06 9.83159e+06 9.83163e+06 9.83164e+06 9.83159e+06 9.8315e+06 9.83137e+06 9.8312e+06 9.83099e+06 9.83075e+06
          9.83048e+06 9.83019e+06 9.82987e+06 9.82953e+06 9.82918e+06 9.82881e+06 9.82842e+06 9.82803e+06 9.82762e+06 9.82721e+06 9.82628e+06 9.82528e+06
          9.82426e+06 9.82324e+06 9.82221e+06 9.82119e+06 9.82016e+06 9.81913e+06 9.8181e+06 9.81707e+06 9.81603e+06 9.815e+06 9.81397e+06 9.81293e+06
          9.8119e+06 9.80577e+06 9.80655e+06 9.80733e+06 9.80811e+06 9.80889e+06 9.80966e+06 9.81044e+06 9.81121e+06 9.81198e+06 9.81275e+06 9.81351e+06
          9.81426e+06 9.81501e+06 9.81575e+06 9.81649e+06 9.81721e+06 9.81791e+06 9.8186e+06 9.81928e+06 9.81993e+06 9.82056e+06 9.82116e+06 9.82172e+06
          9.82226e+06 9.82276e+06 9.82321e+06 9.82362e+06 9.82399e+06 9.82431e+06 9.82458e+06 9.82481e+06 9.82498e+06 9.82504e+06 9.82505e+06 9.82501e+06
          9.82494e+06 9.82483e+06 9.82468e+06 9.82449e+06 9.82427e+06 9.82402e+06 9.82375e+06 9.82345e+06 9.82313e+06 9.8228e+06 9.82244e+06 9.82207e+06
          9.82169e+06 9.8213e+06 9.8209e+06 9.81999e+06 9.819e+06 9.818e+06 9.81699e+06 9.81598e+06 9.81497e+06 9.81396e+06 9.81294e+06 9.81192e+06
          9.81089e+06 9.80987e+06 9.80884e+06 9.80782e+06 9.80679e+06 9.80577e+06 9.79964e+06 9.8004e+06 9.80117e+06 9.80194e+06 9.8027e+06 9.80347e+06
          9.80423e+06 9.80498e+06 9.80574e+06 9.80649e+06 9.80723e+06 9.80797e+06 9.8087e+06 9.80942e+06 9.81014e+06 9.81084e+06 9.81152e+06 9.81219e+06
          9.81284e+06 9.81347e+06 9.81408e+06 9.81466e+06 9.81521e+06 9.81572e+06 9.81621e+06 9.81665e+06 9.81705e+06 9.81742e+06 9.81774e+06 9.81801e+06
          9.81824e+06 9.81842e+06 9.81848e+06 9.8185e+06 9.81848e+06 9.81842e+06 9.81832e+06 9.81818e+06 9.81802e+06 9.81782e+06 9.81759e+06 9.81733e+06
          9.81705e+06 9.81675e+06 9.81643e+06 9.81609e+06 9.81574e+06 9.81537e+06 9.81498e+06 9.81459e+06 9.8137e+06 9.81273e+06 9.81174e+06 9.81075e+06
          9.80976e+06 9.80876e+06 9.80775e+06 9.80674e+06 9.80573e+06 9.80472e+06 9.80371e+06 9.80269e+06 9.80167e+06 9.80066e+06 9.79964e+06 9.79351e+06
          9.79426e+06 9.79502e+06 9.79577e+06 9.79652e+06 9.79727e+06 9.79802e+06 9.79876e+06 9.7995e+06 9.80024e+06 9.80097e+06 9.80169e+06 9.8024e+06
          9.80311e+06 9.8038e+06 9.80448e+06 9.80515e+06 9.8058e+06 9.80643e+06 9.80704e+06 9.80763e+06 9.80819e+06 9.80872e+06 9.80923e+06 9.8097e+06
          9.81013e+06 9.81053e+06 9.81088e+06 9.8112e+06 9.81148e+06 9.81172e+06 9.81191e+06 9.81197e+06 9.812e+06 9.81198e+06 9.81194e+06 9.81185e+06
          9.81173e+06 9.81158e+06 9.81139e+06 9.81118e+06 9.81094e+06 9.81068e+06 9.81039e+06 9.81008e+06 9.80976e+06 9.80942e+06 9.80906e+06 9.80868e+06
          9.8083e+06 9.80742e+06 9.80646e+06 9.8055e+06 9.80452e+06 9.80354e+06 9.80255e+06 9.80155e+06 9.80056e+06 9.79955e+06 9.79855e+06 9.79754e+06
          9.79654e+06 9.79553e+06 9.79452e+06 9.79351e+06 9.78738e+06 9.78812e+06 9.78886e+06 9.7896e+06 9.79034e+06 9.79108e+06 9.79182e+06 9.79254e+06
          9.79327e+06 9.79399e+06 9.79471e+06 9.79541e+06 9.79611e+06 9.7968e+06 9.79748e+06 9.79814e+06 9.79879e+06 9.79942e+06 9.80004e+06 9.80063e+06
          9.8012e+06 9.80175e+06 9.80227e+06 9.80276e+06 9.80322e+06 9.80365e+06 9.80404e+06 9.80439e+06 9.80471e+06 9.80499e+06 9.80523e+06 9.80543e+06