<?xml version="1.0"?>
<VTKFile type="UnstructuredGrid" version="0.1" byte_order="LittleEndian">
  <UnstructuredGrid>
    <Piece NumberOfCells="4602" NumberOfPoints="4760">
      <CellData Scalars="p">
        <DataArray type="Float32" Name="p" NumberOfComponents="1" format="ascii">
          1.00006 1.00017 1.00028 1.00039 1.0005 1.00006 1.00017 1.00028 1.00039 1.0005 1.00062 1.00073
          1.00062 1.00073 1.00084 1.00095 1.00107 1.00084 1.00095 1.00107 1.00006 1.00017 1.00006 1.00017
          1.00028 1.00039 1.00028 1.00039 1.0005 1.0005 1.00006 1.00017 1.00028 1.00039 1.0005 1.00062
          1.00073 1.00062 1.00073 1.00062 1.00073 1.00084 1.00095 1.00107 1.00084 1.00095 1.00107 1.00084
          1.00095 1.00107 1.00118 1.00129 1.0014 1.00151 1.00163 1.00118 1.00129 1.0014 1.00151 1.00163
          1.00118 1.00118 1.00129 1.00129 1.0014 1.00151 1.00163 1.0014 1.00151 1.00163 1.00118 1.00129
          1.0014 1.00151 1.00163 1.00174 1.00185 1.00196 1.00208 1.00219 1.00174 1.00185 1.00196 1.00208
          1.00219 1.00174 1.00185 1.00174 1.00185 1.00196 1.00196 1.00208 1.00219 1.00208 1.00219 1.00174
          1.00185 1.00196 1.00208 1.00219 1.00006 1.00017 1.00028 1.00039 1.0005 1.00006 1.00017 1.00028
          1.00039 1.0005 1.00062 1.00073 1.00062 1.00073 1.00084 1.00095 1.00107 1.00084 1.00095 1.00107
          1.00006 1.00017 1.00006 1.00017 1.00028 1.00039 1.00028 1.00039 1.0005 1.0005 1.00006 1.00017
          1.00028 1.00039 1.0005 1.00062 1.00073 1.00062 1.00073 1.00062 1.00073 1.00084 1.00095 1.00107
          1.00084 1.00095 1.00107 1.00084 1.00095 1.00107 1.00118 1.00129 1.0014 1.00151 1.00163 1.00118
          1.00129 1.0014 1.00151 1.00163 1.00118 1.00118 1.00129 1.00129 1.0014 1.00151 1.00163 1.0014
          1.00151 1.00163 1.00118 1.00129 1.0014 1.00151 1.00163 1.00174 1.00185 1.00196 1.00208 1.00219
          1.00174 1.00185 1.00196 1.00208 1.00219 1.00174 1.00185 1.00174 1.00185 1.00196 1.00196 1.00208
          1.00219 1.00208 1.00219 1.00174 1.00185 1.00196 1.00208 1.00219 1.00006 1.00017 1.00028 1.00039
          1.0005 1.00006 1.00017 1.00028 1.00039 1.0005 1.00062 1.00073 1.00062 1.00073 1.00084 1.00095
          1.00107 1.00084 1.00095 1.00107 1.00006 1.00017 1.00028 1.00039 1.0005 1.00006 1.00017 1.00006
          1.00017 1.00028 1.00039 1.00028 1.00039 1.0005 1.0005 1.00062 1.00073 1.00062 1.00073 1.00062
          1.00073 1.00084 1.00095 1.00107 1.00084 1.00095 1.00107 1.00084 1.00095 1.00107 1.00118 1.00129
          1.0014 1.00151 1.00163 1.00118 1.00129 1.0014 1.00151 1.00163 1.00118 1.00129 1.0014 1.00151
          1.00163 1.00118 1.00118 1.00129 1.00129 1.0014 1.00151 1.00163 1.0014 1.00151 1.00163 1.00174
          1.00185 1.00196 1.00208 1.00219 1.00174 1.00185 1.00196 1.00208 1.00219 1.00174 1.00185 1.00196
          1.00208 1.00219 1.00174 1.00185 1.00174 1.00185 1.00196 1.00196 1.00208 1.00219 1.00208 1.00219
          1.00006 1.00017 1.00028 1.00039 1.0005 1.00006 1.00017 1.00028 1.00039 1.0005 1.00062 1.00073
          1.00062 1.00073 1.00084 1.00095 1.00107 1.00084 1.00095 1.00107 1.00006 1.00017 1.00028 1.00039
          1.0005 1.00006 1.00017 1.00028 1.00039 1.0005 1.00062 1.00073 1.00062 1.00073 1.00084 1.00095
          1.00107 1.00084 1.00095 1.00107 1.00118 1.00129 1.0014 1.00151 1.00163 1.00118 1.00129 1.0014
          1.00151 1.00163 1.00118 1.00129 1.0014 1.00151 1.00163 1.00118 1.00129 1.0014 1.00151 1.00163
          1.00174 1.00185 1.00196 1.00208 1.00219 1.00174 1.00185 1.00196 1.00208 1.00219 1.00174 1.00185
          1.00196 1.00208 1.00219 1.00174 1.00185 1.00196 1.00208 1.00219 1.0023 1.00241 1.0023 1.00241
          1.00252 1.00264 1.00275 1.00252 1.00264 1.00275 1.00286 1.00297 1.00309 1.0032 1.00331 1.00286
          1.00297 1.00309 1.0032 1.00331 1.0023 1.00241 1.0023 1.00241 1.0023 1.00241 1.00252 1.00264
          1.00275 1.00252 1.00264 1.00275 1.00252 1.00264 1.00275 1.00286 1.00286 1.00297 1.00297 1.00309
          1.0032 1.00331 1.00309 1.0032 1.00331 1.00286 1.00297 1.00309 1.0032 1.00331 1.0023 1.00241
          1.0023 1.00241 1.00252 1.00264 1.00275 1.00252 1.00264 1.00275 1.00286 1.00297 1.00309 1.0032
          1.00331 1.00286 1.00297 1.00309 1.0032 1.00331 1.0023 1.00241 1.0023 1.00241 1.0023 1.00241
          1.00252 1.00264 1.00275 1.00252 1.00264 1.00275 1.00252 1.00264 1.00275 1.00286 1.00286 1.00297
          1.00297 1.00309 1.0032 1.00331 1.00309 1.0032 1.00331 1.00286 1.00297 1.00309 1.0032 1.00331
          1.00342 1.00353 1.00365 1.00376 1.00342 1.00353 1.00365 1.00376 1.00387 1.00398 1.0041 1.00387
          1.00398 1.0041 1.00421 1.00432 1.00421 1.00432 1.00342 1.00353 1.00342 1.00353 1.00365 1.00365
          1.00376 1.00376 1.00342 1.00353 1.00365 1.00376 1.00387 1.00398 1.0041 1.00387 1.00398 1.0041
          1.00387 1.00398 1.0041 1.00421 1.00432 1.00421 1.00432 1.00421 1.00432 1.00342 1.00353 1.00365
          1.00376 1.00342 1.00353 1.00365 1.00376 1.00387 1.00398 1.0041 1.00387 1.00398 1.0041 1.00421
          1.00432 1.00421 1.00432 1.00342 1.00353 1.00342 1.00353 1.00365 1.00365 1.00376 1.00376 1.00342
          1.00353 1.00365 1.00376 1.00387 1.00398 1.0041 1.00387 1.00398 1.0041 1.00387 1.00398 1.0041
          1.00421 1.00432 1.00421 1.00432 1.00421 1.00432 1.00443 1.00454 1.00466 1.00477 1.00488 1.00443
          1.00454 1.00466 1.00477 1.00488 1.00443 1.00454 1.00443 1.00454 1.00466 1.00466 1.00477 1.00488
          1.00477 1.00488 1.00443 1.00454 1.00466 1.00477 1.00488 1.00499 1.0051 1.00522 1.00533 1.00544
          1.00499 1.0051 1.00522 1.00533 1.00544 1.00499 1.0051 1.00522 1.00499 1.0051 1.00522 1.00533
          1.00533 1.00544 1.00544 1.00499 1.0051 1.00522 1.00533 1.00544 1.00555 1.00567 1.00578 1.00555
          1.00567 1.00578 1.00589 1.006 1.00589 1.006 1.00611 1.00623 1.00634 1.00645 1.00656 1.00611
          1.00623 1.00634 1.00645 1.00656 1.00555 1.00567 1.00578 1.00555 1.00567 1.00578 1.00555 1.00567
          1.00578 1.00589 1.006 1.00589 1.006 1.00589 1.006 1.00611 1.00611 1.00623 1.00634 1.00623
          1.00634 1.00645 1.00656 1.00645 1.00656 1.00611 1.00623 1.00634 1.00645 1.00656 1.00443 1.00454
          1.00466 1.00477 1.00488 1.00443 1.00454 1.00466 1.00477 1.00488 1.00443 1.00454 1.00443 1.00454
          1.00466 1.00466 1.00477 1.00488 1.00477 1.00488 1.00443 1.00454 1.00466 1.00477 1.00488 1.00499
          1.0051 1.00522 1.00533 1.00544 1.00499 1.0051 1.00522 1.00533 1.00544 1.00499 1.0051 1.00522
          1.00499 1.0051 1.00522 1.00533 1.00533 1.00544 1.00544 1.00499 1.0051 1.00522 1.00533 1.00544
          1.00555 1.00567 1.00578 1.00555 1.00567 1.00578 1.00589 1.006 1.00589 1.006 1.00611 1.00623
          1.00634 1.00645 1.00656 1.00611 1.00623 1.00634 1.00645 1.00656 1.00555 1.00567 1.00578 1.00555
          1.00567 1.00578 1.00555 1.00567 1.00578 1.00589 1.006 1.00589 1.006 1.00589 1.006 1.00611
          1.00611 1.00623 1.00634 1.00623 1.00634 1.00645 1.00656 1.00645 1.00656 1.00611 1.00623 1.00634
          1.00645 1.00656 1.0023 1.00241 1.0023 1.00241 1.00252 1.00264 1.00275 1.00252 1.00264 1.00275
          1.00286 1.00297 1.00309 1.0032 1.00331 1.00286 1.00297 1.00309 1.0032 1.00331 1.0023 1.00241
          1.0023 1.00241 1.0023 1.00241 1.00252 1.00264 1.00275 1.00252 1.00264 1.00275 1.00252 1.00264
          1.00275 1.00286 1.00297 1.00309 1.0032 1.00331 1.00286 1.00286 1.00297 1.00297 1.00309 1.0032
          1.00331 1.00309 1.0032 1.00331 1.0023 1.00241 1.0023 1.00241 1.00252 1.00264 1.00275 1.00252
          1.00264 1.00275 1.00286 1.00297 1.00309 1.0032 1.00331 1.00286 1.00297 1.00309 1.0032 1.00331
          1.0023 1.00241 1.0023 1.00241 1.00252 1.00264 1.00275 1.00252 1.00264 1.00275 1.00286 1.00297
          1.00309 1.0032 1.00331 1.00286 1.00297 1.00309 1.0032 1.00331 1.00342 1.00353 1.00365 1.00376
          1.00342 1.00353 1.00365 1.00376 1.00387 1.00398 1.0041 1.00387 1.00398 1.0041 1.00421 1.00432
          1.00421 1.00432 1.00342 1.00353 1.00365 1.00376 1.00342 1.00353 1.00342 1.00353 1.00365 1.00365
          1.00376 1.00376 1.00387 1.00398 1.0041 1.00387 1.00398 1.0041 1.00387 1.00398 1.0041 1.00421
          1.00432 1.00421 1.00432 1.00421 1.00432 1.00342 1.00353 1.00365 1.00376 1.00342 1.00353 1.00365
          1.00376 1.00387 1.00398 1.0041 1.00387 1.00398 1.0041 1.00421 1.00432 1.00421 1.00432 1.00342
          1.00353 1.00365 1.00376 1.00342 1.00353 1.00365 1.00376 1.00387 1.00398 1.0041 1.00387 1.00398
          1.0041 1.0041 1.00421 1.00432 1.00421 1.00432 1.00421 1.00432 1.00443 1.00454 1.00466 1.00477
          1.00488 1.00443 1.00454 1.00466 1.00477 1.00488 1.00443 1.00454 1.00466 1.00477 1.00488 1.00443
          1.00454 1.00443 1.00454 1.00466 1.00466 1.00477 1.00488 1.00477 1.00488 1.00499 1.0051 1.00522
          1.00533 1.00544 1.00499 1.0051 1.00522 1.00533 1.00544 1.00499 1.0051 1.00522 1.00533 1.00544
          1.00499 1.0051 1.00522 1.00499 1.0051 1.00522 1.00533 1.00533 1.00544 1.00544 1.00555 1.00567
          1.00578 1.00555 1.00567 1.00578 1.00589 1.006 1.00589 1.006 1.00611 1.00623 1.00634 1.00645
          1.00656 1.00611 1.00623 1.00634 1.00645 1.00656 1.00555 1.00567 1.00578 1.00555 1.00567 1.00578
          1.00555 1.00567 1.00578 1.00589 1.006 1.00589 1.006 1.00589 1.006 1.00611 1.00623 1.00634
          1.00645 1.00656 1.00611 1.00611 1.00623 1.00634 1.00623 1.00634 1.00645 1.00656 1.00645 1.00656
          1.00443 1.00454 1.00466 1.00477 1.00488 1.00443 1.00454 1.00466 1.00477 1.00488 1.00443 1.00454
          1.00466 1.00477 1.00488 1.00443 1.00454 1.00443 1.00454 1.00466 1.00466 1.00477 1.00488 1.00477
          1.00488 1.00499 1.0051 1.00522 1.00533 1.00544 1.00499 1.0051 1.00522 1.00533 1.00544 1.00499
          1.0051 1.00522 1.00533 1.00544 1.00499 1.0051 1.00522 1.00499 1.0051 1.00522 1.00533 1.00533
          1.00544 1.00544 1.00555 1.00567 1.00578 1.00555 1.00567 1.00578 1.00589 1.006 1.00589 1.006
          1.00611 1.00623 1.00634 1.00645 1.00656 1.00611 1.00623 1.00634 1.00645 1.00656 1.00555 1.00567
          1.00578 1.00555 1.00567 1.00578 1.00555 1.00567 1.00578 1.00589 1.006 1.00589 1.006 1.00589
          1.006 1.00611 1.00623 1.00634 1.00645 1.00656 1.00611 1.00611 1.00623 1.00634 1.00623 1.00634
          1.00645 1.00656 1.00645 1.00656 1.00006 1.00017 1.00006 1.00017 1.00028 1.00039 1.00028 1.00039
          1.0005 1.0005 1.00006 1.00017 1.00028 1.00039 1.0005 1.00062 1.00073 1.00062 1.00073 1.00062
          1.00073 1.00084 1.00095 1.00107 1.00084 1.00095 1.00107 1.00084 1.00095 1.00107 1.00006 1.00017
          1.00028 1.00039 1.0005 1.00006 1.00017 1.00028 1.00039 1.0005 1.00062 1.00073 1.00062 1.00073
          1.00084 1.00095 1.00107 1.00084 1.00095 1.00107 1.00118 1.00118 1.00129 1.00129 1.0014 1.00151
          1.00163 1.0014 1.00151 1.00163 1.00118 1.00129 1.0014 1.00151 1.00163 1.00118 1.00129 1.0014
          1.00151 1.00163 1.00118 1.00129 1.0014 1.00151 1.00163 1.00174 1.00185 1.00174 1.00185 1.00196
          1.00196 1.00208 1.00219 1.00208 1.00219 1.00174 1.00185 1.00196 1.00208 1.00219 1.00174 1.00185
          1.00196 1.00208 1.00219 1.00174 1.00185 1.00196 1.00208 1.00219 1.00006 1.00017 1.00006 1.00017
          1.00028 1.00039 1.00028 1.00039 1.0005 1.0005 1.00006 1.00017 1.00028 1.00039 1.0005 1.00062
          1.00073 1.00062 1.00073 1.00062 1.00073 1.00084 1.00095 1.00107 1.00084 1.00095 1.00107 1.00084
          1.00095 1.00107 1.00006 1.00017 1.00028 1.00039 1.0005 1.00006 1.00017 1.00028 1.00039 1.0005
          1.00062 1.00073 1.00062 1.00073 1.00084 1.00095 1.00107 1.00084 1.00095 1.00107 1.00118 1.00118
          1.00129 1.00129 1.0014 1.00151 1.00163 1.0014 1.00151 1.00163 1.00118 1.00129 1.0014 1.00151
          1.00163 1.00118 1.00129 1.0014 1.00151 1.00163 1.00118 1.00129 1.0014 1.00151 1.00163 1.00174
          1.00185 1.00174 1.00185 1.00196 1.00196 1.00208 1.00219 1.00208 1.00219 1.00174 1.00185 1.00196
          1.00208 1.00219 1.00174 1.00185 1.00196 1.00208 1.00219 1.00174 1.00185 1.00196 1.00208 1.00219
          1.00006 1.00017 1.00028 1.00039 1.0005 1.00006 1.00017 1.00006 1.00017 1.00028 1.00039 1.00028
          1.00039 1.0005 1.0005 1.00062 1.00073 1.00062 1.00073 1.00062 1.00073 1.00084 1.00095 1.00107
          1.00084 1.00095 1.00107 1.00084 1.00095 1.00107 1.00006 1.00017 1.00028 1.00039 1.0005 1.00006
          1.00017 1.00028 1.00039 1.0005 1.00062 1.00073 1.00062 1.00073 1.00084 1.00095 1.00107 1.00084
          1.00095 1.00107 1.00118 1.00129 1.0014 1.00151 1.00163 1.00118 1.00118 1.00129 1.00129 1.0014
          1.00151 1.00163 1.0014 1.00151 1.00163 1.00118 1.00129 1.0014 1.00151 1.00163 1.00118 1.00129
          1.0014 1.00151 1.00163 1.00174 1.00185 1.00196 1.00208 1.00219 1.00174 1.00185 1.00174 1.00185
          1.00196 1.00196 1.00208 1.00219 1.00208 1.00219 1.00174 1.00185 1.00196 1.00208 1.00219 1.00174
          1.00185 1.00196 1.00208 1.00219 1.00006 1.00017 1.00028 1.00039 1.0005 1.00006 1.00017 1.00006
          1.00017 1.00028 1.00039 1.00028 1.00039 1.0005 1.0005 1.00062 1.00073 1.00062 1.00073 1.00062
          1.00073 1.00084 1.00095 1.00107 1.00084 1.00095 1.00107 1.00084 1.00095 1.00107 1.00006 1.00017
          1.00028 1.00039 1.0005 1.00006 1.00017 1.00028 1.00039 1.0005 1.00062 1.00073 1.00062 1.00073
          1.00084 1.00095 1.00107 1.00084 1.00095 1.00107 1.00118 1.00129 1.0014 1.00151 1.00163 1.00118
          1.00118 1.00129 1.00129 1.0014 1.00151 1.00163 1.0014 1.00151 1.00163 1.00118 1.00129 1.0014
          1.00151 1.00163 1.00118 1.00129 1.0014 1.00151 1.00163 1.00174 1.00185 1.00196 1.00208 1.00219
          1.00174 1.00185 1.00174 1.00185 1.00196 1.00196 1.00208 1.00219 1.00208 1.00219 1.00174 1.00185
          1.00196 1.00208 1.00219 1.00174 1.00185 1.00196 1.00208 1.00219 1.0023 1.00241 1.0023 1.00241
          1.0023 1.00241 1.00252 1.00264 1.00275 1.00252 1.00264 1.00275 1.00252 1.00264 1.00275 1.00286
          1.00286 1.00297 1.00297 1.00309 1.0032 1.00331 1.00309 1.0032 1.00331 1.00286 1.00297 1.00309
          1.0032 1.00331 1.0023 1.00241 1.0023 1.00241 1.00252 1.00264 1.00275 1.00252 1.00264 1.00275
          1.00286 1.00297 1.00309 1.0032 1.00331 1.00286 1.00297 1.00309 1.0032 1.0023 1.00241 1.0023
          1.00241 1.0023 1.00241 1.00252 1.00264 1.00275 1.00252 1.00264 1.00275 1.00252 1.00264 1.00275
          1.00286 1.00286 1.00297 1.00297 1.00309 1.0032 1.00309 1.0032 1.00286 1.00297 1.00309 1.0032
          1.0023 1.00241 1.0023 1.00241 1.00252 1.00264 1.00275 1.00252 1.00264 1.00275 1.00286 1.00297
          1.00309 1.0032 1.00286 1.00297 1.00309 1.0032 1.00342 1.00353 1.00342 1.00353 1.00365 1.00365
          1.00376 1.00376 1.00342 1.00353 1.00365 1.00376 1.00387 1.00398 1.00387 1.00398 1.0041 1.00387
          1.00398 1.0041 1.00421 1.00432 1.00421 1.00432 1.00342 1.00353 1.00365 1.00376 1.00331 1.00342
          1.00353 1.00365 1.00376 1.00387 1.00398 1.0041 1.00387 1.00398 1.0041 1.00421 1.00432 1.00421
          1.00432 1.00331 1.00342 1.00353 1.00331 1.00342 1.00353 1.00365 1.00365 1.00376 1.00376 1.00331
          1.00342 1.00353 1.00365 1.00376 1.00387 1.00398 1.0041 1.00387 1.00398 1.0041 1.00387 1.00398
          1.0041 1.00421 1.00432 1.00421 1.00432 1.00421 1.00432 1.00331 1.00342 1.00353 1.00365 1.00376
          1.00331 1.00342 1.00353 1.00365 1.00376 1.00387 1.00398 1.0041 1.00387 1.00398 1.0041 1.00421
          1.00432 1.00421 1.00432 1.00443 1.00454 1.00466 1.00477 1.00488 1.00443 1.00454 1.00466 1.00477
          1.00488 1.00443 1.00454 1.00466 1.00477 1.00488 1.00443 1.00454 1.00466 1.00477 1.00488 1.00499
          1.0051 1.00522 1.00533 1.00544 1.00499 1.0051 1.00522 1.00533 1.00544 1.00499 1.0051 1.00522
          1.00533 1.00544 1.00499 1.0051 1.00522 1.00533 1.00544 1.00555 1.00567 1.00578 1.00555 1.00567
          1.00578 1.00589 1.006 1.00589 1.006 1.00611 1.00623 1.00634 1.00645 1.00656 1.00611 1.00623
          1.00634 1.00645 1.00656 1.00555 1.00567 1.00578 1.00555 1.00567 1.00578 1.00589 1.006 1.00589
          1.006 1.00611 1.00623 1.00634 1.00645 1.00656 1.00611 1.00623 1.00634 1.00645 1.00656 1.00443
          1.00454 1.00443 1.00454 1.00466 1.00466 1.00477 1.00488 1.00477 1.00488 1.00443 1.00454 1.00466
          1.00477 1.00488 1.00443 1.00454 1.00466 1.00477 1.00488 1.00443 1.00454 1.00466 1.00477 1.00488
          1.00499 1.0051 1.00522 1.00499 1.0051 1.00522 1.00533 1.00533 1.00544 1.00544 1.00499 1.0051
          1.00522 1.00533 1.00544 1.00499 1.0051 1.00522 1.00533 1.00544 1.00499 1.0051 1.00522 1.00533
          1.00544 1.00555 1.00567 1.00578 1.00555 1.00567 1.00578 1.00555 1.00567 1.00578 1.00589 1.006
          1.00589 1.006 1.00589 1.006 1.00611 1.00611 1.00623 1.00634 1.00623 1.00634 1.00645 1.00656
          1.00645 1.00656 1.00611 1.00623 1.00634 1.00645 1.00656 1.00555 1.00567 1.00578 1.00555 1.00567
          1.00578 1.00589 1.006 1.00589 1.006 1.00611 1.00623 1.00634 1.00645 1.00656 1.00611 1.00623
          1.00634 1.00645 1.00656 1.0023 1.00241 1.0023 1.00241 1.0023 1.00241 1.00252 1.00264 1.00275
          1.00252 1.00264 1.00275 1.00252 1.00264 1.00275 1.00286 1.00297 1.00309 1.0032 1.00286 1.00286
          1.00297 1.00297 1.00309 1.0032 1.00309 1.0032 1.0023 1.00241 1.0023 1.00241 1.00252 1.00264
          1.00275 1.00252 1.00264 1.00275 1.00286 1.00297 1.00309 1.0032 1.00286 1.00297 1.00309 1.0032
          1.0023 1.00241 1.0023 1.00241 1.0023 1.00241 1.00252 1.00264 1.00275 1.00252 1.00264 1.00275
          1.00252 1.00264 1.00275 1.00286 1.00297 1.00309 1.0032 1.00286 1.00286 1.00297 1.00297 1.00309
          1.0032 1.00309 1.0032 1.0023 1.00241 1.0023 1.00241 1.00252 1.00264 1.00275 1.00252 1.00264
          1.00275 1.00286 1.00297 1.00309 1.0032 1.00286 1.00297 1.00309 1.0032 1.00331 1.00342 1.00353
          1.00365 1.00376 1.00331 1.00342 1.00353 1.00331 1.00342 1.00353 1.00365 1.00365 1.00376 1.00376
          1.00387 1.00398 1.0041 1.00387 1.00398 1.0041 1.00387 1.00398 1.0041 1.00421 1.00432 1.00421
          1.00432 1.00421 1.00432 1.00331 1.00342 1.00353 1.00365 1.00376 1.00331 1.00342 1.00353 1.00365
          1.00376 1.00387 1.00398 1.0041 1.00387 1.00398 1.0041 1.00421 1.00432 1.00421 1.00432 1.00331
          1.00342 1.00353 1.00365 1.00376 1.00331 1.00342 1.00353 1.00331 1.00342 1.00353 1.00365 1.00365
          1.00376 1.00376 1.00387 1.00398 1.0041 1.00387 1.00398 1.0041 1.00387 1.00398 1.0041 1.00421
          1.00432 1.00421 1.00432 1.00421 1.00432 1.00331 1.00342 1.00353 1.00365 1.00376 1.00331 1.00342
          1.00353 1.00365 1.00376 1.00387 1.00398 1.0041 1.00387 1.00398 1.0041 1.00421 1.00432 1.00421
          1.00432 1.00443 1.00454 1.00466 1.00477 1.00488 1.00443 1.00454 1.00443 1.00454 1.00466 1.00466
          1.00477 1.00488 1.00477 1.00488 1.00443 1.00454 1.00466 1.00477 1.00488 1.00443 1.00454 1.00466
          1.00477 1.00488 1.00499 1.0051 1.00522 1.00533 1.00544 1.00499 1.0051 1.00522 1.00499 1.0051
          1.00522 1.00533 1.00533 1.00544 1.00544 1.00499 1.0051 1.00522 1.00533 1.00544 1.00499 1.0051
          1.00522 1.00533 1.00544 1.00555 1.00567 1.00578 1.00555 1.00567 1.00578 1.00555 1.00567 1.00578
          1.00589 1.006 1.00589 1.006 1.00589 1.006 1.00611 1.00623 1.00634 1.00645 1.00656 1.00611
          1.00611 1.00623 1.00634 1.00623 1.00634 1.00645 1.00656 1.00645 1.00656 1.00555 1.00567 1.00578
          1.00555 1.00567 1.00578 1.00589 1.006 1.00589 1.006 1.00611 1.00623 1.00634 1.00645 1.00656
          1.00611 1.00623 1.00634 1.00645 1.00656 1.00443 1.00454 1.00466 1.00477 1.00488 1.00443 1.00454
          1.00443 1.00454 1.00466 1.00466 1.00477 1.00488 1.00477 1.00488 1.00443 1.00454 1.00466 1.00477
          1.00488 1.00443 1.00454 1.00466 1.00477 1.00488 1.00499 1.0051 1.00522 1.00533 1.00544 1.00499
          1.0051 1.00522 1.00499 1.0051 1.00522 1.00533 1.00533 1.00544 1.00544 1.00499 1.0051 1.00522
          1.00533 1.00544 1.00499 1.0051 1.00522 1.00533 1.00544 1.00555 1.00567 1.00578 1.00555 1.00567
          1.00578 1.00555 1.00567 1.00578 1.00589 1.006 1.00589 1.006 1.00589 1.006 1.00611 1.00623
          1.00634 1.00645 1.00656 1.00611 1.00611 1.00623 1.00634 1.00623 1.00634 1.00645 1.00656 1.00645
          1.00656 1.00555 1.00567 1.00578 1.00555 1.00567 1.00578 1.00589 1.006 1.00589 1.006 1.00611
          1.00623 1.00634 1.00645 1.00656 1.00611 1.00623 1.00634 1.00645 1.00656 1.99344 1.99355 1.99366
          1.99377 1.99389 1.99344 1.99355 1.99366 1.99377 1.99389 1.994 1.99411 1.994 1.99411 1.99422
          1.99433 1.99445 1.99422 1.99433 1.99445 1.99344 1.99355 1.99344 1.99355 1.99366 1.99377 1.99366
          1.99377 1.99389 1.99389 1.99344 1.99355 1.99366 1.99377 1.99389 1.994 1.99411 1.994 1.99411
          1.994 1.99411 1.99422 1.99433 1.99445 1.99422 1.99433 1.99445 1.99422 1.99433 1.99445 1.99456
          1.99467 1.99478 1.9949 1.99501 1.99456 1.99467 1.99478 1.9949 1.99501 1.99456 1.99456 1.99467
          1.99467 1.99478 1.9949 1.99501 1.99478 1.9949 1.99501 1.99456 1.99467 1.99478 1.9949 1.99501
          1.99512 1.99523 1.99534 1.99546 1.99557 1.99512 1.99523 1.99534 1.99546 1.99557 1.99512 1.99523
          1.99512 1.99523 1.99534 1.99534 1.99546 1.99557 1.99546 1.99557 1.99512 1.99523 1.99534 1.99546
          1.99557 1.99344 1.99355 1.99366 1.99377 1.99389 1.99344 1.99355 1.99366 1.99377 1.99389 1.994
          1.99411 1.994 1.99411 1.99422 1.99433 1.99445 1.99422 1.99433 1.99445 1.99344 1.99355 1.99344
          1.99355 1.99366 1.99377 1.99366 1.99377 1.99389 1.99389 1.99344 1.99355 1.99366 1.99377 1.99389
          1.994 1.99411 1.994 1.99411 1.994 1.99411 1.99422 1.99433 1.99445 1.99422 1.99433 1.99445
          1.99422 1.99433 1.99445 1.99456 1.99467 1.99478 1.9949 1.99501 1.99456 1.99467 1.99478 1.9949
          1.99501 1.99456 1.99456 1.99467 1.99467 1.99478 1.9949 1.99501 1.99478 1.9949 1.99501 1.99456
          1.99467 1.99478 1.9949 1.99501 1.99512 1.99523 1.99534 1.99546 1.99557 1.99512 1.99523 1.99534
          1.99546 1.99557 1.99512 1.99523 1.99512 1.99523 1.99534 1.99534 1.99546 1.99557 1.99546 1.99557
          1.99512 1.99523 1.99534 1.99546 1.99557 1.99568 1.99579 1.99568 1.99579 1.9959 1.99602 1.99613
          1.9959 1.99602 1.99613 1.99624 1.99635 1.99647 1.99658 1.99669 1.99624 1.99635 1.99647 1.99658
          1.99669 1.99568 1.99579 1.99568 1.99579 1.99568 1.99579 1.9959 1.99602 1.99613 1.9959 1.99602
          1.99613 1.9959 1.99602 1.99613 1.99624 1.99624 1.99635 1.99635 1.99647 1.99658 1.99669 1.99647
          1.99658 1.99669 1.99624 1.99635 1.99647 1.99658 1.99669 1.99568 1.99579 1.99568 1.99579 1.9959
          1.99602 1.99613 1.9959 1.99602 1.99613 1.99624 1.99635 1.99647 1.99658 1.99669 1.99624 1.99635
          1.99647 1.99658 1.99669 1.99568 1.99579 1.99568 1.99579 1.99568 1.99579 1.9959 1.99602 1.99613
          1.9959 1.99602 1.99613 1.9959 1.99602 1.99613 1.99624 1.99624 1.99635 1.99635 1.99647 1.99658
          1.99669 1.99647 1.99658 1.99669 1.99624 1.99635 1.99647 1.99658 1.99669 1.9968 1.99691 1.99703
          1.99714 1.9968 1.99691 1.99703 1.99714 1.99725 1.99736 1.99748 1.99725 1.99736 1.99748 1.99759
          1.9977 1.99759 1.9977 1.9968 1.99691 1.9968 1.99691 1.99703 1.99703 1.99714 1.99714 1.9968
          1.99691 1.99703 1.99714 1.99725 1.99736 1.99748 1.99725 1.99736 1.99748 1.99725 1.99736 1.99748
          1.99759 1.9977 1.99759 1.9977 1.99759 1.9977 1.9968 1.99691 1.99703 1.99714 1.9968 1.99691
          1.99703 1.99714 1.99725 1.99736 1.99748 1.99725 1.99736 1.99748 1.99759 1.9977 1.99759 1.9977
          1.9968 1.99691 1.9968 1.99691 1.99703 1.99703 1.99714 1.99714 1.9968 1.99691 1.99703 1.99714
          1.99725 1.99736 1.99748 1.99725 1.99736 1.99748 1.99725 1.99736 1.99748 1.99759 1.9977 1.99759
          1.9977 1.99759 1.9977 1.99344 1.99355 1.99366 1.99377 1.99389 1.99344 1.99355 1.99366 1.99377
          1.99389 1.994 1.99411 1.994 1.99411 1.99422 1.99433 1.99445 1.99422 1.99433 1.99445 1.99344
          1.99355 1.99366 1.99377 1.99389 1.99344 1.99355 1.99344 1.99355 1.99366 1.99377 1.99366 1.99377
          1.99389 1.99389 1.994 1.99411 1.994 1.99411 1.994 1.99411 1.99422 1.99433 1.99445 1.99422
          1.99433 1.99445 1.99422 1.99433 1.99445 1.99456 1.99467 1.99478 1.9949 1.99501 1.99456 1.99467
          1.99478 1.9949 1.99501 1.99456 1.99467 1.99478 1.9949 1.99501 1.99456 1.99456 1.99467 1.99467
          1.99478 1.9949 1.99501 1.99478 1.9949 1.99501 1.99512 1.99523 1.99534 1.99546 1.99557 1.99512
          1.99523 1.99534 1.99546 1.99557 1.99512 1.99523 1.99534 1.99546 1.99557 1.99512 1.99523 1.99512
          1.99523 1.99534 1.99534 1.99546 1.99557 1.99546 1.99557 1.99344 1.99355 1.99366 1.99377 1.99389
          1.99344 1.99355 1.99366 1.99377 1.99389 1.994 1.99411 1.994 1.99411 1.99422 1.99433 1.99445
          1.99422 1.99433 1.99445 1.99344 1.99355 1.99366 1.99377 1.99389 1.99344 1.99355 1.99344 1.99355
          1.99366 1.99377 1.99366 1.99377 1.99389 1.99389 1.994 1.99411 1.994 1.99411 1.994 1.99411
          1.99422 1.99433 1.99445 1.99422 1.99433 1.99445 1.99422 1.99433 1.99445 1.99456 1.99467 1.99478
          1.9949 1.99501 1.99456 1.99467 1.99478 1.9949 1.99501 1.99456 1.99467 1.99478 1.9949 1.99501
          1.99456 1.99456 1.99467 1.99467 1.99478 1.9949 1.99501 1.99478 1.9949 1.99501 1.99512 1.99523
          1.99534 1.99546 1.99557 1.99512 1.99523 1.99534 1.99546 1.99557 1.99512 1.99523 1.99534 1.99546
          1.99557 1.99512 1.99523 1.99512 1.99523 1.99534 1.99534 1.99546 1.99557 1.99546 1.99557 1.99568
          1.99579 1.99568 1.99579 1.9959 1.99602 1.99613 1.9959 1.99602 1.99613 1.99624 1.99635 1.99647
          1.99658 1.99669 1.99624 1.99635 1.99647 1.99658 1.99669 1.99568 1.99579 1.99568 1.99579 1.99568
          1.99579 1.9959 1.99602 1.99613 1.9959 1.99602 1.99613 1.9959 1.99602 1.99613 1.99624 1.99635
          1.99647 1.99658 1.99669 1.99624 1.99624 1.99635 1.99635 1.99647 1.99658 1.99669 1.99647 1.99658
          1.99669 1.99568 1.99579 1.99568 1.99579 1.9959 1.99602 1.99613 1.9959 1.99602 1.99613 1.99624
          1.99635 1.99647 1.99658 1.99669 1.99624 1.99635 1.99647 1.99658 1.99669 1.99568 1.99579 1.99568
          1.99579 1.99568 1.99579 1.9959 1.99602 1.99613 1.9959 1.99602 1.99613 1.9959 1.99602 1.99613
          1.99624 1.99635 1.99647 1.99658 1.99669 1.99624 1.99624 1.99635 1.99635 1.99647 1.99658 1.99669
          1.99647 1.99658 1.99669 1.9968 1.99691 1.99703 1.99714 1.9968 1.99691 1.99703 1.99714 1.99725
          1.99736 1.99748 1.99725 1.99736 1.99748 1.99759 1.9977 1.99759 1.9977 1.9968 1.99691 1.99703
          1.99714 1.9968 1.99691 1.9968 1.99691 1.99703 1.99703 1.99714 1.99714 1.99725 1.99736 1.99748
          1.99725 1.99736 1.99748 1.99725 1.99736 1.99748 1.99759 1.9977 1.99759 1.9977 1.99759 1.9977
          1.9968 1.99691 1.99703 1.99714 1.9968 1.99691 1.99703 1.99714 1.99725 1.99736 1.99748 1.99725
          1.99736 1.99748 1.99759 1.9977 1.99759 1.9977 1.9968 1.99691 1.99703 1.99714 1.9968 1.99691
          1.9968 1.99691 1.99703 1.99703 1.99714 1.99714 1.99725 1.99736 1.99748 1.99725 1.99736 1.99748
          1.99725 1.99736 1.99748 1.99759 1.9977 1.99759 1.9977 1.99759 1.9977 1.99781 1.99792 1.99804
          1.99815 1.99826 1.99781 1.99792 1.99804 1.99815 1.99826 1.99781 1.99792 1.99781 1.99792 1.99804
          1.99804 1.99815 1.99826 1.99815 1.99826 1.99781 1.99792 1.99804 1.99815 1.99826 1.99837 1.99849
          1.9986 1.99871 1.99882 1.99837 1.99849 1.9986 1.99871 1.99882 1.99837 1.99849 1.9986 1.99837
          1.99849 1.9986 1.99871 1.99871 1.99882 1.99882 1.99837 1.99849 1.9986 1.99871 1.99882 1.99893
          1.99905 1.99916 1.99893 1.99905 1.99916 1.99927 1.99938 1.99927 1.99938 1.9995 1.99961 1.99972
          1.99983 1.99994 1.9995 1.99961 1.99972 1.99983 1.99994 1.99893 1.99905 1.99916 1.99893 1.99905
          1.99916 1.99893 1.99905 1.99916 1.99927 1.99938 1.99927 1.99938 1.99927 1.99938 1.9995 1.9995
          1.99961 1.99972 1.99961 1.99972 1.99983 1.99994 1.99983 1.99994 1.9995 1.99961 1.99972 1.99983
          1.99994 1.99781 1.99792 1.99804 1.99815 1.99826 1.99781 1.99792 1.99804 1.99815 1.99826 1.99781
          1.99792 1.99781 1.99792 1.99804 1.99804 1.99815 1.99826 1.99815 1.99826 1.99781 1.99792 1.99804
          1.99815 1.99826 1.99837 1.99849 1.9986 1.99871 1.99882 1.99837 1.99849 1.9986 1.99871 1.99882
          1.99837 1.99849 1.9986 1.99837 1.99849 1.9986 1.99871 1.99871 1.99882 1.99882 1.99837 1.99849
          1.9986 1.99871 1.99882 1.99893 1.99905 1.99916 1.99893 1.99905 1.99916 1.99927 1.99938 1.99927
          1.99938 1.9995 1.99961 1.99972 1.99983 1.99994 1.9995 1.99961 1.99972 1.99983 1.99994 1.99893
          1.99905 1.99916 1.99893 1.99905 1.99916 1.99893 1.99905 1.99916 1.99927 1.99938 1.99927 1.99938
          1.99927 1.99938 1.9995 1.9995 1.99961 1.99972 1.99961 1.99972 1.99983 1.99994 1.99983 1.99994
          1.9995 1.99961 1.99972 1.99983 1.99994 1.99781 1.99792 1.99804 1.99815 1.99826 1.99781 1.99792
          1.99804 1.99815 1.99826 1.99781 1.99792 1.99804 1.99815 1.99826 1.99781 1.99792 1.99781 1.99792
          1.99804 1.99804 1.99815 1.99826 1.99815 1.99826 1.99837 1.99849 1.9986 1.99871 1.99882 1.99837
          1.99849 1.9986 1.99871 1.99882 1.99837 1.99849 1.9986 1.99871 1.99882 1.99837 1.99849 1.9986
          1.99837 1.99849 1.9986 1.99871 1.99871 1.99882 1.99882 1.99893 1.99905 1.99916 1.99893 1.99905
          1.99916 1.99927 1.99938 1.99927 1.99938 1.9995 1.99961 1.99972 1.99983 1.99994 1.9995 1.99961
          1.99972 1.99983 1.99994 1.99893 1.99905 1.99916 1.99893 1.99905 1.99916 1.99893 1.99905 1.99916
          1.99927 1.99938 1.99927 1.99938 1.99927 1.99938 1.9995 1.99961 1.99972 1.99983 1.99994 1.9995
          1.9995 1.99961 1.99972 1.99961 1.99972 1.99983 1.99994 1.99983 1.99994 1.99781 1.99792 1.99804
          1.99815 1.99826 1.99781 1.99792 1.99804 1.99815 1.99826 1.99781 1.99792 1.99804 1.99815 1.99826
          1.99781 1.99792 1.99781 1.99792 1.99804 1.99804 1.99815 1.99826 1.99815 1.99826 1.99837 1.99849