<?xml version="1.0"?>
<VTKFile type="UnstructuredGrid" version="0.1" byte_order="LittleEndian">
  <UnstructuredGrid>
    <Piece NumberOfCells="944" NumberOfPoints="2832">
      <PointData Scalars="p">
        <DataArray type="Float32" Name="p" NumberOfComponents="1" format="ascii">
          1.03659 1.04999 1 1 1 1.03659 1.07947 1.09997 1.04999 1.04999 1.03659 1.07947
          1.0424 1.03659 1 1 1.0424 1 1.07947 1.03659 1.0424 1.07947 1.0424 1.07944
          1.07947 1.12559 1.09997 1.09997 1.12559 1.14996 1.17495 1.14996 1.12559 1.12567 1.12559 1.07947
          1.07947 1.07944 1.12567 1.17495 1.12559 1.12567 1.12567 1.17499 1.17495 1.04943 1.0424 1
          1.04943 1.07944 1.0424 1.10026 1.07944 1.04943 1 1 1.04943 1 1.04187 1.04943
          1.04943 1.07961 1.10026 1.04187 1.07961 1.04943 1.12567 1.07944 1.10026 1.12567 1.10026 1.14996
          1.14996 1.17499 1.12567 1.10026 1.07961 1.12188 1.14996 1.10026 1.12188 1.12188 1.17495 1.14996
          1.14996 1.17495 1.19995 1.22494 1.19995 1.17495 1.19995 1.22494 1.24993 1.27493 1.24993 1.22494
          1.17495 1.17499 1.22494 1.22494 1.22494 1.17495 1.27493 1.22494 1.22494 1.24993 1.27493 1.29992
          1.34991 1.29992 1.32491 1.32491 1.29992 1.27493 1.22494 1.27492 1.27493 1.32491 1.27493 1.27492
          1.27492 1.32344 1.32491 1.19994 1.17499 1.14996 1.22494 1.17499 1.19994 1.19994 1.24993 1.22494
          1.14996 1.17495 1.19994 1.22494 1.19994 1.17495 1.19994 1.22494 1.24993 1.27492 1.22494 1.24993
          1.27492 1.24993 1.29992 1.29992 1.32344 1.27492 1.3499 1.32344 1.29992 1.27492 1.24993 1.22494
          1.24993 1.27492 1.29992 1.32491 1.29992 1.27492 1.29992 1.32491 1.3499 1 1 1.04187
          1.04286 1.04187 1 1.08077 1.07961 1.04187 1.04286 1.08077 1.04187 1 1.04286 1
          1.0847 1.08077 1.04286 1.12188 1.07961 1.08077 1.08077 1.11371 1.12188 1.12188 1.15257 1.17495
          1.0847 1.11371 1.08077 1.12865 1.11371 1.0847 1.12188 1.11371 1.15257 1.15257 1.11371 1.12865
          1.15257 1.12865 1.17567 1.04311 1.04286 1 1 1.04311 1 1.04311 1.0847 1.04286
          1.09378 1.0847 1.04311 1.04311 1 1.04224 1 1.04224 1 1.04311 1.04224 1.09378
          1.04224 1.07969 1.09378 1.09378 1.12865 1.0847 1.14995 1.12865 1.09378 1.17567 1.12865 1.14995
          1.12496 1.14995 1.09378 1.15257 1.19994 1.17495 1.17495 1.19994 1.22494 1.19994 1.24993 1.22494
          1.19994 1.15257 1.17567 1.17567 1.22493 1.19994 1.22493 1.24993 1.19994 1.22494 1.24993 1.27492
          1.29991 1.27492 1.24993 1.27492 1.29991 1.32491 1.34989 1.32491 1.29991 1.24993 1.22493 1.27492
          1.27492 1.29991 1.24993 1.29991 1.27492 1.32491 1.32491 1.34989 1.29991 1.22493 1.17567 1.20006
          1.20006 1.17567 1.14995 1.14995 1.17495 1.20006 1.20006 1.24993 1.22493 1.24993 1.20006 1.22493
          1.22493 1.24993 1.27492 1.29991 1.32491 1.27492 1.27492 1.24993 1.29991 1.27492 1.29991 1.24993
          1.32491 1.29991 1.3499 1.3249 1.3499 1.29991 1.37883 1.34991 1.32491 1.37883 1.3999 1.34991
          1.3999 1.37883 1.42709 1.36754 1.37883 1.32491 1.32491 1.32344 1.36754 1.41212 1.42709 1.37883
          1.37883 1.36754 1.41212 1.42709 1.44989 1.3999 1.44989 1.42709 1.47561 1.47561 1.49988 1.44989
          1.4556 1.47561 1.42709 1.42709 1.41212 1.4556 1.47561 1.4556 1.50207 1.36754 1.32344 1.3499
          1.36754 1.3499 1.39989 1.39989 1.41212 1.36754 1.37484 1.3499 1.32491 1.39989 1.3499 1.37484
          1.37484 1.42456 1.39989 1.4414 1.4556 1.41212 1.41212 1.39989 1.4414 1.4556 1.4414 1.48807
          1.48807 1.50207 1.4556 1.42456 1.4414 1.39989 1.4414 1.42456 1.47291 1.47291 1.48807 1.4414
          1.52486 1.48807 1.47291 1.49988 1.52487 1.54987 1.49988 1.47561 1.52487 1.54987 1.57486 1.59986
          1.57486 1.54987 1.52487 1.50207 1.52487 1.47561 1.50207 1.54986 1.52487 1.52487 1.54986 1.57486
          1.59986 1.57486 1.54986 1.64986 1.59986 1.62289 1.57486 1.62289 1.59986 1.67485 1.64986 1.62289
          1.62289 1.57486 1.59986 1.59986 1.63805 1.62289 1.62289 1.63805 1.67485 1.63805 1.67576 1.67485
          1.54986 1.50207 1.52487 1.48807 1.52487 1.50207 1.59986 1.54986 1.56748 1.52487 1.56748 1.54986
          1.56748 1.52487 1.52486 1.52486 1.52487 1.48807 1.52486 1.57884 1.56748 1.63805 1.59986 1.61218
          1.56748 1.61218 1.59986 1.65421 1.67576 1.63805 1.63805 1.61218 1.65421 1.61218 1.56748 1.57884
          1.57884 1.62773 1.61218 1.62773 1.65421 1.61218 1.62773 1.67483 1.65421 1.34989 1.37484 1.32491
          1.37484 1.34989 1.39982 1.39982 1.42456 1.37484 1.34989 1.32491 1.37488 1.37488 1.39982 1.34989
          1.42488 1.39982 1.37488 1.44988 1.42456 1.39982 1.44988 1.47291 1.42456 1.47291 1.44988 1.49986
          1.47291 1.49986 1.52486 1.39982 1.42488 1.44988 1.44988 1.42488 1.47487 1.44988 1.47487 1.49986
          1.3499 1.37488 1.32491 1.37488 1.39988 1.42488 1.37488 1.3499 1.39988 1.37489 1.39988 1.3499
          1.44987 1.47487 1.42488 1.42488 1.39988 1.44987 1.42487 1.44987 1.39988 1.47487 1.44987 1.49986
          1.49986 1.44987 1.47486 1.52486 1.49986 1.54985 1.52486 1.54985 1.57884 1.54985 1.59984 1.57884
          1.49986 1.47487 1.52485 1.49986 1.52485 1.54985 1.57484 1.54985 1.52485 1.54985 1.57484 1.59984
          1.62773 1.57884 1.59984 1.59984 1.64983 1.62773 1.64983 1.67483 1.62773 1.62483 1.59984 1.57484
          1.59984 1.62483 1.64983 1.67482 1.64983 1.62483 1.47487 1.49986 1.52485 1.52485 1.54984 1.57484
          1.52485 1.49986 1.54984 1.49986 1.52484 1.54984 1.57484 1.54984 1.59983 1.54984 1.57483 1.59983
          1.59983 1.62483 1.57484 1.62483 1.64982 1.67482 1.62483 1.59983 1.64982 1.62482 1.64982 1.59983
          1.04224 1 1.04329 1.04329 1.07969 1.04224 1.09294 1.07969 1.04329 1 1 1.04329
          1.04488 1.04329 1 1.09294 1.04329 1.04488 1.09378 1.07969 1.12496 1.12496 1.07969 1.09294
          1.17495 1.14995 1.12496 1.14995 1.17495 1.12496 1.14995 1.12496 1.09294 1.09294 1.12623 1.14995
          1.04488 1 1 1.05045 1.04488 1 1.04488 1.08351 1.09294 1.05045 1.08351 1.04488
          1 1 1.05045 1.10307 1.08351 1.05045 1.08403 1.10307 1.05045 1.09294 1.08351 1.12623
          1.12623 1.08351 1.10307 1.12623 1.17494 1.14995 1.17494 1.12623 1.15016 1.12623 1.10307 1.15016
          1.12806 1.15016 1.10307 1.17495 1.22493 1.20006 1.22493 1.17495 1.19994 1.14995 1.19994 1.17495
          1.19994 1.14995 1.17494 1.19994 1.24992 1.22493 1.22493 1.24992 1.19994 1.22493 1.27492 1.24993
          1.27492 1.22493 1.24992 1.27492 1.3249 1.29991 1.29991 1.3249 1.27492 1.24992 1.29991 1.27492
          1.24992 1.27491 1.29991 1.29991 1.34989 1.3249 1.34989 1.29991 1.3249 1.22493 1.19994 1.17494
          1.19997 1.22493 1.17494 1.17494 1.15016 1.19997 1.17554 1.19997 1.15016 1.22493 1.19997 1.24992
          1.24992 1.19997 1.22492 1.22493 1.27491 1.24992 1.24992 1.27491 1.22493 1.27491 1.3249 1.29991
          1.27491 1.2999 1.3249 1.24992 1.2999 1.27491 1.2999 1.24992 1.27491 1.3249 1.2999 1.34988
          1.2999 1.32489 1.34988 1 1.04046 1.05045 1 1.04046 1 1.05045 1.04046 1.08403
          1.04046 1.06931 1.08403 1.04046 1 1.03956 1 1.03956 1 1.03956 1.06931 1.04046
          1.07937 1.06931 1.03956 1.10307 1.08403 1.12806 1.10601 1.12806 1.08403 1.15016 1.12806 1.17554
          1.17554 1.12806 1.15014 1.08403 1.06931 1.10601 1.07937 1.10601 1.06931 1.12806 1.10601 1.15014
          1.12613 1.15014 1.10601 1.03956 1 1.04296 1.04296 1.07937 1.03956 1.07937 1.04296 1.09285
          1 1 1.04296 1.04329 1.04296 1 1.04296 1.04329 1.09285 1.10601 1.07937 1.12613
          1.09285 1.12613 1.07937 1.15014 1.12613 1.17494 1.17494 1.12613 1.1499 1.1499 1.12613 1.09285
          1.19997 1.17554 1.22492 1.22492 1.17554 1.19996 1.15014 1.19996 1.17554 1.19996 1.15014 1.17494
          1.22492 1.19996 1.24991 1.22492 1.24991 1.19996 1.22492 1.27491 1.24992 1.22492 1.24991 1.27491
          1.2999 1.27491 1.32489 1.27491 1.2999 1.32489 1.27491 1.24991 1.2999 1.24991 1.2749 1.2999
          1.34988 1.32489 1.2999 1.2999 1.32488 1.34988 1.17494 1.22492 1.19996 1.22492 1.17494 1.19993
          1.19993 1.17494 1.1499 1.22492 1.19993 1.24991 1.22492 1.2749 1.24991 1.22492 1.24991 1.2749
          1.32488 1.2999 1.2749 1.2749 1.29989 1.32488 1.29989 1.2749 1.24991 1.34987 1.32488 1.29989
          1.3499 1.3249 1.37489 1.34989 1.37489 1.3249 1.39988 1.37489 1.42487 1.39987 1.42487 1.37489
          1.37489 1.34989 1.39987 1.37488 1.39987 1.34989 1.42487 1.47486 1.44987 1.47486 1.42487 1.44986
          1.42487 1.39987 1.44986 1.42486 1.44986 1.39987 1.47486 1.44986 1.49984 1.49984 1.44986 1.47485
          1.3249 1.37488 1.34989 1.34988 1.37488 1.3249 1.39987 1.37488 1.42486 1.39987 1.42486 1.37488
          1.34988 1.39987 1.37488 1.34988 1.37487 1.39987 1.42486 1.47485 1.44986 1.47485 1.42486 1.44985
          1.39987 1.44985 1.42486 1.39987 1.42485 1.44985 1.44985 1.49983 1.47485 1.44985 1.47484 1.49983
          1.49986 1.47486 1.52484 1.47486 1.49984 1.52484 1.54984 1.52484 1.57483 1.52484 1.54983 1.57483
          1.54983 1.52484 1.49984 1.49984 1.52483 1.54983 1.54983 1.59981 1.57483 1.59981 1.54983 1.57482
          1.62482 1.59983 1.57483 1.57483 1.59981 1.62482 1.64982 1.62482 1.6748 1.6748 1.62482 1.6498
          1.59981 1.6498 1.62482 1.59981 1.6248 1.6498 1.47485 1.52483 1.49984 1.47485 1.49983 1.52483
          1.52483 1.57482 1.54983 1.57482 1.52483 1.54982 1.49983 1.54982 1.52483 1.52482 1.54982 1.49983
          1.54982 1.5998 1.57482 1.5998 1.54982 1.5748 1.57482 1.6248 1.59981 1.57482 1.5998 1.6248
          1.67478 1.6498 1.6248 1.6248 1.64978 1.67478 1.5998 1.64978 1.6248 1.5998 1.62478 1.64978
          1.37487 1.34988 1.32489 1.32489 1.34988 1.37487 1.42485 1.39987 1.37487 1.37487 1.39986 1.42485
          1.39986 1.37487 1.34988 1.34988 1.37487 1.39986 1.44985 1.42485 1.47484 1.44984 1.47484 1.42485
          1.44984 1.42485 1.39986 1.39986 1.42485 1.44984 1.47484 1.44984 1.49982 1.49982 1.44984 1.47483
          1.37487 1.34988 1.32488 1.32488 1.34987 1.37487 1.39986 1.37487 1.42485 1.37487 1.39985 1.42485
          1.39985 1.37487 1.34987 1.44984 1.42485 1.47483 1.47483 1.42485 1.44983 1.44983 1.42485 1.39985
          1.47483 1.44983 1.49981 1.47484 1.52482 1.49983 1.49982 1.52482 1.47484 1.52482 1.5748 1.54982
          1.5498 1.5748 1.52482 1.52482 1.49982 1.5498 1.52481 1.5498 1.49982 1.5748 1.5498 1.59979
          1.59979 1.5498 1.57479 1.5748 1.62478 1.5998 1.62478 1.5748 1.59979 1.67476 1.64978 1.62478
          1.67476 1.62478 1.64977 1.62478 1.59979 1.64977 1.64977 1.59979 1.62477 1.49982 1.47483 1.52481
          1.52481 1.47483 1.49981 1.5498 1.52481 1.57479 1.54979 1.57479 1.52481 1.52481 1.49981 1.54979
          1.57479 1.54979 1.59977 1.59979 1.57479 1.62477 1.62477 1.57479 1.59977 1.64977 1.62477 1.67475
          1.67475 1.62477 1.64975 1.62477 1.59977 1.64975 1.67485 1.69985 1.64986 1.72483 1.69985 1.67485
          1.69985 1.72483 1.74985 1.74985 1.72483 1.77441 1.72485 1.72483 1.67485 1.67485 1.67576 1.72485
          1.77441 1.72483 1.72485 1.79986 1.74985 1.77441 1.79986 1.82686 1.84987 1.82686 1.79986 1.77441
          1.72485 1.7739 1.77441 1.77441 1.7739 1.81187 1.77441 1.81187 1.82686 1.82686 1.81187 1.85097
          1.67576 1.65421 1.69982 1.72485 1.67576 1.69982 1.69982 1.74978 1.72485 1.74978 1.7739 1.72485
          1.67483 1.69982 1.65421 1.72478 1.69982 1.67483 1.74978 1.69982 1.72478 1.74978 1.72478 1.77451
          1.74978 1.79419 1.7739 1.81187 1.7739 1.79419 1.83591 1.85097 1.81187 1.79419 1.83591 1.81187
          1.79419 1.74978 1.77451 1.83591 1.79419 1.81822 1.77451 1.81822 1.79419 1.89988 1.84987 1.87487
          1.84987 1.82686 1.87487 1.87487 1.92296 1.89988 1.85097 1.87487 1.82686 1.92296 1.87487 1.89955
          1.87487 1.85097 1.89955 1.94991 1.89988 1.92296 1.92296 1.96331 1.94991 1.99996 1.94991 1.96331
          1.96331 1.99994 1.99996 1.95384 1.96331 1.92296 1.95384 1.92296 1.89955 1.99994 1.96331 1.95384
          1.95384 1.9999 1.99994 1.85097 1.83591 1.87485 1.87485 1.89955 1.85097 1.89955 1.87485 1.92486
          1.85994 1.87485 1.83591 1.81822 1.85994 1.83591 1.90335 1.92486 1.87485 1.87485 1.85994 1.90335
          1.95384 1.89955 1.92486 1.92486 1.96648 1.95384 1.95384 1.96648 1.9999 1.95541 1.96648 1.92486
          1.92486 1.90335 1.95541 1.9999 1.96648 1.99986 1.99986 1.96648 1.95541 1.64983 1.69982 1.67483
          1.69982 1.72478 1.67483 1.74982 1.72478 1.69982 1.74982 1.77451 1.72478 1.64983 1.67482 1.69982
          1.72481 1.69982 1.67482 1.69982 1.72481 1.74982 1.77451 1.74982 1.79791 1.81822 1.77451 1.79791
          1.81822 1.79791 1.83916 1.74982 1.72481 1.7748 1.7748 1.79791 1.74982 1.82374 1.83916 1.79791
          1.67482 1.69981 1.72481 1.69981 1.67482 1.64982 1.69981 1.64982 1.6748 1.7498 1.72481 1.69981
          1.69981 1.72479 1.7498 1.72481 1.7498 1.7748 1.79791 1.7748 1.82374 1.79961 1.82374 1.7748
          1.7748 1.7498 1.79961 1.77478 1.79961 1.7498 1.82374 1.79961 1.84713 1.82476 1.84713 1.79961
          1.85994 1.81822 1.83916 1.83916 1.88266 1.85994 1.88266 1.90335 1.85994 1.90335 1.88266 1.92679
          1.88266 1.83916 1.86425 1.86425 1.90372 1.88266 1.90372 1.92679 1.88266 1.95541 1.90335 1.92679
          1.92679 1.96718 1.95541 1.99982 1.99986 1.95541 1.96718 1.99982 1.95541 1.95009 1.96718 1.92679
          1.99982 1.96718 1.99978 1.99978 1.96718 1.95009 1.83916 1.82374 1.86425 1.84713 1.86425 1.82374
          1.89976 1.90372 1.86425 1.89976 1.86425 1.84713 1.84713 1.87349 1.89976 1.92679 1.90372 1.95009
          1.95009 1.90372 1.89976 1.99975 1.99978 1.95009 1.89976 1.95587 1.95009 1.89976 1.91841 1.95587
          1.95009 1.95587 1.99975 1.95587 1.99971 1.99975 1.72479 1.69981 1.6748 1.6748 1.69979 1.72479
          1.69979 1.6748 1.6498 1.6498 1.67478 1.69979 1.74977 1.72479 1.69979 1.69979 1.72477 1.74977
          1.72479 1.77478 1.7498 1.72479 1.74977 1.77478 1.79961 1.77478 1.82476 1.82476 1.77478 1.79976
          1.74977 1.79976 1.77478 1.79976 1.74977 1.77475 1.79976 1.84974 1.82476 1.84974 1.79976 1.82468
          1.72477 1.69979 1.67478 1.67478 1.69976 1.72477 1.69976 1.67478 1.64978 1.64978 1.67476 1.69976
          1.69976 1.74975 1.72477 1.69976 1.72474 1.74975 1.72477 1.77475 1.74977 1.77475 1.72477 1.74975
          1.77475 1.82468 1.79976 1.82468 1.77475 1.79968 1.74975 1.79968 1.77475 1.79968 1.74975 1.77472
          1.79968 1.84945 1.82468 1.8247 1.84945 1.79968 1.84713 1.82476 1.87349 1.84974 1.87349 1.82476
          1.87349 1.91841 1.89976 1.90652 1.91841 1.87349 1.90652 1.87349 1.84974 1.84974 1.87471 1.90652
          1.95587 1.91841 1.95641 1.95641 1.91841 1.90652 1.95587 1.95641 1.99971 1.95641 1.99968 1.99971
          1.95482 1.95641 1.90652 1.99968 1.95641 1.95482 1.87471 1.84974 1.82468 1.82468 1.84945 1.87471
          1.87471 1.91676 1.90652 1.89773 1.91676 1.87471 1.84945 1.89773 1.87471 1.89773 1.84945 1.87317
          1.90652 1.91676 1.95482 1.95482 1.91676 1.95002 1.99965 1.99968 1.95482 1.99965 1.95482 1.95002
          1.95002 1.91676 1.89773 1.95002 1.89773 1.91561 1.95002 1.99963 1.99965 1.95002 1.96564 1.99963
          1.72474 1.69976 1.67476 1.69974 1.72474 1.67476 1.64977 1.69974 1.67476 1.69974 1.64977 1.67475
          1.74972 1.72474 1.69974 1.74972 1.69974 1.72472 1.77472 1.74975 1.72474 1.72474 1.74972 1.77472
          1.79968 1.77472 1.8247 1.77472 1.7997 1.8247 1.7997 1.77472 1.74972 1.7997 1.74972 1.7747
          1.84968 1.8247 1.7997 1.84968 1.7997 1.82468 1.69974 1.67475 1.72472 1.72472 1.67475 1.69973
          1.67475 1.64975 1.69973 1.72472 1.69973 1.7497 1.72472 1.7747 1.74972 1.7747 1.72472 1.7497
          1.7997 1.7747 1.82468 1.82468 1.7747 1.79968 1.7747 1.7497 1.79968 1.82468 1.79968 1.84965
          1.8247 1.87317 1.84945 1.87317 1.8247 1.84968 1.87317 1.91561 1.89773 1.91561 1.87317 1.89856
          1.87317 1.84968 1.89856 1.87465 1.89856 1.84968 1.91561 1.96564 1.95002 1.95524 1.96564 1.91561
          1.99963 1.96564 1.9996 1.91561 1.89856 1.95524 1.95524 1.9996 1.96564 1.99958 1.9996 1.95524
          1.87465 1.84968 1.82468 1.87465 1.82468 1.84965 1.89856 1.87465 1.92124 1.84965 1.89629 1.87465
          1.89629 1.92124 1.87465 1.89856 1.92124 1.95524 1.95524 1.92124 1.96482 1.96482 1.99958 1.95524
          1.99958 1.96482 1.99956 1.89629 1.93421 1.92124 1.92124 1.93421 1.96482 1.92252 1.93421 1.89629
          1.96482 1.93421 1.9624 1.9624 1.99956 1.96482 1 1.04329 1 1.04693 1.04329 1
          1.04329 1.08077 1.09285 1.04693 1.08077 1.04329 1 1 1.04693 1.09875 1.08077 1.04693
          1.07323 1.09875 1.04693 1.09285 1.08077 1.1245 1.09285 1.1245 1.1499 1.17485 1.1499 1.1245
          1.1245 1.08077 1.09875 1.14994 1.1245 1.09875 1.14994 1.17485 1.1245 1 1.03291 1.04693
          1 1.03291 1 1.04693 1.03291 1.07323 1.04441 1.03291 1 1 1 1.04441
          1.07323 1.03291 1.04441 1.04441 1.09826 1.07323 1.09875 1.07323 1.12302 1.09875 1.12302 1.14994
          1.17461 1.14994 1.12302 1.09826 1.12302 1.07323 1.12302 1.09826 1.14956 1.12302 1.14956 1.17461
          1.1499 1.17485 1.19993 1.22492 1.19993 1.17485 1.24991 1.19993 1.22492 1.17485 1.14994 1.19993
          1.19993 1.22492 1.17485 1.24991 1.22492 1.19993 1.24991 1.22492 1.2749 1.24991 1.2749 1.29989
          1.32488 1.29989 1.2749 1.29989 1.32488 1.34987 1.24991 1.2749 1.22492 1.2749 1.24991 1.29989
          1.2749 1.29989 1.32488 1.29989 1.34987 1.32488 1.19993 1.14994 1.17461 1.22491 1.19993 1.17461
          1.22491 1.24991 1.19993 1.22491 1.27489 1.24991 1.19987 1.17461 1.14956 1.17461 1.19987 1.22491
          1.2499 1.22491 1.19987 1.27489 1.22491 1.2499 1.29989 1.24991 1.27489 1.32488 1.29989 1.27489
          1.34987 1.29989 1.32488 1.29988 1.27489 1.2499 1.27489 1.29988 1.32488 1.34986 1.32488 1.29988
          1 1.03288 1.04441 1 1.03288 1 1.07471 1.09826 1.04441 1.04441 1.03288 1.07471
          1.04527 1.03288 1 1.07471 1.03288 1.04527 1.04527 1.09966 1.07471 1.09826 1.12485 1.14956
          1.09826 1.07471 1.12485 1.14956 1.12485 1.17485 1.12485 1.07471 1.09966 1.09966 1.15001 1.12485
          1.12485 1.15001 1.17485 1.04527 1 1 1 1.03659 1.04527 1.04527 1.0765 1.09966
          1.04527 1.03659 1.0765 1.03659 1 1 1 1.04998 1.03659 1.0765 1.03659 1.04998
          1.09996 1.0765 1.04998 1.0765 1.12536 1.09966 1.09966 1.12536 1.15001 1.12536 1.17493 1.15001
          1.12536 1.0765 1.09996 1.17493 1.12536 1.14994 1.09996 1.14994 1.12536 1.17485 1.19987 1.14956
          1.2249 1.19987 1.17485 1.19987 1.2249 1.2499 1.27489 1.2499 1.2249 1.17485 1.19992 1.2249
          1.17485 1.15001 1.19992 1.2499 1.27489 1.2249 1.2249 1.19992 1.2499 1.2499 1.27489 1.29988
          1.29988 1.32487 1.34986 1.32487 1.29988 1.27489 1.27489 1.2499 1.29988 1.27489 1.29988 1.32487
          1.34986 1.32487 1.29988 1.19992 1.15001 1.17493 1.19992 1.17493 1.22491 1.22491 1.2499 1.19992
          1.2499 1.22491 1.27489 1.22491 1.17493 1.19992 1.14994 1.19992 1.17493 1.2499 1.27489 1.22491
          1.22491 1.19992 1.2499 1.27489 1.29988 1.2499 1.32487 1.34986 1.29988 1.29988 1.27489 1.32487
          1.27489 1.2499 1.29988 1.27489 1.29988 1.32487 1.29988 1.34986 1.32487 1.37486 1.34987 1.32488
          1.34987 1.37486 1.39985 1.42484 1.39985 1.37486 1.32488 1.34987 1.37486 1.39985 1.37486 1.34987
          1.37486 1.39985 1.42484 1.42484 1.44983 1.39985 1.44983 1.42484 1.47482 1.49981 1.44983 1.47482
          1.44983 1.42484 1.39985 1.44983 1.47482 1.42484 1.47482 1.44983 1.49981 1.37486 1.34987 1.32488
          1.34987 1.37486 1.39985 1.42483 1.39985 1.37486 1.32488 1.34986 1.37486 1.39984 1.37486 1.34986
          1.37486 1.39984 1.42483 1.39985 1.42483 1.44983 1.44983 1.42483 1.47481 1.47481 1.49981 1.44983
          1.39984 1.44982 1.42483 1.42483 1.44982 1.47481 1.4998 1.47481 1.44982 1.47482 1.5248 1.49981
          1.49981 1.5248 1.54979 1.54979 1.5248 1.57478 1.54979 1.57478 1.59977 1.5248 1.47482 1.49981
          1.49981 1.54978 1.5248 1.5248 1.54978 1.57478 1.54978 1.59976 1.57478 1.62476 1.59977 1.57478
          1.64975 1.59977 1.62476 1.64975 1.62476 1.67473 1.62476 1.57478 1.59976 1.64974 1.62476 1.59976
          1.64974 1.67473 1.62476 1.49981 1.47481 1.52479 1.54978 1.49981 1.52479 1.54978 1.52479 1.57477
          1.57477 1.59976 1.54978 1.4998 1.52479 1.47481 1.52479 1.4998 1.54978 1.54978 1.57477 1.52479
          1.54978 1.59975 1.57477 1.57477 1.62475 1.59976 1.59976 1.62475 1.64974 1.62475 1.67472 1.64974
          1.62475 1.57477 1.59975 1.59975 1.64973 1.62475 1.67472 1.62475 1.64973 1.34986 1.37485 1.39984
          1.37485 1.34986 1.32487 1.42483 1.39984 1.37485 1.34986 1.37485 1.32487 1.37485 1.34986 1.39984
          1.39984 1.42483 1.37485 1.39984 1.42483 1.44982 1.47481 1.44982 1.42483 1.44982 1.47481 1.4998
          1.42483 1.44982 1.47481 1.44982 1.42483 1.39984 1.4998 1.47481 1.44982 1.34986 1.37485 1.39984
          1.34986 1.32487 1.37485 1.37485 1.42483 1.39984 1.37485 1.32487 1.34986 1.42483 1.37485 1.39984
          1.34986 1.39984 1.37485 1.44982 1.39984 1.42483 1.47481 1.44982 1.42483 1.44982 1.47481 1.4998
          1.42483 1.44982 1.47481 1.44982 1.42483 1.39984 1.4998 1.47481 1.44982 1.52479 1.54978 1.4998
          1.52479 1.4998 1.47481 1.59975 1.54978 1.57476 1.52479 1.57476 1.54978 1.47481 1.4998 1.52479
          1.54977 1.52479 1.4998 1.57476 1.52479 1.54977 1.57476 1.54977 1.59975 1.64973 1.59975 1.62474
          1.57476 1.62474 1.59975 1.62474 1.67471 1.64973 1.59975 1.62474 1.57476 1.62474 1.59975 1.64972
          1.64972 1.67471 1.62474 1.4998 1.52478 1.54977 1.52478 1.4998 1.47481 1.57476 1.59975 1.54977
          1.57476 1.54977 1.52478 1.4998 1.52478 1.47481 1.52478 1.4998 1.54977 1.54977 1.57476 1.52478
          1.57476 1.54977 1.59975 1.62474 1.64972 1.59975 1.59975 1.57476 1.62474 1.64972 1.62474 1.67471
          1.57476 1.59975 1.62474 1.62474 1.64972 1.67471 1.64972 1.62474 1.59975 1.69973 1.64975 1.67473
          1.69973 1.67473 1.72471 1.7497 1.69973 1.72471 1.64974 1.69971 1.67473 1.72471 1.67473 1.69971
          1.74969 1.72471 1.69971 1.72471 1.77468 1.7497 1.77468 1.79968 1.7497 1.82466 1.79968 1.77468
          1.79968 1.82466 1.84965 1.77468 1.72471 1.74969 1.79966 1.77468 1.74969 1.77468 1.79966 1.82466
          1.84963 1.82466 1.79966 1.69971 1.64974 1.67472 1.67472 1.72469 1.69971 1.69971 1.72469 1.74969
          1.77467 1.74969 1.72469 1.64973 1.6997 1.67472 1.72469 1.67472 1.6997 1.6997 1.74966 1.72469
          1.72469 1.74966 1.77467 1.77467 1.79966 1.74969 1.77467 1.824 1.79966 1.84963 1.79966 1.824
          1.74966 1.79954 1.77467 1.824 1.77467 1.79954 1.824 1.79954 1.84885 1.84965 1.82466 1.87465
          1.87465 1.89629 1.84965 1.87465 1.92252 1.89629 1.82466 1.84963 1.87465 1.90844 1.87465 1.84963
          1.90844 1.92252 1.87465 1.92252 1.9624 1.93421 1.9624 1.92252 1.95832 1.99956 1.9624 1.99955
          1.95832 1.99955 1.9624 1.90844 1.95832 1.92252 1.95576 1.95832 1.90844 1.99955 1.95832 1.99953
          1.84963 1.824 1.87281 1.84963 1.87281 1.90844 1.87281 1.91806 1.90844 1.84885 1.87281 1.824
          1.87281 1.84885 1.89923 1.89923 1.91806 1.87281 1.90844 1.91806 1.95576 1.95576 1.99953 1.95832
          1.95576 1.99952 1.99953 1.95576 1.91806 1.95121 1.95121 1.91806 1.89923 1.99952 1.95576 1.95121
          1.95121 1.99951 1.99952 1.6997 1.64973 1.67471 1.67471 1.72468 1.6997 1.74966 1.6997 1.72468
          1.72468 1.77464 1.74966 1.72468 1.67471 1.6997 1.64972 1.6997 1.67471 1.74967 1.77464 1.72468
          1.72468 1.6997 1.74967 1.79954 1.74966 1.77464 1.82446 1.84885 1.79954 1.79954 1.77464 1.82446
          1.77464 1.74967 1.79962 1.79962 1.82446 1.77464 1.84949 1.82446 1.79962 1.67471 1.6997 1.64972
          1.6997 1.67471 1.72468 1.72468 1.74967 1.6997 1.74967 1.72468 1.77465 1.72468 1.67471 1.6997
          1.6997 1.67471 1.64972 1.74967 1.77465 1.72468 1.72468 1.6997 1.74967 1.77465 1.79962 1.74967
          1.82462 1.84949 1.79962 1.79962 1.77465 1.82462 1.77465 1.74967 1.79964 1.77465 1.79964 1.82462
          1.84961 1.82462 1.79964 1.87427 1.89923 1.84885 1.84885 1.82446 1.87427 1.92402 1.89923 1.87427
          1.82446 1.84949 1.87427 1.8992 1.87427 1.84949 1.87427 1.8992 1.92402 1.89923 1.92402 1.95121
          1.92402 1.96579 1.95121 1.95121 1.96579 1.99951 1.99951 1.96579 1.99951 1.95348 1.96579 1.92402
          1.95348 1.92402 1.8992 1.99951 1.96579 1.95348 1.87427 1.8992 1.84949 1.84949 1.82462 1.87427
          1.8992 1.87427 1.92263 1.84961 1.87427 1.82462 1.87427 1.84961 1.89957 1.89957 1.92263 1.87427
          1.8992 1.92263 1.95348 1.92263 1.96293 1.95348 1.9995 1.99951 1.95348 1.95348 1.96293 1.9995
          1.94954 1.96293 1.92263 1.92263 1.89957 1.94954 1.9995 1.9995 1.96293 1.96293 1.94954 1.9995
        </DataArray>
      </PointData>
      <CellData Scalars="process rank">
        <DataArray type="Float32" Name="process rank" NumberOfComponents="1" format="ascii">
          0 0 0 0 0 0 0 0 0 0 0 0
          0 0 0 0 0 0 0 0 0 0 0 0
          0 0 0 0 0 0 0 0 0 0 0 0
          0 0 0 0 0 0 0 0 0 0 0 0
          0 0 0 0 0 0 0 0 0 0 0 0
          0 0 0 0 0 0 0 0 0 0 0 0
          0 0 0 0 0 0 0 0 0 0 0 0
          0 0 0 0 0 0 0 0 0 0 0 0
          0 0 0 0 0 0 0 0 0 0 0 0
          0 0 0 0 0 0 0 0 0 0 0 0
          0 0 0 0 0 0 0 0 0 0 0 0
          0 0 0 0 0 0 0 0 0 0 0 0
          0 0 0 0 0 0 0 0 0 0 0 0
          0 0 0 0 0 0 0 0 0 0 0 0
          0 0 0 0 0 0 0 0 0 0 0 0
          0 0 0 0 0 0 0 0 0 0 0 0
          0 0 0 0 0 0 0 0 0 0 0 0
          0 0 0 0 0 0 0 0 0 0 0 0
          0 0 0 0 0 0 0 0 0 0 0 0
          0 0 0 0 0 0 0 0 0 0 0 0
          0 0 0 0 0 0 0 0 0 0 0 0
          0 0 0 0 0 0 0 0 0 0 0 0
          0 0 0 0 0 0 0 0 0 0 0 0
          0 0 0 0 0 0 0 0 0 0 0 0
          0 0 0 0 0 0 0 0 0 0 0 0
          0 0 0 0 0 0 0 0 0 0 0 0
          0 0 0 0 0 0 0 0 0 0 0 0
          0 0 0 0 0 0 0 0 0 0 0 0
          0 0 0 0 0 0 0 0 0 0 0 0
          0 0 0 0 0 0 0 0 0 0 0 0
          0 0 0 0 0 0 0 0 0 0 0 0
          0 0 0 0 0 0 0 0 0 0 0 0
          0 0 0 0 0 0 0 0 0 0 0 0
          0 0 0 0 0 0 0 0 0 0 0 0
          0 0 0 0 0 0 0 0 0 0 0 0
          0 0 0 0 0 0 0 0 0 0 0 0
          0 0 0 0 0 0 0 0 0 0 0 0
          0 0 0 0 0 0 0 0 0 0 0 0
          0 0 0 0 0 0 0 0 0 0 0 0
          0 0 0 0 0 0 0 0 0 0 0 0
          0 0 0 0 0 0 0 0 0 0 0 0
          0 0 0 0 0 0 0 0 0 0 0 0
          0 0 0 0 0 0 0 0 0 0 0 0
          0 0 0 0 0 0 0 0 0 0 0 0
          0 0 0 0 0 0 0 0 0 0 0 0
          0 0 0 0 0 0 0 0 0 0 0 0
          0 0 0 0 0 0 0 0 0 0 0 0
          0 0 0 0 0 0 0 0 0 0 0 0
          0 0 0 0 0 0 0 0 0 0 0 0
          0 0 0 0 0 0 0 0 0 0 0 0
          0 0 0 0 0 0 0 0 0 0 0 0
          0 0 0 0 0 0 0 0 0 0 0 0
          0 0 0 0 0 0 0 0 0 0 0 0
          0 0 0 0 0 0 0 0 0 0 0 0
          0 0 0 0 0 0 0 0 0 0 0 0
          0 0 0 0 0 0 0 0 0 0 0 0
          0 0 0 0 0 0 0 0 0 0 0 0
          0 0 0 0 0 0 0 0 0 0 0 0
          0 0 0 0 0 0 0 0 0 0 0 0
          0 0 0 0 0 0 0 0 0 0 0 0
          0 0 0 0 0 0 0 0 0 0 0 0
          0 0 0 0 0 0 0 0 0 0 0 0
          0 0 0 0 0 0 0 0 0 0 0 0
          0 0 0 0 0 0 0 0 0 0 0 0
          0 0 0 0 0 0 0 0 0 0 0 0
          0 0 0 0 0 0 0 0 0 0 0 0
          0 0 0 0 0 0 0 0 0 0 0 0
          0 0 0 0 0 0 0 0 0 0 0 0
          0 0 0 0 0 0 0 0 0 0 0 0
          0 0 0 0 0 0 0 0 0 0 0 0
          0 0 0 0 0 0 0 0 0 0 0 0
          0 0 0 0 0 0 0 0 0 0 0 0
          0 0 0 0 0 0 0 0 0 0 0 0
          0 0 0 0 0 0 0 0 0 0 0 0
          0 0 0 0 0 0 0 0 0 0 0 0
          0 0 0 0 0 0 0 0 0 0 0 0
          0 0 0 0 0 0 0 0 0 0 0 0
          0 0 0 0 0 0 0 0 0 0 0 0
          0 0 0 0 0 0 0 0
        </DataArray>
      </CellData>
      <Points>
        <DataArray type="Float32" Name="Coordinates" NumberOfComponents="3" format="ascii">
          0.0366025 0.0366025 0 0.05 0 0 0 0 0 0 0 0
          0 0.05 0 0.0366025 0.0366025 0 0.0794937 0.0453515 0 0.1 0 0
          0.05 0 0 0.05 0 0 0.0366025 0.0366025 0 0.0794937 0.0453515 0
          0.0424082 0.0749186 0 0.0366025 0.0366025 0 0 0.05 0 0 0.1 0
          0.0424082 0.0749186 0 0 0.05 0 0.0794937 0.0453515 0 0.0366025 0.0366025 0
          0.0424082 0.0749186 0 0.0794937 0.0453515 0 0.0424082 0.0749186 0 0.0794671 0.093288 0
          0.0794937 0.0453515 0 0.125627 0.0343677 0 0.1 0 0 0.1 0 0
          0.125627 0.0343677 0 0.15 0 0 0.175 0.0433013 0 0.15 0 0
          0.125627 0.0343677 0 0.1257 0.0866651 0 0.125627 0.0343677 0 0.0794937 0.0453515 0
          0.0794937 0.0453515 0 0.0794671 0.093288 0 0.1257 0.0866651 0 0.175 0.0433013 0
          0.125627 0.0343677 0 0.1257 0.0866651 0 0.1257 0.0866651 0 0.175036 0.0935773 0
          0.175 0.0433013 0 0.0494432 0.127829 0 0.0424082 0.0749186 0 0 0.1 0
          0.0494432 0.127829 0 0.0794671 0.093288 0 0.0424082 0.0749186 0 0.10029 0.131676 0
          0.0794671 0.093288 0 0.0494432 0.127829 0 0 0.1 0 0 0.15 0
          0.0494432 0.127829 0 0 0.15 0 0.0418822 0.178035 0 0.0494432 0.127829 0
          0.0494432 0.127829 0 0.0796372 0.165525 0 0.10029 0.131676 0 0.0418822 0.178035 0
          0.0796372 0.165525 0 0.0494432 0.127829 0 0.1257 0.0866651 0 0.0794671 0.093288 0
          0.10029 0.131676 0 0.1257 0.0866651 0 0.10029 0.131676 0 0.15 0.134249 0
          0.15 0.134249 0 0.175036 0.0935773 0 0.1257 0.0866651 0 0.10029 0.131676 0
          0.0796372 0.165525 0 0.121917 0.179959 0 0.15 0.134249 0 0.10029 0.131676 0
          0.121917 0.179959 0 0.121917 0.179959 0 0.175 0.177276 0 0.15 0.134249 0
          0.15 0 0 0.175 0.0433013 0 0.2 0 0 0.225 0.0401417 0
          0.2 0 0 0.175 0.0433013 0 0.2 0 0 0.225 0.0401417 0
          0.25 0 0 0.275 0.0418902 0 0.25 0 0 0.225 0.0401417 0
          0.175 0.0433013 0 0.175036 0.0935773 0 0.225 0.0906733 0 0.225 0.0906733 0
          0.225 0.0401417 0 0.175 0.0433013 0 0.275 0.0418902 0 0.225 0.0401417 0
          0.225 0.0906733 0 0.25 0 0 0.275 0.0418902 0 0.3 0 0
          0.35 0 0 0.3 0 0 0.325 0.0433013 0 0.325 0.0433013 0
          0.3 0 0 0.275 0.0418902 0 0.225 0.0906733 0 0.275 0.0906733 0