<?xml version="1.0"?>
<VTKFile type="UnstructuredGrid" version="0.1" byte_order="LittleEndian">
  <UnstructuredGrid>
    <Piece NumberOfCells="1670" NumberOfPoints="911">
      <PointData Scalars="S_aq">
        <DataArray type="Float32" Name="S_aq" NumberOfComponents="1" format="ascii">
          0.980233 0.986917 0.992338 0.0633553 0.0696163 0.0706468 0.0620339 0.0707672 0.273719 0.141117 1 1
          1 0.0654829 0.859214 0.769468 0.917355 1 0.998059 0.994853 0.925629 0.921252 0.965331 0.996963
          0.997717 0.999316 0.958197 0.910619 0.985936 0.994252 0.98745 0.883901 0.862448 0.999187 0.999938 0.321871
          0.961231 1 0.999742 1 0.998717 0.997199 0.995797 0.862711 0.934058 0.923586 0.999929 0.992925
          0.9632 1 1 0.135632 0.67107 0.999419 0.971236 0.664282 0.782482 0.679653 1 1
          1 0.999999 1 0.999916 0.0627591 0.0628781 0.0774317 0.767664 1 0.0729099 1 0.817914
          0.965261 0.981109 0.992775 0.972052 0.945518 0.994755 1 1 1 0.0617485 0.0616663 0.0701761
          0.979769 0.999896 0.997863 0.0891352 0.203699 0.328988 0.696778 0.827675 0.728786 1 1 1
          0.0629807 0.0635766 0.0874758 1 1 0.99897 0.987139 1 0.999827 0.069662 0.727647 0.0777196
          0.103388 1 0.999377 0.101098 0.991326 0.996012 0.998395 1 0.081215 0.378401 0.503362 0.934796
          0.614952 1 0.999995 0.0613618 0.999615 0.200113 0.999615 1 0.0679927 0.730146 0.0817249 0.845077
          1 0.0867566 0.997529 0.735998 0.676816 0.872866 1 0.999534 0.067087 0.605749 0.162732 0.625817
          1 1 1 1 1 1 1 1 1 1 1 0.956181
          0.994513 1 0.0737562 0.0890714 0.220346 1 1 1 0.999998 1 1 1
          1 0.999942 1 1 1 1 0.747178 0.140375 0.194985 0.830589 1 1
          0.76988 0.871617 0.922257 0.762163 1 1 1 1 1 1 0.999886 1
          1 1 1 1 1 1 0.479224 0.574739 0.867383 1 1 1
          1 1 1 0.678235 1 1 1 1 1 1 1 1
          1 1 1 0.0713526 0.239042 1 1 0.916172 0.99785 0.963207 0.990362 0.999999
          1 1 1 1 0.802641 1 0.907596 1 1 1 0.971284 1
          1 0.958155 0.96938 0.9995 0.996643 1 1 1 1 1 1 1
          1 1 1 1 1 1 0.999164 1 1 1 0.555172 0.998504
          1 1 1 1 1 1 1 0.8543 1 1 0.99961 1
          0.830337 0.999998 1 1 1 1 1 1 0.983294 1 1 0.359753
          0.841077 0.991652 1 1 1 1 1 0.970316 1 1 1 1
          1 0.273442 1 1 1 1 1 1 1 0.842568 0.999694 0.91932
          1 0.999952 1 1 0.978476 1 1 1 1 1 1 1
          1 1 1 0.378006 1 1 1 1 1 0.637147 1 1
          0.106647 1 1 1 1 1 1 1 1 1 1 1
          0.849403 1 1 1 1 1 0.807848 1 1 1 1 1
          1 1 1 0.997971 0.998831 1 0.999958 1 1 1 1 1
          1 1 1 1 1 0.609995 0.887054 0.517825 1 1 1 1
          1 1 1 1 1 1 1 1 1 1 1 1
          1 0.999998 1 1 1 1 1 1 1 0.999832 1 1
          1 0.946803 0.916224 0.986761 0.764853 0.875889 1 0.99444 1 0.964341 1 1
          1 1 0.999669 1 1 1 1 1 1 0.999527 1 1
          0.778544 0.357926 0.998834 1 0.846337 0.999963 0.995288 1 1 0.99837 0.969603 0.130039
          0.74018 0.0996683 0.834076 0.773884 1 1 1 1 0.99187 1 1 1
          0.958943 0.887327 1 1 1 1 1 1 1 1 1 1
          1 0.248345 1 0.990382 1 1 1 0.916034 0.960019 1 1 1
          1 1 1 1 1 1 1 0.994897 1 1 1 0.83502
          1 1 1 0.872511 1 1 0.0835801 0.0746626 1 1 1 1
          1 1 0.981739 1 1 1 1 1 1 1 1 1
          1 1 1 1 1 1 1 0.0709347 0.193948 0.969316 0.641353 0.993875
          1 1 1 1 1 1 0.354895 1 1 1 1 1
          1 0.653749 1 1 1 1 1 1 1 0.148424 0.154884 0.306846
          0.733297 0.869564 0.952474 0.995795 1 1 0.58688 1 1 0.813009 1 0.776316
          1 0.846353 1 1 1 1 1 1 1 1 1 1
          1 1 1 1 1 1 1 0.885703 0.882299 0.936724 1 1
          1 1 1 1 0.928182 0.583792 0.967462 0.975364 1 1 1 1
          0.858241 0.966344 1 1 1 1 1 1 1 1 1 1
          1 1 0.996249 1 1 1 1 1 1 1 1 1
          1 1 1 1 1 1 1 1 1 0.989511 1 0.998899
          1 1 1 0.355555 0.324338 0.978096 1 1 1 1 1 1
          1 1 1 1 1 1 1 1 1 1 1 1
          1 1 1 1 1 1 1 1 1 1 1 1
          1 1 1 1 0.492398 1 1 1 1 0.998585 1 1
          1 1 1 1 1 1 1 1 0.895318 1 1 0.996223
          0.998453 0.926304 1 1 1 0.939448 1 1 1 1 0.986104 1
          1 1 0.214031 0.194707 0.943087 1 1 1 1 1 1 0.998999
          1 1 1 1 1 0.947594 0.95233 1 1 1 1 1
          1 0.940877 0.613191 1 1 1 1 1 1 1 1 1
          1 1 1 0.990686 1 1 1 1 1 1 1 0.99415
          1 1 1 1 0.875993 1 1 1 1 1 1 1
          1 0.179662 0.802303 0.349422 1 1 1 0.753338 0.694262 1 1 1
          1 0.910292 0.891466 0.477751 1 1 0.882834 0.133302 1 1 1 1
          0.999905 1 1 1 0.288561 0.0707724 1 1 1 0.107657 0.84002 1
          1 1 1 1 1 1 1 1 1 1 1 1
          1 1 1 1 1 1 0.99155 1 1 1 1 1
          1 1 1 1 1 1 1 1 1 1 0.0785894 0.0754057
          0.672989 1 1 1 0.207073 1 1 1 1 1 1 1
          1 1 1 1 1 1 0.982568 1 0.999998 1 1 1
          0.0734347 0.071647 0.382666 1 1 1 0.0913332 0.0846963 0.708515 1 1 1
          1 1 1 0.40498 1 1 1 1 1 1 0.987318 1
          1 0.991362 1 1 1 0.0801245 1 1 1 0.981378 1 0.200632
          1 0.533105 1 1 1 1 1 0.271795 1 1 1
        </DataArray>
        <DataArray type="Float32" Name="p_aq" NumberOfComponents="1" format="ascii">
          96538.3 97103.8 95925.1 101273 99911.2 99945.9 101224 100589 99538.4 99561.2 90794 90780.1
          91757.6 100662 90753.1 91734 91732.8 91772 90753.1 96307.5 96359.5 97054.4 96009.5 95076.7
          95693.7 94621.1 97570.6 98048.8 94180.1 93721.1 93251 95722.7 96890.6 95617.4 92864.8 98445.1
          97025.7 92241.9 93253.9 92710.5 97012.5 96662.9 97866.7 94299.3 94615.9 93422.5 93628.7 97672.1
          93624.9 94277.8 93498.7 99078.8 98515 92243.2 92782.7 95655.6 95326.6 94675.3 90756.8 90755.1
          91831.4 95638.3 94675.1 95259.9 101004 100925 99570.9 94262.1 94247.4 99980.4 91462.5 96263.4
          94928.1 95079.1 97141.3 94142.3 95556.9 95034.2 90770.4 90764 91723.2 101177 101121 99858.4
          98543.3 97570.3 97964.5 98667.1 98000.1 97617.4 93695.1 93314.3 92714.7 93710.9 92744 93313.6
          100836 100746 99592.4 90754 90753.4 91729 95584.1 91574.6 96310.9 99985.9 96342.5 99254.2
          98637.5 92353.4 96172.3 98885.8 94693.8 94281.3 94258.8 92440.7 98975.5 97880.7 98864.9 92425.5
          96636.1 90759.6 96602.4 101050 94944.1 98779.8 92547.6 91555.5 100142 98756.2 98887 92517.5
          92539.7 99786.5 91537.7 97034.8 97980.4 94991.1 91412.6 97092 100244 97126.1 98443.7 97797.7
          96766.4 95889.9 96389.9 96466.5 93167.3 93215.8 93961.9 93922.1 95861.6 95462.8 96386.7 98938.4
          98475.3 97818.1 100487 100482 99706.1 95660.3 94364.6 96367.9 97953.9 97561.6 97452 96855.9
          95877.5 98210 95001.2 91477.8 92182.2 92426.8 99301.7 100378 100275 99163.6 93399.4 94492.9
          97727.2 95722.7 96526.6 96576.4 94817.3 95274.4 94937.8 95224.8 96261.5 96036.6 96670.4 93067
          92429 95502.9 94922.8 96057.4 95891 95280.5 99616.2 99191.6 98441.8 95126.4 93912 95095
          96076 95380.8 93455.8 99438.1 96113.1 92961.5 93289.2 93633.9 95589 95379.1 93872.4 91020.2
          90943.1 92015.9 96637.9 100535 99627 94071.8 93293.4 98970.6 98330 96998.8 96015.2 96459.2
          94671 94264.9 95694.4 96544.5 95055 94443.5 94158.2 95981.8 96748.1 94997.5 95015.7 95290.7
          95071.9 98624.5 98247.6 97331.1 98011.9 97248.7 92607.3 95566 91273 92949.5 92960.7 94688.6
          94819.8 92352.2 95711.8 94735.2 92152 93133 94028 97057 98038 96405.8 99539.5 95131
          91595.1 95883.4 95785.7 93989.4 94646.1 93515.9 93722.7 98020.6 97244 93055.3 97233.3 94336.8
          98910.9 98233.3 95683.7 96279.7 95416.9 90886.3 90845.5 91783.4 97897.2 94409.3 96458.1 99911.2
          99026.6 97372.9 95106.1 95405.5 95013.1 95314.4 95507.9 98780.2 91776.6 94751.9 93723.5 93784
          93111.4 100129 97344.7 91808.6 91751.5 92471.2 94598.6 93579.8 94114 97568.2 98056.5 98889.9
          95235.5 96770.8 97921.4 94327.7 93516 96876.6 94882.4 91171 99019 92755.7 96947.7 97070.7
          94355.5 92495.9 95120.8 99767.4 94520.3 92385.7 95425.7 95245.2 94234.2 98590.4 94601.5 94144.4
          100444 95239.7 90815.9 91538 91124.9 94440.9 97846.3 95222.7 92658.7 92132.1 95383.6 95993
          93655.2 96892.8 91775.5 91289.6 97133.4 96332.3 94274.1 95319.1 95619.1 95449.8 95010.5 95327.9
          95484 95423.2 95285 98514.7 98341.5 97425.8 97927.2 95503.9 94997.8 96076.9 97079.5 94642.9
          95373.8 94975.4 94325.4 94476.2 94897.4 99255.5 98286.5 99681.6 94007.5 93166.1 93751.6 91617.5
          90817.9 94165.6 93294.6 90893 91743.7 91647.6 92705.3 94988.1 94873.4 92286.6 91785.7 94670.4
          95075.3 97879.6 95727.5 96512.9 96039.2 93862.2 95196.8 95616 95881.5 96001.1 95467.5 95504.2
          94794.4 97037.4 96605 95958.2 97729.3 95934.2 95427.6 98805.4 92235.4 95065.5 96902.5 96126.6
          95723.4 95906.2 98168.9 95422.8 95243 94786.3 96436.8 94696.4 95508.4 96587.4 95757.9 97505.5
          99208.5 99661.6 98471.5 95095 98033.3 95373.5 94909.6 96208.9 96531.5 97287.2 97259.9 100369
          99366.5 100432 98884.5 96569 95788.2 95962.9 94715.1 94114 96538.8 97762.3 96997.9 97580.9
          98895.4 99131.6 93401.2 93534.4 95019.8 94541.7 92388.4 92759.1 94360.6 92830.4 92512.3 91961.8
          96517.7 99861.2 94370.2 98035.6 94149.2 93065.9 96984.6 94689.4 93475.9 96404.9 94116.3 94622.4
          95731.3 94096.5 93375.9 93272.2 98038 97057 93133 93999.8 92152 96076 94046.5 97596.8
          91577.5 94204.9 96800.1 93715.7 94851.9 93352.6 100463 100490 95087.9 92293.3 93444.2 97051.4
          97607.6 97135.4 98347.3 97402.5 91994.6 90850 96457.7 96569.4 93215.9 94248.7 99019 91171
          94313 96799.3 96456.3 93570.9 91489.8 94075.3 92333 100529 99728.3 98640.4 99509.1 98217.5
          96169.7 92674.2 92151.2 93742.8 91283.8 91136.8 99954.6 93500.1 94175 96568.8 91767.5 92687.2
          96995.5 98619.9 91029.1 90950.8 93757.9 97146 97733.9 95414.5 92469 99909.9 100256 100153
          99234.9 99029 98826.2 98256.3 92957.5 92756.3 99544 91421.3 96364.8 94178.3 95604.7 95088.6
          93024.4 95343.3 94241.6 95064.8 94625.2 94491.4 97864.9 97851.2 97064 97142.3 95270.4 95681
          94766.9 92269.1 92720.5 93371.2 90763.5 90800 91520.1 94916.3 96406.1 94125.9 93246.5 93577.3
          93655.6 94258.9 95282.6 92939.8 95700.3 99658.5 98860.5 98568.1 91918.3 90930 91037.1 92026.1
          97525.5 96251.1 93346.7 95074.8 94381.5 94327.8 95989.3 95500.2 95786.4 95448.4 94602.6 94867.4
          94269.5 97929.9 98641.4 95376.1 95948 95052.6 95193.8 95823.3 91678.5 92069.9 92678.1 95951.2
          97066.2 95095 94114 94988.6 97477.4 97716.8 98445.1 91778.2 94199.6 98003.4 97664.4 97261.8
          95152.6 95273.7 97038.2 100171 100258 99097.1 94443.2 90723.4 90738.8 91602.6 97082.7 97862.5
          92222.6 92851.3 93935 94760.1 94394.9 96272.2 96653.4 95011 94589.3 95630.3 96724.3 96419.5
          95064.5 94311 91700.7 96129.3 95610.9 92671.1 93635.5 95248 95414.4 92518.6 92844.8 93693
          93083.2 93811.5 98571 95434.3 99891.6 98145 98154.9 96361.3 96179.8 98785.3 94733 95598.8
          98038 97057 96375.8 93133 92152 93967 91684.5 95466.9 99558.9 94887 95045.3 96828.7
          96075.1 97369.4 97228.1 93068.6 93901 97884.8 93745.6 96485.1 92255.1 92901.9 94868.5 95554.8
          94906.6 95759.1 100309 100372 99374.1 93150.1 96677.3 94710.8 91393.6 92141.7 93604.2 95530.6
          95227.1 95648.5 95268 95037.8 92394.6 99421.6 99405.5 95709.5 97413.7 97329.4 98019.8 91186.1
          93817.1 99294.9 99355.4 98694.9 96150.6 97510.5 96076 93468.1 93105.8 92324.7 95793.5 94147.6
          93186.7 96799.7 96885.7 93490.8 96298.8 99019 91171 98392.8 94235.5 94124 96629.1 98593.1
          96038.7 91490.7 96590.5 94596 98642.9 95063.1 95716.4 96945.6 92600.6 96542.6 96171.4 90852.8
          95676.2 100421 99644.9 100031 96418.4 93333.8 95363.4 98364.4 98933.5 95674.9 96514.6 95180.4
          96842.4 93534.9 99319.5 99920.5 94039.5 96298.4 94150 100427 95268 92548 93119.8 93661.3
          98664.2 98080.6 97548 91691.4 99533.2 100575 90714.3 90772.1 91749.6 100463 99447.4 92905.1
          98304.6 94115.9 94630.5 97101.2 96576.7 96246.7 95531.8 96615.1 94958.1 95677.3 94587.1 95606.2
          95596.3 94939.1 96267.5 96996.4 96636.1 97844.1 98993.3 97952.3 98515.8 92213.7 93254.3 92688.3
          97639 97599.8 93603.6 94264 93479.1 96933.7 97720.8 90721 90714.8 91797 100520 100535
          99419.8 95948.3 95249.4 91416.2 99807.6 94240.8 96952.6 95640.3 95565.9 96909.2 96195.3 94297.1
          95011 93735.4 94183.1 97021.5 97472.5 92192.4 99022.2 93235.5 97954.4 90711.1 90710.6 91667
          100549 100561 99537.5 90754.6 90740.8 91702.6 100468 100489 99507.9 93305.1 97889.4 95603.2
          94877.3 91543 96302.5 99677 94085.2 93319.3 98502 94850 96155.8 92342.6 98866.7 92377.6
          92706.8 98839 92426.7 98771.3 90729.6 100499 96275.8 94924.2 92471.2 98745.5 91494.1 99739.5
          91541.2 99669 92533.1 98660.6 94620.8 94095 91385.9 99834.7 97085.1 94008.7 93604.5
        </DataArray>
        <DataArray type="Float32" Name="rho_aq" NumberOfComponents="1" format="ascii">
          1000 1000 1000 1000 1000 1000 1000 1000 1000 1000 1000 1000
          1000 1000 1000 1000 1000 1000 1000 1000 1000 1000 1000 1000
          1000 1000 1000 1000 1000 1000 1000 1000 1000 1000 1000 1000
          1000 1000 1000 1000 1000 1000 1000 1000 1000 1000 1000 1000
          1000 1000 1000 1000 1000 1000 1000 1000 1000 1000 1000 1000
          1000 1000 1000 1000 1000 1000 1000 1000 1000 1000 1000 1000
          1000 1000 1000 1000 1000 1000 1000 1000 1000 1000 1000 1000
          1000 1000 1000 1000 1000 1000 1000 1000 1000 1000 1000 1000
          1000 1000 1000 1000 1000 1000 1000 1000 1000 1000 1000 1000
          1000 1000 1000 1000 1000 1000 1000 1000 1000 1000 1000 1000
          1000 1000 1000 1000 1000 1000 1000 1000 1000 1000 1000 1000
          1000 1000 1000 1000 1000 1000 1000 1000 1000 1000 1000 1000
          1000 1000 1000 1000 1000 1000 1000 1000 1000 1000 1000 1000
          1000 1000 1000 1000 1000 1000 1000 1000 1000 1000 1000 1000
          1000 1000 1000 1000 1000 1000 1000 1000 1000 1000 1000 1000
          1000 1000 1000 1000 1000 1000 1000 1000 1000 1000 1000 1000
          1000 1000 1000 1000 1000 1000 1000 1000 1000 1000 1000 1000
          1000 1000 1000 1000 1000 1000 1000 1000 1000 1000 1000 1000
          1000 1000 1000 1000 1000 1000 1000 1000 1000 1000 1000 1000
          1000 1000 1000 1000 1000 1000 1000 1000 1000 1000 1000 1000
          1000 1000 1000 1000 1000 1000 1000 1000 1000 1000 1000 1000
          1000 1000 1000 1000 1000 1000 1000 1000 1000 1000 1000 1000
          1000 1000 1000 1000 1000 1000 1000 1000 1000 1000 1000 1000
          1000 1000 1000 1000 1000 1000 1000 1000 1000 1000 1000 1000
          1000 1000 1000 1000 1000 1000 1000 1000 1000 1000 1000 1000
          1000 1000 1000 1000 1000 1000 1000 1000 1000 1000 1000 1000
          1000 1000 1000 1000 1000 1000 1000 1000 1000 1000 1000 1000
          1000 1000 1000 1000 1000 1000 1000 1000 1000 1000 1000 1000
          1000 1000 1000 1000 1000 1000 1000 1000 1000 1000 1000 1000
          1000 1000 1000 1000 1000 1000 1000 1000 1000 1000 1000 1000
          1000 1000 1000 1000 1000 1000 1000 1000 1000 1000 1000 1000
          1000 1000 1000 1000 1000 1000 1000 1000 1000 1000 1000 1000
          1000 1000 1000 1000 1000 1000 1000 1000 1000 1000 1000 1000
          1000 1000 1000 1000 1000 1000 1000 1000 1000 1000 1000 1000
          1000 1000 1000 1000 1000 1000 1000 1000 1000 1000 1000 1000
          1000 1000 1000 1000 1000 1000 1000 1000 1000 1000 1000 1000
          1000 1000 1000 1000 1000 1000 1000 1000 1000 1000 1000 1000
          1000 1000 1000 1000 1000 1000 1000 1000 1000 1000 1000 1000
          1000 1000 1000 1000 1000 1000 1000 1000 1000 1000 1000 1000
          1000 1000 1000 1000 1000 1000 1000 1000 1000 1000 1000 1000
          1000 1000 1000 1000 1000 1000 1000 1000 1000 1000 1000 1000
          1000 1000 1000 1000 1000 1000 1000 1000 1000 1000 1000 1000
          1000 1000 1000 1000 1000 1000 1000 1000 1000 1000 1000 1000
          1000 1000 1000 1000 1000 1000 1000 1000 1000 1000 1000 1000
          1000 1000 1000 1000 1000 1000 1000 1000 1000 1000 1000 1000
          1000 1000 1000 1000 1000 1000 1000 1000 1000 1000 1000 1000
          1000 1000 1000 1000 1000 1000 1000 1000 1000 1000 1000 1000
          1000 1000 1000 1000 1000 1000 1000 1000 1000 1000 1000 1000
          1000 1000 1000 1000 1000 1000 1000 1000 1000 1000 1000 1000
          1000 1000 1000 1000 1000 1000 1000 1000 1000 1000 1000 1000
          1000 1000 1000 1000 1000 1000 1000 1000 1000 1000 1000 1000
          1000 1000 1000 1000 1000 1000 1000 1000 1000 1000 1000 1000
          1000 1000 1000 1000 1000 1000 1000 1000 1000 1000 1000 1000
          1000 1000 1000 1000 1000 1000 1000 1000 1000 1000 1000 1000
          1000 1000 1000 1000 1000 1000 1000 1000 1000 1000 1000 1000
          1000 1000 1000 1000 1000 1000 1000 1000 1000 1000 1000 1000
          1000 1000 1000 1000 1000 1000 1000 1000 1000 1000 1000 1000
          1000 1000 1000 1000 1000 1000 1000 1000 1000 1000 1000 1000
          1000 1000 1000 1000 1000 1000 1000 1000 1000 1000 1000 1000
          1000 1000 1000 1000 1000 1000 1000 1000 1000 1000 1000 1000
          1000 1000 1000 1000 1000 1000 1000 1000 1000 1000 1000 1000
          1000 1000 1000 1000 1000 1000 1000 1000 1000 1000 1000 1000
          1000 1000 1000 1000 1000 1000 1000 1000 1000 1000 1000 1000
          1000 1000 1000 1000 1000 1000 1000 1000 1000 1000 1000 1000
          1000 1000 1000 1000 1000 1000 1000 1000 1000 1000 1000 1000
          1000 1000 1000 1000 1000 1000 1000 1000 1000 1000 1000 1000
          1000 1000 1000 1000 1000 1000 1000 1000 1000 1000 1000 1000
          1000 1000 1000 1000 1000 1000 1000 1000 1000 1000 1000 1000
          1000 1000 1000 1000 1000 1000 1000 1000 1000 1000 1000 1000
          1000 1000 1000 1000 1000 1000 1000 1000 1000 1000 1000 1000
          1000 1000 1000 1000 1000 1000 1000 1000 1000 1000 1000 1000
          1000 1000 1000 1000 1000 1000 1000 1000 1000 1000 1000 1000
          1000 1000 1000 1000 1000 1000 1000 1000 1000 1000 1000 1000
          1000 1000 1000 1000 1000 1000 1000 1000 1000 1000 1000 1000
          1000 1000 1000 1000 1000 1000 1000 1000 1000 1000 1000 1000
          1000 1000 1000 1000 1000 1000 1000 1000 1000 1000 1000
        </DataArray>
        <DataArray type="Float32" Name="mob_aq" NumberOfComponents="1" format="ascii">
          966.017 984.438 994.475 0.00144987 0.00466919 0.00545629 0.00105608 0.00555365 7.9124 0.502747 1000 1000
          1000 0.00227306 499.74 329.131 658.883 1000 999.633 997.468 696.814 676.062 906.012 999.107
          999.493 999.954 870.691 632.705 982.133 996.853 985.632 558.896 507.133 999.935 1000 14.4701
          886.096 1000 999.993 1000 999.839 999.239 998.302 507.738 740.058 686.951 1000 995.272
          895.801 1000 1000 0.415903 200.145 999.967 932.423 192.979 350.249 209.494 1000 1000
          1000 1000 1000 999.999 0.00126182 0.00129796 0.0129543 326.29 1000 0.00748754 1000 413.56
          905.681 968.777 995.075 935.828 802.52 997.372 1000 1000 1000 0.000981737 0.000960982 0.00508652
          964.513 999.999 999.555 0.0382122 2.49143 15.6796 229.145 432.633 269.669 1000 1000 1000
          0.00132965 0.00152418 0.0334891 1000 1000 999.896 984.94 1000 999.997 0.00470238 268.136 0.0133725
          0.0984204 1000 999.962 0.0861134 992.964 998.469 999.749 1000 0.0191956 26.065 72.0718 743.993
          146.519 1000 1000 0.000886709 999.985 2.31732 999.985 1000 0.00358994 271.507 0.0201662 468.573
          1000 0.0315702 999.407 279.529 206.368 531.664 1000 999.979 0.00306795 138.871 0.963752 155.943
          1000 1000 1000 1000 1000 1000 1000 1000 1000 1000 1000 860.195
          997.128 1000 0.00836146 0.0380228 3.41681 1000 1000 1000 1000 1000 1000 1000
          1000 1000 1000 1000 1000 1000 295.378 0.490344 2.08297 438.475 1000 1000
          329.784 528.664 680.698 317.743 1000 1000 1000 1000 1000 1000 999.999 1000
          1000 1000 1000 1000 1000 1000 60.5579 115.248 518.615 1000 1000 1000
          1000 1000 1000 207.928 1000 1000 1000 1000 1000 1000 1000 1000
          1000 1000 1000 0.00604383 4.70703 1000 1000 653.944 999.55 895.835 991.366 1000
          1000 1000 1000 1000 385.174 1000 622.643 1000 1000 1000 932.627 1000
          1000 870.475 924.445 999.975 998.911 1000 1000 1000 1000 1000 1000 1000
          1000 1000 1000 1000 1000 1000 999.931 1000 1000 1000 101.941 999.781
          1000 1000 1000 1000 1000 1000 1000 488.695 1000 1000 999.985 1000
          437.966 1000 1000 1000 1000 1000 1000 1000 975.223 1000 1000 21.7155
          460.083 993.469 1000 1000 1000 1000 1000 928.511 1000 1000 1000 1000
          1000 7.88218 1000 1000 1000 1000 1000 1000 1000 463.231 999.991 667.38
          1000 1000 1000 1000 960.187 1000 1000 1000 1000 1000 1000 1000
          1000 1000 1000 25.9672 1000 1000 1000 1000 1000 166.243 1000 1000
          0.117902 1000 1000 1000 1000 1000 1000 1000 1000 1000 1000 1000
          477.914 1000 1000 1000 1000 1000 394.658 1000 1000 1000 1000 1000
          1000 1000 1000 999.599 999.866 1000 1000 1000 1000 1000 1000 1000
          1000 1000 1000 1000 1000 142.361 566.927 79.6727 1000 1000 1000 1000
          1000 1000 1000 1000 1000 1000 1000 1000 1000 1000 1000 1000
          1000 1000 1000 1000 1000 1000 1000 1000 1000 999.997 1000 1000
          1000 809.587 654.157 984.081 321.898 538.991 1000 997.052 1000 901.308 1000 1000
          1000 1000 999.989 1000 1000 1000 1000 1000 1000 999.978 1000 1000
          343.744 21.3185 999.867 1000 471.277 1000 997.872 1000 1000 999.74 925.419 0.338398
          285.376 0.0789787 445.557 336.176 1000 1000 1000 1000 993.797 1000 1000 1000
          874.523 567.63 1000 1000 1000 1000 1000 1000 1000 1000 1000 1000
          1000 5.45769 1000 991.402 1000 1000 1000 653.377 880.001 1000 1000 1000
          1000 1000 1000 1000 1000 1000 1000 997.51 1000 1000 1000 447.491
          1000 1000 1000 530.81 1000 1000 0.0239751 0.00937061 1000 1000 1000 1000
          1000 1000 970.702 1000 1000 1000 1000 1000 1000 1000 1000 1000
          1000 1000 1000 1000 1000 1000 1000 0.00569106 2.0376 924.164 170.193 996.435
          1000 1000 1000 1000 1000 1000 20.6711 1000 1000 1000 1000 1000
          1000 182.244 1000 1000 1000 1000 1000 1000 1000 0.636386 0.772875 12.1302
          275.803 523.768 840.476 998.3 1000 1000 124.114 1000 1000 404.255 1000 340.109
          1000 471.312 1000 1000 1000 1000 1000 1000 1000 1000 1000 1000
          1000 1000 1000 1000 1000 1000 1000 563.472 554.859 754.363 1000 1000
          1000 1000 1000 1000 709.516 121.814 915.88 948.953 1000 1000 1000 1000
          497.533 910.745 1000 1000 1000 1000 1000 1000 1000 1000 1000 1000
          1000 1000 998.644 1000 1000 1000 1000 1000 1000 1000 1000 1000
          1000 1000 1000 1000 1000 1000 1000 1000 1000 989.829 1000 999.881
          1000 1000 1000 20.8109 14.8818 958.875 1000 1000 1000 1000 1000 1000
          1000 1000 1000 1000 1000 1000 1000 1000 1000 1000 1000 1000
          1000 1000 1000 1000 1000 1000 1000 1000 1000 1000 1000 1000
          1000 1000 1000 1000 66.6655 1000 1000 1000 1000 999.804 1000 1000
          1000 1000 1000 1000 1000 1000 1000 1000 588.536 1000 1000 998.625
          999.766 700.13 1000 1000 1000 769.172 1000 1000 1000 1000 982.539 1000
          1000 1000 3.04239 2.07074 789.143 1000 1000 1000 1000 1000 1000 999.902
          1000 1000 1000 1000 1000 813.927 839.7 1000 1000 1000 1000 1000
          1000 776.999 145.032 1000 1000 1000 1000 1000 1000 1000 1000 1000
          1000 1000 1000 991.92 1000 1000 1000 1000 1000 1000 1000 996.743
          1000 1000 1000 1000 539.246 1000 1000 1000 1000 1000 1000 1000
          1000 1.47905 384.565 19.5366 1000 1000 1000 304.413 226.172 1000 1000 1000
          1000 631.564 578.361 59.9006 1000 1000 556.205 0.38231 1000 1000 1000 1000
          999.999 1000 1000 1000 9.65041 0.00555789 1000 1000 1000 0.124429 457.865 1000
          1000 1000 1000 1000 1000 1000 1000 1000 1000 1000 1000 1000
          1000 1000 1000 1000 1000 1000 993.314 1000 1000 1000 1000 1000
          1000 1000 1000 1000 1000 1000 1000 1000 1000 1000 0.014691 0.0102566
          202.207 1000 1000 1000 2.6632 1000 1000 1000 1000 1000 1000 1000
          1000 1000 1000 1000 1000 1000 973.154 1000 1000 1000 1000 1000
          0.00802178 0.00630095 27.1386 1000 1000 1000 0.0451311 0.0264849 243.41 1000 1000 1000
          1000 1000 1000 33.2606 1000 1000 1000 1000 1000 1000 985.341 1000
          1000 993.021 1000 1000 1000 0.0172264 1000 1000 1000 969.603 1000 2.34199
          1000 88.3084 1000 1000 1000 1000 1000 7.70406 1000 1000 1000
        </DataArray>
        <DataArray type="Float32" Name="S_napl" NumberOfComponents="1" format="ascii">
          0.0197667 0.0130832 0.00766204 0.936645 0.930384 0.929353 0.937966 0.929233 0.726281 0.858883 0 0
          0 0.934517 0.140786 0.230532 0.0826451 0 0.00194108 0.00514709 0.0743707 0.0787478 0.0346686 0.0030369
          0.00228314 0.000684094 0.041803 0.0893812 0.0140638 0.00574838 0.01255 0.116099 0.137552 0.000812819 6.16399e-05 0.678129
          0.0387685 0 0.000257528 0 0.0012827 0.00280144 0.00420262 0.137289 0.0659417 0.0764142 7.13898e-05 0.00707494
          0.0367997 4.23843e-13 4.54039e-08 0.864368 0.32893 0.000580972 0.028764 0.335718 0.217518 0.320347 0 0
          0 8.91518e-07 6.42059e-37 8.43473e-05 0.937241 0.937122 0.922568 0.232336 7.91727e-25 0.92709 0 0.182086
          0.0347387 0.0188908 0.00722451 0.027948 0.0544821 0.00524474 0 0 0 0.938251 0.938334 0.929824
          0.020231 0.000103717 0.00213696 0.910865 0.796301 0.671012 0.303222 0.172325 0.271214 -0 0 0
          0.937019 0.936423 0.912524 0 0 0.00103013 0.0128614 0 0.000172584 0.930338 0.272353 0.92228
          0.896612 0 0.000622783 0.898902 0.00867437 0.00398817 0.00160463 0 0.918785 0.621599 0.496638 0.0652041
          0.385048 0 4.81296e-06 0.938638 0.000385155 0.799887 0.000385377 0 0.932007 0.269854 0.918275 0.154923
          0 0.913243 0.00247057 0.264002 0.323184 0.127134 0 0.000466298 0.932913 0.394251 0.837268 0.374183
          -0 -0 -0 -0 0 0 0 0 0 -3.47364e-36 0 0.0438195
          0.00548686 9.82391e-11 0.926244 0.910929 0.779654 0 0 0 2.19876e-06 -0 -0 -0
          -7.97969e-35 5.7885e-05 0 0 0 0 0.252822 0.859625 0.805015 0.169411 0 0
          0.23012 0.128383 0.0777432 0.237837 0 0 0 0 -0 -0 0.00011355 0
          0 0 0 -0 -0 0 0.520776 0.425261 0.132617 0 0 0
          0 0 0 0.321765 0 0 0 0 0 0 0 0
          0 0 -0 0.928647 0.760958 0 0 0.0838279 0.00214992 0.0367929 0.00963809 1.02825e-06
          0 0 4.55046e-11 -0 0.197359 0 0.092404 -0 -0 0 0.0287156 0
          0 0.0418448 0.0306203 0.000500309 0.00335656 -0 0 0 0 0 0 0
          0 0 0 0 0 0 0.000836065 0 0 0 0.444828 0.00149592
          0 -0 0 0 0 0 0 0.1457 0 0 0.000389963 0
          0.169663 2.14019e-06 0 1.38098e-10 9.88829e-12 0 0 0 0.016706 0 -4.02606e-34 0.640247
          0.158923 0.00834839 0 0 0 0 0 0.0296836 0 -3.22761e-33 0 0
          0 0.726558 7.34685e-38 0 0 0 0 0 0 0.157432 0.000305851 0.0806796
          0 4.76717e-05 -0 0 0.0215236 0 0 0 0 0 1.43797e-16 4.22341e-09
          0 0 1.36488e-22 0.621994 0 0 0 0 0 0.362853 0 5.98696e-37
          0.893353 0 0 0 0 0 1.15366e-19 7.37888e-20 0 0 0 5.58533e-21
          0.150597 0 0 0 2.70812e-32 0 0.192152 0 0 0 0 0
          0 0 0 0.00202909 0.00116894 8.37626e-08 4.18676e-05 -0 0 7.3236e-11 4.97599e-09 0
          0 0 0 0 0 0.390005 0.112946 0.482175 0 0 0 0
          0 0 0 0 0 0 0 0 0 0 0 0
          0 2.19092e-06 0 0 0 0 0 0 0 0.000167843 0 0
          0 0.0531966 0.0837761 0.0132395 0.235147 0.124111 0 0.00556011 0 0.0356588 1.85356e-16 0
          0 0 0.000330845 0 0 3.1066e-07 1.18412e-19 0 0 0.000473277 -0 9.29487e-12
          0.221456 0.642074 0.00116593 0 0.153663 3.70263e-05 0.00471243 0 0 0.00163035 0.0303974 0.869961
          0.25982 0.900332 0.165924 0.226116 0 0 0 0 0.00813047 1.06297e-12 9.20528e-14 3.36344e-21
          0.0410571 0.112673 0 0 0 0 0 0 0 0 0 0
          -7.76672e-34 0.751655 0 0.00961769 0 0 0 0.0839659 0.0399812 0 0 0
          0 0 0 0 0 0 0 0.00510301 0 0 0 0.16498
          0 3.21584e-11 0 0.127489 0 0 0.91642 0.925337 0 0 0 1.50654e-25
          3.1222e-23 2.40811e-37 0.0182608 0 0 0 0 0 0 0 0 0
          0 0 0 0 0 0 0 0.929065 0.806052 0.0306843 0.358647 0.00612537
          0 0 0 0 0 0 0.645105 0 0 -0 0 0
          -2.02416e-33 0.346251 0 0 0 1.07568e-37 1.03554e-35 0 0 0.851576 0.845116 0.693154
          0.266703 0.130436 0.0475258 0.00420539 0 0 0.41312 0 0 0.186991 0 0.223684
          0 0.153647 0 0 0 0 -0 -0 0 0 0 0
          0 0 0 0 0 0 0 0.114297 0.117701 0.063276 0 0
          0 0 0 0 0.0718179 0.416208 0.0325381 0.0246359 0 0 0 0
          0.141759 0.0336563 0 0 0 0 0 0 0 0 0 0
          0 -0 0.00375088 0 0 0 0 0 0 0 0 0
          0 0 0 0 -0 -0 -0 0 0 0.0104893 -0 0.00110063
          0 0 -0 0.644445 0.675662 0.0219037 0 0 0 0 0 -0
          0 0 0 0 0 0 0 0 0 0 0 0
          0 0 0 0 0 0 0 0 0 0 0 0
          0 0 -0 0 0.507602 -0 -0 0 0 0.00141466 0 0
          0 0 0 0 0 0 0 0 0.104682 0 0 0.00377671
          0.00154672 0.0736965 -0 0 0 0.0605525 0 -0 0 0 0.0138955 0
          0 0 0.785969 0.805293 0.0569129 0 0 0 0 0 0 0.00100105
          0 0 0 0 0 0.0524057 0.0476699 0 -0 -0 -0 0
          0 0.059123 0.386809 -0 -0 -0 0 0 0 0 0 0
          0 0 0 0.00931429 0 0 0 -0 0 0 0 0.00584999
          0 0 0 0 0.124007 0 0 -0 0 0 0 0
          0 0.820338 0.197697 0.650578 0 0 0 0.246662 0.305738 0 -0 0
          0 0.0897078 0.108534 0.522249 0 0 0.117166 0.866698 0 0 0 0
          9.45253e-05 -2.90241e-35 0 0 0.711439 0.929228 0 0 0 0.892343 0.15998 0
          -0 0 0 0 -0 -0 -0 -0 -0 -0 -0 -0
          -0 0 -0 9.55103e-17 1.92198e-33 1.37584e-11 0.0084498 -0 -0 0 0 0
          7.43655e-22 -0 0 0 0 -0 -0 0 0 0 0.921411 0.924594
          0.327011 -0 0 0 0.792927 0 -0 -0 -0 -0 -0 0