<?xml version="1.0"?>
<VTKFile type="UnstructuredGrid" version="0.1" byte_order="LittleEndian">
  <UnstructuredGrid>
    <Piece NumberOfCells="1600" NumberOfPoints="1681">
      <CellData Scalars="waterDepth">
        <DataArray type="Float32" Name="waterDepth" NumberOfComponents="1" format="ascii">
          5.46376e-06 6.07994e-06 6.52237e-06 6.76321e-06 6.86683e-06 6.90293e-06 6.91342e-06 6.91602e-06 6.91658e-06 6.91669e-06 6.91671e-06 6.91671e-06
          6.91671e-06 6.91671e-06 6.91671e-06 6.91671e-06 6.91671e-06 6.91671e-06 6.91671e-06 9.8821e-06 9.8821e-06 6.91671e-06 6.91671e-06 6.91671e-06
          6.91671e-06 6.91671e-06 6.91671e-06 6.91671e-06 6.91671e-06 6.91671e-06 6.91669e-06 6.91658e-06 6.91602e-06 6.91342e-06 6.90293e-06 6.86683e-06
          6.76321e-06 6.52237e-06 6.07994e-06 5.46376e-06 6.07994e-06 6.94741e-06 7.6179e-06 7.98767e-06 8.14731e-06 8.20381e-06 8.22066e-06 8.22499e-06
          8.22596e-06 8.22615e-06 8.22619e-06 8.22619e-06 8.22619e-06 8.22619e-06 8.22619e-06 8.22619e-06 8.22619e-06 8.22619e-06 8.22619e-06 1.27548e-05
          1.27548e-05 8.22619e-06 8.22619e-06 8.22619e-06 8.22619e-06 8.22619e-06 8.22619e-06 8.22619e-06 8.22619e-06 8.22619e-06 8.22615e-06 8.22596e-06
          8.22499e-06 8.22066e-06 8.20381e-06 8.14731e-06 7.98767e-06 7.6179e-06 6.94741e-06 6.07994e-06 6.52237e-06 7.6179e-06 8.46496e-06 8.91551e-06
          9.10533e-06 9.17213e-06 9.19214e-06 9.19732e-06 9.1985e-06 9.19874e-06 9.19878e-06 9.19879e-06 9.19879e-06 9.19879e-06 9.19879e-06 9.19879e-06
          9.19879e-06 9.19879e-06 9.19879e-06 1.45411e-05 1.45411e-05 9.19879e-06 9.19879e-06 9.19879e-06 9.19879e-06 9.19879e-06 9.19879e-06 9.19879e-06
          9.19879e-06 9.19878e-06 9.19874e-06 9.1985e-06 9.19732e-06 9.19214e-06 9.17213e-06 9.10533e-06 8.91551e-06 8.46496e-06 7.6179e-06 6.52237e-06
          6.76321e-06 7.98767e-06 8.91551e-06 9.39567e-06 9.59557e-06 9.66581e-06 9.6869e-06 9.69238e-06 9.69363e-06 9.69389e-06 9.69394e-06 9.69394e-06
          9.69395e-06 9.69395e-06 9.69395e-06 9.69395e-06 9.69395e-06 9.69395e-06 5.25097e-05 0.000198608 0.000198608 5.25097e-05 9.69395e-06 9.69395e-06
          9.69395e-06 9.69395e-06 9.69395e-06 9.69395e-06 9.69394e-06 9.69394e-06 9.69389e-06 9.69363e-06 9.69238e-06 9.6869e-06 9.66581e-06 9.59557e-06
          9.39567e-06 8.91551e-06 7.98767e-06 6.76321e-06 6.86683e-06 8.14731e-06 9.10533e-06 9.59557e-06 9.7989e-06 9.87035e-06 9.89183e-06 9.89742e-06
          9.8987e-06 9.89896e-06 9.89901e-06 9.89901e-06 9.89901e-06 9.89902e-06 7.03303e-05 5.6751e-05 0.000711821 0.00142982 0.00185653 0.00206279
          0.00206279 0.00185653 0.00142982 0.000711821 5.6751e-05 7.03303e-05 9.89902e-06 9.89901e-06 9.89901e-06 9.89901e-06 9.89896e-06 9.8987e-06
          9.89742e-06 9.89183e-06 9.87035e-06 9.7989e-06 9.59557e-06 9.10533e-06 8.14731e-06 6.86683e-06 6.90293e-06 8.20381e-06 9.17213e-06 9.66581e-06
          9.87035e-06 9.94222e-06 9.96383e-06 9.96946e-06 9.97075e-06 9.97101e-06 9.97106e-06 9.97107e-06 4.05238e-05 0.000769505 0.0019099 0.00299307
          0.00394289 0.00467152 0.00514666 0.00537941 0.00537941 0.00514666 0.00467152 0.00394289 0.00299307 0.0019099 0.000769505 4.05238e-05
          9.97107e-06 9.97106e-06 9.97101e-06 9.97075e-06 9.96946e-06 9.96383e-06 9.94222e-06 9.87035e-06 9.66581e-06 9.17213e-06 8.20381e-06 6.90293e-06
          6.91342e-06 8.22066e-06 9.19214e-06 9.6869e-06 9.89183e-06 9.96383e-06 9.98549e-06 9.99113e-06 9.99242e-06 9.99268e-06 6.8398e-05 0.000590633
          0.00205007 0.00362796 0.00502236 0.00619741 0.00715521 0.00788027 0.008362 0.0086013 0.0086013 0.008362 0.00788027 0.00715521
          0.00619741 0.00502236 0.00362796 0.00205007 0.000590633 6.8398e-05 9.99268e-06 9.99242e-06 9.99113e-06 9.98549e-06 9.96383e-06 9.89183e-06
          9.6869e-06 9.19214e-06 8.22066e-06 6.91342e-06 6.91602e-06 8.22499e-06 9.19732e-06 9.69238e-06 9.89742e-06 9.96946e-06 9.99113e-06 9.99677e-06
          9.99806e-06 3.66275e-05 0.00119405 0.0031133 0.00496535 0.00661831 0.00804418 0.00923305 0.0101889 0.0109097 0.0113912 0.0116319
          0.0116319 0.0113912 0.0109097 0.0101889 0.00923305 0.00804418 0.00661831 0.00496535 0.0031133 0.00119405 3.66275e-05 9.99806e-06
          9.99677e-06 9.99113e-06 9.96946e-06 9.89742e-06 9.69238e-06 9.19732e-06 8.22499e-06 6.91602e-06 6.91658e-06 8.22596e-06 9.1985e-06 9.69363e-06
          9.8987e-06 9.97075e-06 9.99242e-06 9.99806e-06 2.89832e-05 0.00151127 0.00375073 0.00586462 0.00776408 0.00942928 0.0108599 0.0120519
          0.0130063 0.0137242 0.0142046 0.0144453 0.0144453 0.0142046 0.0137242 0.0130063 0.0120519 0.0108599 0.00942928 0.00776408
          0.00586462 0.00375073 0.00151127 2.89832e-05 9.99806e-06 9.99242e-06 9.97075e-06 9.8987e-06 9.69363e-06 9.1985e-06 8.22596e-06 6.91658e-06
          6.91669e-06 8.22615e-06 9.19874e-06 9.69389e-06 9.89896e-06 9.97101e-06 9.99268e-06 3.66275e-05 0.00151127 0.00395873 0.00631603 0.00845104
          0.010355 0.0120211 0.013451 0.0146433 0.0155966 0.0163126 0.0167918 0.0170322 0.0170322 0.0167918 0.0163126 0.0155966
          0.0146433 0.013451 0.0120211 0.010355 0.00845104 0.00631603 0.00395873 0.00151127 3.66275e-05 9.99268e-06 9.97101e-06 9.89896e-06
          9.69389e-06 9.19874e-06 8.22615e-06 6.91669e-06 6.91671e-06 8.22619e-06 9.19878e-06 9.69394e-06 9.89901e-06 9.97106e-06 6.8398e-05 0.00119405
          0.00375073 0.00631603 0.00868242 0.0108172 0.0127193 0.0143839 0.015812 0.0170034 0.0179558 0.0186706 0.0191487 0.0193886
          0.0193886 0.0191487 0.0186706 0.0179558 0.0170034 0.015812 0.0143839 0.0127193 0.0108172 0.00868242 0.00631603 0.00375073
          0.00119405 6.8398e-05 9.97106e-06 9.89901e-06 9.69394e-06 9.19878e-06 8.22619e-06 6.91671e-06 6.91671e-06 8.22619e-06 9.19879e-06 9.69394e-06
          9.89901e-06 9.97107e-06 0.000590633 0.0031133 0.00586462 0.00845104 0.0108172 0.0129509 0.014851 0.0165142 0.0179406 0.0191308
          0.0200824 0.0207962 0.0212733 0.0215127 0.0215127 0.0212733 0.0207962 0.0200824 0.0191308 0.0179406 0.0165142 0.014851
          0.0129509 0.0108172 0.00845104 0.00586462 0.0031133 0.000590633 9.97107e-06 9.89901e-06 9.69394e-06 9.19879e-06 8.22619e-06 6.91671e-06
          6.91671e-06 8.22619e-06 9.19879e-06 9.69395e-06 9.89901e-06 4.05238e-05 0.00205007 0.00496535 0.00776408 0.010355 0.0127193 0.014851
          0.0167487 0.0184102 0.0198349 0.0210237 0.0219745 0.0226875 0.0231639 0.0234028 0.0234028 0.0231639 0.0226875 0.0219745
          0.0210237 0.0198349 0.0184102 0.0167487 0.014851 0.0127193 0.010355 0.00776408 0.00496535 0.00205007 4.05238e-05 9.89901e-06
          9.69395e-06 9.19879e-06 8.22619e-06 6.91671e-06 6.91671e-06 8.22619e-06 9.19879e-06 9.69395e-06 9.89902e-06 0.000769505 0.00362796 0.00661831
          0.00942928 0.0120211 0.0143839 0.0165142 0.0184102 0.0200704 0.0214938 0.0226814 0.0236314 0.0243438 0.0248196 0.0250581
          0.0250581 0.0248196 0.0243438 0.0236314 0.0226814 0.0214938 0.0200704 0.0184102 0.0165142 0.0143839 0.0120211 0.00942928
          0.00661831 0.00362796 0.000769505 9.89902e-06 9.69395e-06 9.19879e-06 8.22619e-06 6.91671e-06 6.91671e-06 8.22619e-06 9.19879e-06 9.69395e-06
          7.03303e-05 0.0019099 0.00502236 0.00804418 0.0108599 0.013451 0.015812 0.0179406 0.0198349 0.0214938 0.0229162 0.0241028
          0.0250522 0.0257642 0.0262395 0.0264776 0.0264776 0.0262395 0.0257642 0.0250522 0.0241028 0.0229162 0.0214938 0.0198349
          0.0179406 0.015812 0.013451 0.0108599 0.00804418 0.00502236 0.0019099 7.03303e-05 9.69395e-06 9.19879e-06 8.22619e-06 6.91671e-06
          6.91671e-06 8.22619e-06 9.19879e-06 9.69395e-06 5.6751e-05 0.00299307 0.00619741 0.00923305 0.0120519 0.0146433 0.0170034 0.0191308
          0.0210237 0.0226814 0.0241028 0.0252883 0.026237 0.0269486 0.0274234 0.0276613 0.0276613 0.0274234 0.0269486 0.026237
          0.0252883 0.0241028 0.0226814 0.0210237 0.0191308 0.0170034 0.0146433 0.0120519 0.00923305 0.00619741 0.00299307 5.6751e-05
          9.69395e-06 9.19879e-06 8.22619e-06 6.91671e-06 6.91671e-06 8.22619e-06 9.19879e-06 9.69395e-06 0.000711821 0.00394289 0.00715521 0.0101889
          0.0130063 0.0155966 0.0179558 0.0200824 0.0219745 0.0236314 0.0250522 0.026237 0.0271853 0.0278965 0.0283711 0.0286087
          0.0286087 0.0283711 0.0278965 0.0271853 0.026237 0.0250522 0.0236314 0.0219745 0.0200824 0.0179558 0.0155966 0.0130063
          0.0101889 0.00715521 0.00394289 0.000711821 9.69395e-06 9.19879e-06 8.22619e-06 6.91671e-06 6.91671e-06 8.22619e-06 9.19879e-06 9.69395e-06
          0.00142982 0.00467152 0.00788027 0.0109097 0.0137242 0.0163126 0.0186706 0.0207962 0.0226875 0.0243438 0.0257642 0.0269486
          0.0278965 0.0286076 0.029082 0.0293195 0.0293195 0.029082 0.0286076 0.0278965 0.0269486 0.0257642 0.0243438 0.0226875
          0.0207962 0.0186706 0.0163126 0.0137242 0.0109097 0.00788027 0.00467152 0.00142982 9.69395e-06 9.19879e-06 8.22619e-06 6.91671e-06
          6.91671e-06 8.22619e-06 9.19879e-06 5.25097e-05 0.00185653 0.00514666 0.008362 0.0113912 0.0142046 0.0167918 0.0191487 0.0212733
          0.0231639 0.0248196 0.0262395 0.0274234 0.0283711 0.029082 0.0295563 0.0297936 0.0297936 0.0295563 0.029082 0.0283711
          0.0274234 0.0262395 0.0248196 0.0231639 0.0212733 0.0191487 0.0167918 0.0142046 0.0113912 0.008362 0.00514666 0.00185653
          5.25097e-05 9.19879e-06 8.22619e-06 6.91671e-06 9.8821e-06 1.27548e-05 1.45411e-05 0.000198608 0.00206279 0.00537941 0.0086013 0.0116319
          0.0144453 0.0170322 0.0193886 0.0215127 0.0234028 0.0250581 0.0264776 0.0276613 0.0286087 0.0293195 0.0297936 0.0300309
          0.0300309 0.0297936 0.0293195 0.0286087 0.0276613 0.0264776 0.0250581 0.0234028 0.0215127 0.0193886 0.0170322 0.0144453
          0.0116319 0.0086013 0.00537941 0.00206279 0.000198608 1.45411e-05 1.27548e-05 9.8821e-06 9.8821e-06 1.27548e-05 1.45411e-05 0.000198608
          0.00206279 0.00537941 0.0086013 0.0116319 0.0144453 0.0170322 0.0193886 0.0215127 0.0234028 0.0250581 0.0264776 0.0276613
          0.0286087 0.0293195 0.0297936 0.0300309 0.0300309 0.0297936 0.0293195 0.0286087 0.0276613 0.0264776 0.0250581 0.0234028
          0.0215127 0.0193886 0.0170322 0.0144453 0.0116319 0.0086013 0.00537941 0.00206279 0.000198608 1.45411e-05 1.27548e-05 9.8821e-06
          6.91671e-06 8.22619e-06 9.19879e-06 5.25097e-05 0.00185653 0.00514666 0.008362 0.0113912 0.0142046 0.0167918 0.0191487 0.0212733
          0.0231639 0.0248196 0.0262395 0.0274234 0.0283711 0.029082 0.0295563 0.0297936 0.0297936 0.0295563 0.029082 0.0283711
          0.0274234 0.0262395 0.0248196 0.0231639 0.0212733 0.0191487 0.0167918 0.0142046 0.0113912 0.008362 0.00514666 0.00185653
          5.25097e-05 9.19879e-06 8.22619e-06 6.91671e-06 6.91671e-06 8.22619e-06 9.19879e-06 9.69395e-06 0.00142982 0.00467152 0.00788027 0.0109097
          0.0137242 0.0163126 0.0186706 0.0207962 0.0226875 0.0243438 0.0257642 0.0269486 0.0278965 0.0286076 0.029082 0.0293195
          0.0293195 0.029082 0.0286076 0.0278965 0.0269486 0.0257642 0.0243438 0.0226875 0.0207962 0.0186706 0.0163126 0.0137242
          0.0109097 0.00788027 0.00467152 0.00142982 9.69395e-06 9.19879e-06 8.22619e-06 6.91671e-06 6.91671e-06 8.22619e-06 9.19879e-06 9.69395e-06
          0.000711821 0.00394289 0.00715521 0.0101889 0.0130063 0.0155966 0.0179558 0.0200824 0.0219745 0.0236314 0.0250522 0.026237
          0.0271853 0.0278965 0.0283711 0.0286087 0.0286087 0.0283711 0.0278965 0.0271853 0.026237 0.0250522 0.0236314 0.0219745
          0.0200824 0.0179558 0.0155966 0.0130063 0.0101889 0.00715521 0.00394289 0.000711821 9.69395e-06 9.19879e-06 8.22619e-06 6.91671e-06
          6.91671e-06 8.22619e-06 9.19879e-06 9.69395e-06 5.6751e-05 0.00299307 0.00619741 0.00923305 0.0120519 0.0146433 0.0170034 0.0191308
          0.0210237 0.0226814 0.0241028 0.0252883 0.026237 0.0269486 0.0274234 0.0276613 0.0276613 0.0274234 0.0269486 0.026237
          0.0252883 0.0241028 0.0226814 0.0210237 0.0191308 0.0170034 0.0146433 0.0120519 0.00923305 0.00619741 0.00299307 5.6751e-05
          9.69395e-06 9.19879e-06 8.22619e-06 6.91671e-06 6.91671e-06 8.22619e-06 9.19879e-06 9.69395e-06 7.03303e-05 0.0019099 0.00502236 0.00804418
          0.0108599 0.013451 0.015812 0.0179406 0.0198349 0.0214938 0.0229162 0.0241028 0.0250522 0.0257642 0.0262395 0.0264776
          0.0264776 0.0262395 0.0257642 0.0250522 0.0241028 0.0229162 0.0214938 0.0198349 0.0179406 0.015812 0.013451 0.0108599
          0.00804418 0.00502236 0.0019099 7.03303e-05 9.69395e-06 9.19879e-06 8.22619e-06 6.91671e-06 6.91671e-06 8.22619e-06 9.19879e-06 9.69395e-06
          9.89902e-06 0.000769505 0.00362796 0.00661831 0.00942928 0.0120211 0.0143839 0.0165142 0.0184102 0.0200704 0.0214938 0.0226814
          0.0236314 0.0243438 0.0248196 0.0250581 0.0250581 0.0248196 0.0243438 0.0236314 0.0226814 0.0214938 0.0200704 0.0184102
          0.0165142 0.0143839 0.0120211 0.00942928 0.00661831 0.00362796 0.000769505 9.89902e-06 9.69395e-06 9.19879e-06 8.22619e-06 6.91671e-06
          6.91671e-06 8.22619e-06 9.19879e-06 9.69395e-06 9.89901e-06 4.05238e-05 0.00205007 0.00496535 0.00776408 0.010355 0.0127193 0.014851
          0.0167487 0.0184102 0.0198349 0.0210237 0.0219745 0.0226875 0.0231639 0.0234028 0.0234028 0.0231639 0.0226875 0.0219745
          0.0210237 0.0198349 0.0184102 0.0167487 0.014851 0.0127193 0.010355 0.00776408 0.00496535 0.00205007 4.05238e-05 9.89901e-06
          9.69395e-06 9.19879e-06 8.22619e-06 6.91671e-06 6.91671e-06 8.22619e-06 9.19879e-06 9.69394e-06 9.89901e-06 9.97107e-06 0.000590633 0.0031133
          0.00586462 0.00845104 0.0108172 0.0129509 0.014851 0.0165142 0.0179406 0.0191308 0.0200824 0.0207962 0.0212733 0.0215127
          0.0215127 0.0212733 0.0207962 0.0200824 0.0191308 0.0179406 0.0165142 0.014851 0.0129509 0.0108172 0.00845104 0.00586462
          0.0031133 0.000590633 9.97107e-06 9.89901e-06 9.69394e-06 9.19879e-06 8.22619e-06 6.91671e-06 6.91671e-06 8.22619e-06 9.19878e-06 9.69394e-06
          9.89901e-06 9.97106e-06 6.8398e-05 0.00119405 0.00375073 0.00631603 0.00868242 0.0108172 0.0127193 0.0143839 0.015812 0.0170034
          0.0179558 0.0186706 0.0191487 0.0193886 0.0193886 0.0191487 0.0186706 0.0179558 0.0170034 0.015812 0.0143839 0.0127193
          0.0108172 0.00868242 0.00631603 0.00375073 0.00119405 6.8398e-05 9.97106e-06 9.89901e-06 9.69394e-06 9.19878e-06 8.22619e-06 6.91671e-06
          6.91669e-06 8.22615e-06 9.19874e-06 9.69389e-06 9.89896e-06 9.97101e-06 9.99268e-06 3.66275e-05 0.00151127 0.00395873 0.00631603 0.00845104
          0.010355 0.0120211 0.013451 0.0146433 0.0155966 0.0163126 0.0167918 0.0170322 0.0170322 0.0167918 0.0163126 0.0155966
          0.0146433 0.013451 0.0120211 0.010355 0.00845104 0.00631603 0.00395873 0.00151127 3.66275e-05 9.99268e-06 9.97101e-06 9.89896e-06
          9.69389e-06 9.19874e-06 8.22615e-06 6.91669e-06 6.91658e-06 8.22596e-06 9.1985e-06 9.69363e-06 9.8987e-06 9.97075e-06 9.99242e-06 9.99806e-06
          2.89832e-05 0.00151127 0.00375073 0.00586462 0.00776408 0.00942928 0.0108599 0.0120519 0.0130063 0.0137242 0.0142046 0.0144453
          0.0144453 0.0142046 0.0137242 0.0130063 0.0120519 0.0108599 0.00942928 0.00776408 0.00586462 0.00375073 0.00151127 2.89832e-05
          9.99806e-06 9.99242e-06 9.97075e-06 9.8987e-06 9.69363e-06 9.1985e-06 8.22596e-06 6.91658e-06 6.91602e-06 8.22499e-06 9.19732e-06 9.69238e-06
          9.89742e-06 9.96946e-06 9.99113e-06 9.99677e-06 9.99806e-06 3.66275e-05 0.00119405 0.0031133 0.00496535 0.00661831 0.00804418 0.00923305
          0.0101889 0.0109097 0.0113912 0.0116319 0.0116319 0.0113912 0.0109097 0.0101889 0.00923305 0.00804418 0.00661831 0.00496535
          0.0031133 0.00119405 3.66275e-05 9.99806e-06 9.99677e-06 9.99113e-06 9.96946e-06 9.89742e-06 9.69238e-06 9.19732e-06 8.22499e-06 6.91602e-06
          6.91342e-06 8.22066e-06 9.19214e-06 9.6869e-06 9.89183e-06 9.96383e-06 9.98549e-06 9.99113e-06 9.99242e-06 9.99268e-06 6.8398e-05 0.000590633
          0.00205007 0.00362796 0.00502236 0.00619741 0.00715521 0.00788027 0.008362 0.0086013 0.0086013 0.008362 0.00788027 0.00715521
          0.00619741 0.00502236 0.00362796 0.00205007 0.000590633 6.8398e-05 9.99268e-06 9.99242e-06 9.99113e-06 9.98549e-06 9.96383e-06 9.89183e-06
          9.6869e-06 9.19214e-06 8.22066e-06 6.91342e-06 6.90293e-06 8.20381e-06 9.17213e-06 9.66581e-06 9.87035e-06 9.94222e-06 9.96383e-06 9.96946e-06
          9.97075e-06 9.97101e-06 9.97106e-06 9.97107e-06 4.05238e-05 0.000769505 0.0019099 0.00299307 0.00394289 0.00467152 0.00514666 0.00537941
          0.00537941 0.00514666 0.00467152 0.00394289 0.00299307 0.0019099 0.000769505 4.05238e-05 9.97107e-06 9.97106e-06 9.97101e-06 9.97075e-06
          9.96946e-06 9.96383e-06 9.94222e-06 9.87035e-06 9.66581e-06 9.17213e-06 8.20381e-06 6.90293e-06 6.86683e-06 8.14731e-06 9.10533e-06 9.59557e-06
          9.7989e-06 9.87035e-06 9.89183e-06 9.89742e-06 9.8987e-06 9.89896e-06 9.89901e-06 9.89901e-06 9.89901e-06 9.89902e-06 7.03303e-05 5.6751e-05
          0.000711821 0.00142982 0.00185653 0.00206279 0.00206279 0.00185653 0.00142982 0.000711821 5.6751e-05 7.03303e-05 9.89902e-06 9.89901e-06
          9.89901e-06 9.89901e-06 9.89896e-06 9.8987e-06 9.89742e-06 9.89183e-06 9.87035e-06 9.7989e-06 9.59557e-06 9.10533e-06 8.14731e-06 6.86683e-06
          6.76321e-06 7.98767e-06 8.91551e-06 9.39567e-06 9.59557e-06 9.66581e-06 9.6869e-06 9.69238e-06 9.69363e-06 9.69389e-06 9.69394e-06 9.69394e-06
          9.69395e-06 9.69395e-06 9.69395e-06 9.69395e-06 9.69395e-06 9.69395e-06 5.25097e-05 0.000198608 0.000198608 5.25097e-05 9.69395e-06 9.69395e-06
          9.69395e-06 9.69395e-06 9.69395e-06 9.69395e-06 9.69394e-06 9.69394e-06 9.69389e-06 9.69363e-06 9.69238e-06 9.6869e-06 9.66581e-06 9.59557e-06
          9.39567e-06 8.91551e-06 7.98767e-06 6.76321e-06 6.52237e-06 7.6179e-06 8.46496e-06 8.91551e-06 9.10533e-06 9.17213e-06 9.19214e-06 9.19732e-06
          9.1985e-06 9.19874e-06 9.19878e-06 9.19879e-06 9.19879e-06 9.19879e-06 9.19879e-06 9.19879e-06 9.19879e-06 9.19879e-06 9.19879e-06 1.45411e-05
          1.45411e-05 9.19879e-06 9.19879e-06 9.19879e-06 9.19879e-06 9.19879e-06 9.19879e-06 9.19879e-06 9.19879e-06 9.19878e-06 9.19874e-06 9.1985e-06
          9.19732e-06 9.19214e-06 9.17213e-06 9.10533e-06 8.91551e-06 8.46496e-06 7.6179e-06 6.52237e-06 6.07994e-06 6.94741e-06 7.6179e-06 7.98767e-06
          8.14731e-06 8.20381e-06 8.22066e-06 8.22499e-06 8.22596e-06 8.22615e-06 8.22619e-06 8.22619e-06 8.22619e-06 8.22619e-06 8.22619e-06 8.22619e-06
          8.22619e-06 8.22619e-06 8.22619e-06 1.27548e-05 1.27548e-05 8.22619e-06 8.22619e-06 8.22619e-06 8.22619e-06 8.22619e-06 8.22619e-06 8.22619e-06
          8.22619e-06 8.22619e-06 8.22615e-06 8.22596e-06 8.22499e-06 8.22066e-06 8.20381e-06 8.14731e-06 7.98767e-06 7.6179e-06 6.94741e-06 6.07994e-06
          5.46376e-06 6.07994e-06 6.52237e-06 6.76321e-06 6.86683e-06 6.90293e-06 6.91342e-06 6.91602e-06 6.91658e-06 6.91669e-06 6.91671e-06 6.91671e-06
          6.91671e-06 6.91671e-06 6.91671e-06 6.91671e-06 6.91671e-06 6.91671e-06 6.91671e-06 9.8821e-06 9.8821e-06 6.91671e-06 6.91671e-06 6.91671e-06
          6.91671e-06 6.91671e-06 6.91671e-06 6.91671e-06 6.91671e-06 6.91671e-06 6.91669e-06 6.91658e-06 6.91602e-06 6.91342e-06 6.90293e-06 6.86683e-06
          6.76321e-06 6.52237e-06 6.07994e-06 5.46376e-06
        </DataArray>
        <DataArray type="Float32" Name="velocityX" NumberOfComponents="1" format="ascii">
          0.00092576 0.00346841 0.00452091 0.00495945 0.00512115 0.00517231 0.0051862 0.00518947 0.00519015 0.00519028 0.0051903 0.0051903
          0.0051903 0.0051903 0.0051903 0.0051903 0.0051903 0.0051903 0.0051903 0.00219536 -0.00219536 -0.0051903 -0.0051903 -0.0051903
          -0.0051903 -0.0051903 -0.0051903 -0.0051903 -0.0051903 -0.0051903 -0.00519028 -0.00519015 -0.00518947 -0.0051862 -0.00517231 -0.00512115
          -0.00495945 -0.00452091 -0.00346841 -0.00092576 0.00103382 0.00386695 0.0050724 0.00560577 0.00581661 0.00588777 0.00590825 0.00591334
          0.00591446 0.00591468 0.00591472 0.00591472 0.00591472 0.00591472 0.00591472 0.00591472 0.00591472 0.00591472 0.00591472 0.00230911
          -0.00230911 -0.00591472 -0.00591472 -0.00591472 -0.00591472 -0.00591472 -0.00591472 -0.00591472 -0.00591472 -0.00591472 -0.00591468 -0.00591446
          -0.00591334 -0.00590825 -0.00588777 -0.00581661 -0.00560577 -0.0050724 -0.00386695 -0.00103382 0.00108194 0.00401974 0.00527864 0.00585617
          0.00609231 0.00617412 0.0061982 0.00620433 0.0062057 0.00620598 0.00620603 0.00620603 0.00620604 0.00620604 0.00620604 0.00620604
          0.00620604 0.00620604 0.00620604 0.0023821 -0.0023821 -0.00620604 -0.00620604 -0.00620604 -0.00620604 -0.00620604 -0.00620604 -0.00620604
          -0.00620603 -0.00620603 -0.00620598 -0.0062057 -0.00620433 -0.0061982 -0.00617412 -0.00609231 -0.00585617 -0.00527864 -0.00401974 -0.00108194
          0.00109822 0.00406565 0.00534759 0.00594777 0.00619635 0.00628324 0.00630902 0.00631564 0.00631713 0.00631743 0.00631749 0.00631749
          0.0063175 0.0063175 0.0063175 0.0063175 0.0063175 0.0063175 0.00710429 0.00144018 -0.00144018 -0.00710429 -0.0063175 -0.0063175
          -0.0063175 -0.0063175 -0.0063175 -0.0063175 -0.00631749 -0.00631749 -0.00631743 -0.00631713 -0.00631564 -0.00630902 -0.00628324 -0.00619635
          -0.00594777 -0.00534759 -0.00406565 -0.00109822 0.00110276 0.00407818 0.00537063 0.00598079 0.0062346 0.00632357 0.00635005 0.00635686
          0.0063584 0.00635871 0.00635877 0.00635878 0.00635878 0.00635878 0.0147144 0.0386174 0.0060166 0.00303465 0.0029491 0.00122189
          -0.00122189 -0.0029491 -0.00303465 -0.0060166 -0.0386174 -0.0147144 -0.00635878 -0.00635878 -0.00635878 -0.00635877 -0.00635871 -0.0063584
          -0.00635686 -0.00635005 -0.00632357 -0.0062346 -0.00598079 -0.00537063 -0.00407818 -0.00110276 0.00110378 0.00408107 0.00537737 0.00599107
          0.0062467 0.00633639 0.00636311 0.00636999 0.00637155 0.00637186 0.00637192 0.00637193 0.0187751 0.00712304 0.0140094 0.0123985
          0.00856721 0.0056776 0.00348387 0.00119396 -0.00119396 -0.00348387 -0.0056776 -0.00856721 -0.0123985 -0.0140094 -0.00712304 -0.0187751
          -0.00637193 -0.00637192 -0.00637186 -0.00637155 -0.00636999 -0.00636311 -0.00633639 -0.0062467 -0.00599107 -0.00537737 -0.00408107 -0.00110378
          0.00110396 0.00408157 0.00537901 0.00599376 0.00624993 0.00633984 0.00636663 0.00637352 0.00637509 0.0063754 0.0105491 0.00737301
          0.0140859 0.0122452 0.0105078 0.00844223 0.00613199 0.0040923 0.00237038 0.000777728 -0.000777728 -0.00237038 -0.0040923 -0.00613199
          -0.00844223 -0.0105078 -0.0122452 -0.0140859 -0.00737301 -0.0105491 -0.0063754 -0.00637509 -0.00637352 -0.00636663 -0.00633984 -0.00624993
          -0.00599376 -0.00537901 -0.00408157 -0.00110396 0.00110398 0.00408162 0.00537934 0.00599437 0.00625067 0.00634063 0.00636744 0.00637434
          0.00637591 0.0187328 0.0145769 0.0150723 0.0123541 0.00998992 0.00811932 0.00644927 0.00477684 0.00320206 0.00181497 0.000582997
          -0.000582997 -0.00181497 -0.00320206 -0.00477684 -0.00644927 -0.00811932 -0.00998992 -0.0123541 -0.0150723 -0.0145769 -0.0187328 -0.00637591
          -0.00637434 -0.00636744 -0.00634063 -0.00625067 -0.00599437 -0.00537934 -0.00408162 -0.00110398 0.00110399 0.00408162 0.0053794 0.00599448
          0.00625082 0.00634079 0.00636761 0.00637451 0.0207639 0.0138952 0.0142217 0.0119884 0.00997437 0.00823462 0.00669728 0.00532221
          0.00399156 0.00270174 0.00152725 0.000487373 -0.000487373 -0.00152725 -0.00270174 -0.00399156 -0.00532221 -0.00669728 -0.00823462 -0.00997437
          -0.0119884 -0.0142217 -0.0138952 -0.0207639 -0.00637451 -0.00636761 -0.00634079 -0.00625082 -0.00599448 -0.0053794 -0.00408162 -0.00110399
          0.00110398 0.00408161 0.00537941 0.0059945 0.00625085 0.00634082 0.00636764 0.0183948 0.0137798 0.0137522 0.0115863 0.0098199
          0.00830305 0.00694078 0.00567539 0.00452452 0.00342617 0.00234512 0.00133329 0.000426017 -0.000426017 -0.00133329 -0.00234512 -0.00342617
          -0.00452452 -0.00567539 -0.00694078 -0.00830305 -0.0098199 -0.0115863 -0.0137522 -0.0137798 -0.0183948 -0.00636764 -0.00634082 -0.00625085
          -0.0059945 -0.00537941 -0.00408161 -0.00110398 0.00110398 0.00408161 0.00537941 0.00599451 0.00625085 0.00634083 0.0102733 0.0131271
          0.0139796 0.0114659 0.00968015 0.00828738 0.00707698 0.0059713 0.00491668 0.0039365 0.00300284 0.00207603 0.00119005 0.000381943
          -0.000381943 -0.00119005 -0.00207603 -0.00300284 -0.0039365 -0.00491668 -0.0059713 -0.00707698 -0.00828738 -0.00968015 -0.0114659 -0.0139796
          -0.0131271 -0.0102733 -0.00634083 -0.00625085 -0.00599451 -0.00537941 -0.00408161 -0.00110398 0.00110398 0.00408161 0.00537941 0.00599451
          0.00625086 0.00634083 0.000875765 0.0120256 0.011145 0.00962536 0.00840326 0.00732413 0.0063246 0.00537799 0.00445299 0.00357406
          0.00273569 0.00190401 0.00109979 0.000354826 -0.000354826 -0.00109979 -0.00190401 -0.00273569 -0.00357406 -0.00445299 -0.00537799 -0.0063246
          -0.00732413 -0.00840326 -0.00962536 -0.011145 -0.0120256 -0.000875765 -0.00634083 -0.00625086 -0.00599451 -0.00537941 -0.00408161 -0.00110398
          0.00110398 0.00408161 0.00537941 0.00599451 0.00625086 0.0179534 0.00962502 0.0111827 0.0098855 0.00868212 0.00764051 0.00668481
          0.0057887 0.00493527 0.00409883 0.00329479 0.0025264 0.00176668 0.00102725 0.000333111 -0.000333111 -0.00102725 -0.00176668 -0.0025264
          -0.00329479 -0.00409883 -0.00493527 -0.0057887 -0.00668481 -0.00764051 -0.00868212 -0.0098855 -0.0111827 -0.00962502 -0.0179534 -0.00625086
          -0.00599451 -0.00537941 -0.00408161 -0.00110398 0.00110398 0.00408161 0.00537941 0.00599451 0.00625086 -0.00174083 0.00997975 0.00968981
          0.00875732 0.00787932 0.00703476 0.00620901 0.00540606 0.0046248 0.00385179 0.00309959 0.00237748 0.00166682 0.000973948 0.000317164
          -0.000317164 -0.000973948 -0.00166682 -0.00237748 -0.00309959 -0.00385179 -0.0046248 -0.00540606 -0.00620901 -0.00703476 -0.00787932 -0.00875732
          -0.00968981 -0.00997975 0.00174083 -0.00625086 -0.00599451 -0.00537941 -0.00408161 -0.00110398 0.00110398 0.00408161 0.00537941 0.00599451
          0.00853146 0.00656808 0.00954212 0.00876588 0.00795216 0.00719872 0.00645971 0.00572921 0.00501133 0.00430518 0.00360107 0.00290712
          0.00223429 0.00157135 0.000922547 0.000301612 -0.000301612 -0.000922547 -0.00157135 -0.00223429 -0.00290712 -0.00360107 -0.00430518 -0.00501133
          -0.00572921 -0.00645971 -0.00719872 -0.00795216 -0.00876588 -0.00954212 -0.00656808 -0.00853146 -0.00599451 -0.00537941 -0.00408161 -0.00110398
          0.00110398 0.00408161 0.00537941 0.00599451 0.0130565 0.00800398 0.00936117 0.00872211 0.00793845 0.00715763 0.00638378 0.00562843
          0.00489784 0.0041898 0.00349486 0.00281517 0.00215875 0.00151754 0.000892754 0.000292571 -0.000292571 -0.000892754 -0.00151754 -0.00215875
          -0.00281517 -0.00349486 -0.0041898 -0.00489784 -0.00562843 -0.00638378 -0.00715763 -0.00793845 -0.00872211 -0.00936117 -0.00800398 -0.0130565
          -0.00599451 -0.00537941 -0.00408161 -0.00110398 0.00110398 0.00408161 0.00537941 0.00599451 -0.0117334 0.00719541 0.00858794 0.00826743
          0.00765522 0.00696653 0.00624643 0.00552424 0.00481473 0.0041211 0.00343911 0.0027706 0.00212318 0.00149277 0.000879806 0.000288915
          -0.000288915 -0.000879806 -0.00149277 -0.00212318 -0.0027706 -0.00343911 -0.0041211 -0.00481473 -0.00552424 -0.00624643 -0.00696653 -0.00765522
          -0.00826743 -0.00858794 -0.00719541 0.0117334 -0.00599451 -0.00537941 -0.00408161 -0.00110398 0.00110398 0.00408161 0.00537941 0.00599451
          -0.00388132 0.00741549 0.00836369 0.00800408 0.00741339 0.00676029 0.00607976 0.00539449 0.00471614 0.00404739 0.00338595 0.00273342
          0.00209711 0.0014763 0.000871899 0.000286847 -0.000286847 -0.000871899 -0.0014763 -0.00209711 -0.00273342 -0.00338595 -0.00404739 -0.00471614
          -0.00539449 -0.00607976 -0.00676029 -0.00741339 -0.00800408 -0.00836369 -0.00741549 0.00388132 -0.00599451 -0.00537941 -0.00408161 -0.00110398
          0.00110398 0.00408161 0.00537941 -0.0272198 0.00395038 0.00957582 0.00950957 0.00870864 0.0078598 0.00704498 0.00626309 0.00551389
          0.00479479 0.00409968 0.00342166 0.00275828 0.00211363 0.00148715 0.000878776 0.00028935 -0.00028935 -0.000878776 -0.00148715 -0.00211363
          -0.00275828 -0.00342166 -0.00409968 -0.00479479 -0.00551389 -0.00626309 -0.00704498 -0.0078598 -0.00870864 -0.00950957 -0.00957582 -0.00395038
          0.0272198 -0.00537941 -0.00408161 -0.00110398 0.0013014 0.00469613 0.00637717 -0.00303651 0.00886024 0.0116592 0.0108089 0.0096008
          0.00848454 0.00748408 0.00657214 0.00573124 0.00494723 0.00420604 0.0034956 0.0028092 0.00214756 0.00150873 0.000891048 0.000293398
          -0.000293398 -0.000891048 -0.00150873 -0.00214756 -0.0028092 -0.0034956 -0.00420604 -0.00494723 -0.00573124 -0.00657214 -0.00748408 -0.00848454
          -0.0096008 -0.0108089 -0.0116592 -0.00886024 0.00303651 -0.00637717 -0.00469613 -0.0013014 0.0013014 0.00469613 0.00637717 -0.00303651
          0.00886024 0.0116592 0.0108089 0.0096008 0.00848454 0.00748408 0.00657214 0.00573124 0.00494723 0.00420604 0.0034956 0.0028092
          0.00214756 0.00150873 0.000891048 0.000293398 -0.000293398 -0.000891048 -0.00150873 -0.00214756 -0.0028092 -0.0034956 -0.00420604 -0.00494723
          -0.00573124 -0.00657214 -0.00748408 -0.00848454 -0.0096008 -0.0108089 -0.0116592 -0.00886024 0.00303651 -0.00637717 -0.00469613 -0.0013014
          0.00110398 0.00408161 0.00537941 -0.0272198 0.00395038 0.00957582 0.00950957 0.00870864 0.0078598 0.00704498 0.00626309 0.00551389
          0.00479479 0.00409968 0.00342166 0.00275828 0.00211363 0.00148715 0.000878776 0.00028935 -0.00028935 -0.000878776 -0.00148715 -0.00211363