<?xml version="1.0"?>
<VTKFile type="PolyData" version="0.1" byte_order="LittleEndian">
  <PolyData>
    <Piece NumberOfLines="100" NumberOfPoints="101">
      <CellData Scalars="p">
        <DataArray type="Float32" Name="p" NumberOfComponents="1" format="ascii">
          1.00151 1.00405 1.00624 1.00816 1.00988 1.01143 1.01284 1.01414 1.01533 1.01645 1.01749 1.01847
          1.01939 1.02026 1.02109 1.02187 1.02262 1.02333 1.02402 1.02467 1.0253 1.02591 1.02649 1.02705
          1.0276 1.02812 1.02863 1.02912 1.0296 1.03006 1.03051 1.03095 1.03138 1.0318 1.0322 1.0326
          1.03298 1.03336 1.03372 1.03408 1.03443 1.03478 1.03512 1.03544 1.03577 1.03608 1.03639 1.0367
          1.037 1.03729 1.03758 1.03786 1.03814 1.03841 1.03868 1.03894 1.0392 1.03946 1.03971 1.03996
          1.0402 1.04044 1.04068 1.04091 1.04114 1.04136 1.04159 1.04181 1.04202 1.04224 1.04245 1.04266
          1.04286 1.04307 1.04327 1.04347 1.04366 1.04386 1.04405 1.04423 1.04442 1.04461 1.04479 1.04497
          1.04515 1.04532 1.0455 1.04567 1.04584 1.04601 1.04617 1.04634 1.0465 1.04667 1.04683 1.04698
          1.04714 1.0473 1.04745 1.0476
        </DataArray>
        <DataArray type="Float32" Name="process rank" NumberOfComponents="1" format="ascii">
          0 0 0 0 0 0 0 0 0 0 0 0
          0 0 0 0 0 0 0 0 0 0 0 0
          0 0 0 0 0 0 0 0 0 0 0 0
          0 0 0 0 0 0 0 0 0 0 0 0
          0 0 0 0 0 0 0 0 0 0 0 0
          0 0 0 0 0 0 0 0 0 0 0 0
          0 0 0 0 0 0 0 0 0 0 0 0
          0 0 0 0 0 0 0 0 0 0 0 0
          0 0 0 0
        </DataArray>
        <DataArray type="Float32" Name="pExact" NumberOfComponents="1" format="ascii">
          1.00144 1.00399 1.00619 1.00811 1.00983 1.01139 1.0128 1.0141 1.0153 1.01642 1.01746 1.01844
          1.01936 1.02023 1.02106 1.02184 1.02259 1.02331 1.02399 1.02465 1.02528 1.02588 1.02647 1.02703
          1.02757 1.0281 1.02861 1.0291 1.02958 1.03005 1.0305 1.03094 1.03136 1.03178 1.03218 1.03258
          1.03297 1.03334 1.03371 1.03407 1.03442 1.03477 1.0351 1.03543 1.03575 1.03607 1.03638 1.03669
          1.03699 1.03728 1.03757 1.03785 1.03813 1.0384 1.03867 1.03893 1.03919 1.03945 1.0397 1.03995
          1.04019 1.04043 1.04067 1.0409 1.04113 1.04136 1.04158 1.0418 1.04202 1.04223 1.04244 1.04265
          1.04286 1.04306 1.04326 1.04346 1.04366 1.04385 1.04404 1.04423 1.04442 1.0446 1.04478 1.04497
          1.04514 1.04532 1.04549 1.04567 1.04584 1.04601 1.04617 1.04634 1.0465 1.04666 1.04682 1.04698
          1.04714 1.0473 1.04745 1.0476
        </DataArray>
      </CellData>
      <Points>
        <DataArray type="Float32" Name="Coordinates" NumberOfComponents="3" format="ascii">
          0.05 0 0 0.0595 0 0 0.069 0 0 0.0785 0 0
          0.088 0 0 0.0975 0 0 0.107 0 0 0.1165 0 0
          0.126 0 0 0.1355 0 0 0.145 0 0 0.1545 0 0
          0.164 0 0 0.1735 0 0 0.183 0 0 0.1925 0 0
          0.202 0 0 0.2115 0 0 0.221 0 0 0.2305 0 0
          0.24 0 0 0.2495 0 0 0.259 0 0 0.2685 0 0
          0.278 0 0 0.2875 0 0 0.297 0 0 0.3065 0 0
          0.316 0 0 0.3255 0 0 0.335 0 0 0.3445 0 0
          0.354 0 0 0.3635 0 0 0.373 0 0 0.3825 0 0
          0.392 0 0 0.4015 0 0 0.411 0 0 0.4205 0 0
          0.43 0 0 0.4395 0 0 0.449 0 0 0.4585 0 0
          0.468 0 0 0.4775 0 0 0.487 0 0 0.4965 0 0
          0.506 0 0 0.5155 0 0 0.525 0 0 0.5345 0 0
          0.544 0 0 0.5535 0 0 0.563 0 0 0.5725 0 0
          0.582 0 0 0.5915 0 0 0.601 0 0 0.6105 0 0
          0.62 0 0 0.6295 0 0 0.639 0 0 0.6485 0 0
          0.658 0 0 0.6675 0 0 0.677 0 0 0.6865 0 0
          0.696 0 0 0.7055 0 0 0.715 0 0 0.7245 0 0
          0.734 0 0 0.7435 0 0 0.753 0 0 0.7625 0 0
          0.772 0 0 0.7815 0 0 0.791 0 0 0.8005 0 0
          0.81 0 0 0.8195 0 0 0.829 0 0 0.8385 0 0
          0.848 0 0 0.8575 0 0 0.867 0 0 0.8765 0 0
          0.886 0 0 0.8955 0 0 0.905 0 0 0.9145 0 0
          0.924 0 0 0.9335 0 0 0.943 0 0 0.9525 0 0
          0.962 0 0 0.9715 0 0 0.981 0 0 0.9905 0 0
          1 0 0
        </DataArray>
      </Points>
      <Lines>
        <DataArray type="Int32" Name="connectivity" NumberOfComponents="1" format="ascii">
          0 1 1 2 2 3 3 4 4 5 5 6
          6 7 7 8 8 9 9 10 10 11 11 12
          12 13 13 14 14 15 15 16 16 17 17 18
          18 19 19 20 20 21 21 22 22 23 23 24
          24 25 25 26 26 27 27 28 28 29 29 30
          30 31 31 32 32 33 33 34 34 35 35 36
          36 37 37 38 38 39 39 40 40 41 41 42
          42 43 43 44 44 45 45 46 46 47 47 48
          48 49 49 50 50 51 51 52 52 53 53 54
          54 55 55 56 56 57 57 58 58 59 59 60
          60 61 61 62 62 63 63 64 64 65 65 66
          66 67 67 68 68 69 69 70 70 71 71 72
          72 73 73 74 74 75 75 76 76 77 77 78
          78 79 79 80 80 81 81 82 82 83 83 84
          84 85 85 86 86 87 87 88 88 89 89 90
          90 91 91 92 92 93 93 94 94 95 95 96
          96 97 97 98 98 99 99 100
        </DataArray>
        <DataArray type="Int32" Name="offsets" NumberOfComponents="1" format="ascii">
          2 4 6 8 10 12 14 16 18 20 22 24
          26 28 30 32 34 36 38 40 42 44 46 48
          50 52 54 56 58 60 62 64 66 68 70 72
          74 76 78 80 82 84 86 88 90 92 94 96
          98 100 102 104 106 108 110 112 114 116 118 120
          122 124 126 128 130 132 134 136 138 140 142 144
          146 148 150 152 154 156 158 160 162 164 166 168
          170 172 174 176 178 180 182 184 186 188 190 192
          194 196 198 200
        </DataArray>
      </Lines>
    </Piece>
  </PolyData>
</VTKFile>
