<?xml version="1.0"?>
<VTKFile type="UnstructuredGrid" version="0.1" byte_order="LittleEndian">
  <UnstructuredGrid>
    <Piece NumberOfCells="120" NumberOfPoints="144">
      <PointData Scalars="S_aq">
        <DataArray type="Float32" Name="S_aq" NumberOfComponents="1" format="ascii">
          0.342637 0.335912 0.190107 0.187522 0.278023 0.17758 0.198857 0.131653 0.126972 0.120626 0.120051 0.120052
          0.120004 0.120004 0.12 0.12 0.12 0.12 0.12 0.12 0.12 0.12 0.12 0.12
          0.12 0.12 0.12 0.12 0.12 0.12 0.12 0.12 0.18493 0.178994 0.177934 0.134206
          0.120787 0.120064 0.120005 0.12 0.12 0.12 0.119999 0.119999 0.119999 0.119999 0.119999 0.12
          0.183411 0.173138 0.176092 0.145995 0.121163 0.120078 0.120006 0.12 0.12 0.119999 0.119999 0.119999
          0.119999 0.119999 0.119999 0.12 0.181472 0.200029 0.137653 0.120092 0.120003 0.120001 0.12 0.12
          0.12 0.12 0.12 0.12 0.12 0.12 0.12 0.12 0.176605 0.195348 0.140073 0.120023
          0.120001 0.12 0.12 0.12 0.12 0.120001 0.12 0.12 0.12 0.12 0.12 0.12
          0.168747 0.177237 0.136938 0.120211 0.120003 0.12 0.12 0.12 0.12 0.120001 0.120001 0.120001
          0.120001 0.120001 0.120001 0.12 0.160371 0.152205 0.1847 0.152816 0.121549 0.120109 0.120009 0.12
          0.12 0.119999 0.12 0.12 0.12 0.12 0.12 0.12 0.148304 0.154534 0.160035 0.13526
          0.121537 0.120142 0.120014 0.120001 0.12 0.12 0.12 0.12 0.12 0.12 0.12 0.12
        </DataArray>
        <DataArray type="Float32" Name="p_aq" NumberOfComponents="1" format="ascii">
          99801.3 99784.7 99641.3 99624.2 99735.1 99586.7 99631.1 99227.9 99076.2 98851.7 98827.7 98826.7
          98821.2 98820.1 98816.2 98815.1 98811.4 98810.3 98806.8 98805.6 98802.9 98801.2 98800.3 98798.2
          87652.7 87649.5 87640.9 87638.7 87631.6 87630.5 87622.4 87622.4 99630 99602.8 99587.8 99281.4
          98856.5 98826.1 98819.1 98814 98809 98804.1 98799 98792.9 98783.9 98776.1 98769 98762.2
          99629.6 99588 99582.6 99425.6 98868.7 98825.5 98818 98812.9 98807.8 98802.6 98797 98790.3
          98782.6 98773.8 98767.6 98762.2 99628.9 99663.4 92733 87727.6 87689.2 87682.4 87677 87671.7
          87666.3 87660.7 87654.6 87647.4 87637.5 98769 98766.2 98762.2 99617.4 99656.5 88825.1 83095.6
          83079.4 83072.5 83066.6 83061 83055.8 87657.9 87651.5 87644 87634 98767.3 98765.2 98762.2
          99589.7 99610 88359.5 83166.5 83078.5 83070.4 83063.9 83057.7 83051.8 87655.4 87649.2 87642.5
          87634.1 98767.1 98765.1 98762.2 99551.4 99495.7 99318.8 99083.5 98424.7 98362.2 98352 98345.2
          98338.9 98793.2 98787.3 98781.2 98775.4 98769.1 98765.2 98762.2 99478.1 99507.4 99522.4 99297.8
          98878.5 98822.8 98811.9 98805.1 98798.7 98792.4 98786.2 98780.2 98774.3 98768.8 98764.7 98762.2
        </DataArray>
        <DataArray type="Float32" Name="rho_aq" NumberOfComponents="1" format="ascii">
          974.281 977.585 974.258 976.625 989.117 987.935 996.668 996.704 998.086 998.088 998.217 998.217
          998.228 998.228 998.229 998.229 998.229 998.229 998.229 998.229 998.229 998.229 998.229 998.229
          998.224 998.224 998.224 998.224 998.224 998.224 998.224 998.224 974.266 976.874 986.937 996.374
          998.058 998.214 998.228 998.229 998.229 998.229 998.229 998.229 998.229 998.229 998.229 998.229
          974.294 978.109 985.941 995.927 998.026 998.213 998.229 998.231 998.231 998.231 998.231 998.23
          998.23 998.23 998.23 998.229 974.325 979.573 997.111 998.123 998.228 998.242 998.243 998.242
          998.24 998.237 998.234 998.232 998.23 998.231 998.232 998.229 974.336 980.121 997.323 998.221
          998.258 998.261 998.261 998.261 998.261 998.251 998.245 998.242 998.242 998.25 998.254 998.229
          974.308 979.267 997.155 998.133 998.242 998.259 998.261 998.261 998.261 998.259 998.255 998.254
          998.255 998.267 998.266 998.229 974.276 977.626 986.732 995.797 998.015 998.243 998.266 998.268
          998.268 998.268 998.268 998.267 998.267 998.268 998.267 998.229 974.255 976.394 984.974 995.373
          997.957 998.237 998.266 998.269 998.269 998.269 998.269 998.269 998.269 998.269 998.268 998.229
        </DataArray>
        <DataArray type="Float32" Name="x^H2O_aq" NumberOfComponents="1" format="ascii">
          0.999994 0.999993 0.999994 0.999994 0.99999 0.999991 0.999987 0.999987 0.999985 0.999985 0.999985 0.999985
          0.999985 0.999985 0.999985 0.999985 0.999985 0.999985 0.999985 0.999985 0.999985 0.999985 0.999985 0.999985
          0.999985 0.999985 0.999985 0.999985 0.999985 0.999985 0.999985 0.999985 0.999994 0.999994 0.999991 0.999987
          0.999985 0.999985 0.999985 0.999985 0.999985 0.999985 0.999985 0.999985 0.999985 0.999985 0.999985 0.999985
          0.999994 0.999993 0.999991 0.999987 0.999985 0.999985 0.999985 0.999985 0.999985 0.999985 0.999985 0.999985
          0.999985 0.999985 0.999985 0.999985 0.999994 0.999993 0.999984 0.999982 0.999982 0.999982 0.999982 0.999982
          0.999983 0.999983 0.999983 0.999984 0.999984 0.999985 0.999985 0.999985 0.999994 0.999993 0.999977 0.999978
          0.999978 0.999978 0.999978 0.999978 0.999978 0.99998 0.999982 0.999982 0.999982 0.999982 0.999981 0.999985
          0.999994 0.999993 0.999977 0.999978 0.999978 0.999978 0.999978 0.999978 0.999978 0.999979 0.99998 0.99998
          0.99998 0.999978 0.999979 0.999985 0.999994 0.999993 0.99994 0.999974 0.999978 0.999978 0.999978 0.999978
          0.999978 0.999978 0.999978 0.999978 0.999978 0.999978 0.999978 0.999985 0.999994 0.999994 0.999983 0.999978
          0.999978 0.999978 0.999978 0.999978 0.999978 0.999978 0.999978 0.999978 0.999978 0.999978 0.999978 0.999985
        </DataArray>
        <DataArray type="Float32" Name="x^mesitylene_aq" NumberOfComponents="1" format="ascii">
          1.95155e-12 1.16462e-10 1.64102e-11 1.05611e-09 7.32517e-10 3.66706e-09 1.34045e-09 5.728e-09 1.78738e-09 6.61465e-09 1.97114e-09 7.06651e-09
          2.05844e-09 7.25073e-09 2.13571e-09 7.36654e-09 2.21293e-09 7.41319e-09 2.2887e-09 7.26732e-09 2.36214e-09 6.70282e-09 2.46984e-09 5.61668e-09
          4.27931e-09 7.29427e-09 5.99859e-09 9.01404e-09 6.24942e-09 8.83935e-09 3.02334e-09 3.02334e-09 6.48826e-11 6.31119e-09 1.63879e-08 2.46101e-08
          2.83846e-08 3.08257e-08 3.2084e-08 3.28529e-08 3.29487e-08 3.13024e-08 2.58525e-08 1.74898e-08 1.79607e-08 1.84593e-08 1.90161e-08 3.02334e-09
          1.41062e-10 2.04553e-08 5.55573e-08 1.06345e-07 1.43506e-07 1.70424e-07 1.92102e-07 2.09957e-07 2.20601e-07 2.17681e-07 1.95423e-07 1.67974e-07
          1.60511e-07 1.43979e-07 1.37011e-07 3.02334e-09 2.16435e-10 3.67336e-08 2.22414e-06 3.30057e-06 3.49084e-06 3.40888e-06 3.25646e-06 3.06561e-06
          2.7397e-06 2.29101e-06 1.76134e-06 1.36208e-06 1.05337e-06 2.0455e-07 4.21091e-07 3.02334e-09 3.65488e-10 5.27006e-08 9.18334e-06 6.99916e-06
          6.90944e-06 6.90325e-06 6.90256e-06 6.90238e-06 6.90226e-06 4.80985e-06 3.77135e-06 3.20196e-06 3.09682e-06 3.66427e-06 4.54379e-06 3.02334e-09
          5.6934e-10 1.29183e-07 9.62525e-06 7.21591e-06 6.94742e-06 6.90732e-06 6.90298e-06 6.90256e-06 6.90255e-06 6.11713e-06 5.47423e-06 5.23425e-06
          5.5184e-06 6.78995e-06 6.72185e-06 3.02334e-09 7.26043e-10 1.2013e-07 5.1635e-05 1.32342e-05 7.53299e-06 6.96271e-06 6.90779e-06 6.90267e-06
          6.9018e-06 6.89531e-06 6.88526e-06 6.8755e-06 6.86852e-06 6.86788e-06 6.80927e-06 3.02334e-09 7.84456e-10 1.46094e-07 8.21966e-06 9.54112e-06
          7.66812e-06 6.97754e-06 6.90778e-06 6.90108e-06 6.90052e-06 6.89974e-06 6.89854e-06 6.89679e-06 6.89435e-06 6.89074e-06 6.83038e-06 3.02334e-09
        </DataArray>
        <DataArray type="Float32" Name="x^Air_aq" NumberOfComponents="1" format="ascii">
          5.66494e-06 6.57349e-06 5.65845e-06 6.31405e-06 9.58639e-06 9.24382e-06 1.30866e-05 1.31163e-05 1.45446e-05 1.45477e-05 1.47278e-05 1.4727e-05
          1.47431e-05 1.47429e-05 1.47437e-05 1.47435e-05 1.47431e-05 1.47429e-05 1.47424e-05 1.47422e-05 1.47418e-05 1.47415e-05 1.47414e-05 1.47411e-05
          1.47402e-05 1.47397e-05 1.47384e-05 1.47381e-05 1.4737e-05 1.47368e-05 1.47356e-05 1.47356e-05 5.66068e-06 6.38199e-06 8.96892e-06 1.28496e-05
          1.45056e-05 1.4723e-05 1.47423e-05 1.47432e-05 1.47426e-05 1.47419e-05 1.47412e-05 1.47403e-05 1.4739e-05 1.47379e-05 1.47367e-05 1.47356e-05
          5.66915e-06 6.70894e-06 8.70292e-06 1.25227e-05 1.4461e-05 1.472e-05 1.47416e-05 1.47426e-05 1.47418e-05 1.4741e-05 1.47402e-05 1.47393e-05
          1.47382e-05 1.47369e-05 1.47359e-05 1.47356e-05 5.67836e-06 7.09127e-06 1.34484e-05 1.45626e-05 1.47057e-05 1.47257e-05 1.47276e-05 1.47279e-05
          1.47288e-05 1.47301e-05 1.47318e-05 1.47327e-05 1.47328e-05 1.47362e-05 1.47345e-05 1.47356e-05 5.68169e-06 7.22845e-06 1.35902e-05 1.46545e-05
          1.4707e-05 1.47097e-05 1.47092e-05 1.47084e-05 1.47076e-05 1.47168e-05 1.47212e-05 1.4723e-05 1.47221e-05 1.47179e-05 1.47125e-05 1.47356e-05
          5.67342e-06 7.01295e-06 1.34187e-05 1.45287e-05 1.46839e-05 1.47071e-05 1.47087e-05 1.4708e-05 1.47071e-05 1.471e-05 1.47123e-05 1.47125e-05
          1.47097e-05 1.47017e-05 1.47013e-05 1.47356e-05 5.66399e-06 6.58414e-06 8.66071e-06 1.23302e-05 1.43532e-05 1.46736e-05 1.47056e-05 1.47077e-05
          1.47073e-05 1.47055e-05 1.47042e-05 1.47032e-05 1.47024e-05 1.47017e-05 1.47011e-05 1.47356e-05 5.65774e-06 6.25084e-06 8.41549e-06 1.20873e-05
          1.42815e-05 1.46645e-05 1.47055e-05 1.47085e-05 1.47079e-05 1.4707e-05 1.4706e-05 1.4705e-05 1.47041e-05 1.47032e-05 1.47022e-05 1.47356e-05
        </DataArray>
        <DataArray type="Float32" Name="S_napl" NumberOfComponents="1" format="ascii">
          0 0 0 0 0 0 0 0 0 0 0 0
          0 0 0 0 0 0 0 0 0 0 0 0
          0 0 0 0 0 0 0 0 0 0 0 0
          0 0 0 0 0 0 0 0 0 0 0 0
          0 0 0 0 0 0 0 0 0 0 0 0
          0 0 0 0 0 0 0 0 0 0 0 0
          0 0 0 0 0 0 0 0 0 0 0.0700852 0.0699961
          0.0699763 0.0699746 0.0699716 0.0699672 0.0699517 0 0 0 0 0 0 0
          0 0 0.0701763 0.0700843 0.0700082 0.0700008 0.0700001 0.07 0.0699915 0 0 0
          0 0 0 0 0 0 0.0527306 0.0798209 0.0710672 0.0700735 0.0699819 0.069973
          0.0699506 0 0 0 0 0 0 0 0 0 0 0
          9.68945e-05 5.27586e-05 4.41947e-06 2.84183e-07 5.74185e-10 0 0 0 0 0 0 0
        </DataArray>
        <DataArray type="Float32" Name="p_napl" NumberOfComponents="1" format="ascii">
          99801.3 99784.7 99641.3 99624.2 99735.1 99586.7 99631.1 99227.9 99076.2 98851.7 98827.7 98826.7
          98821.2 98820.1 98816.2 98815.1 98811.4 98810.3 98806.8 98805.6 98802.9 98801.2 98800.3 98798.2
          87652.7 87649.5 87640.9 87638.7 87631.6 87630.5 87622.4 87622.4 99630 99602.8 99587.8 99281.4
          98856.5 98826.1 98819.1 98814 98809 98804.1 98799 98792.9 98783.9 98776.1 98769 98762.2
          99629.6 99588 99582.6 99425.6 98868.7 98825.5 98818 98812.9 98807.8 98802.6 98797 98790.3
          98782.6 98773.8 98767.6 98762.2 99628.9 99663.4 92733 87727.6 87689.2 87682.4 87677 87671.7
          87666.3 87660.7 87654.6 87647.4 87637.5 98769 98766.2 98762.2 99617.4 99656.5 95865.8 95464.3
          95452.6 95445.6 95439.2 95432.8 95424.8 87657.9 87651.5 87644 87634 98767.3 98765.2 98762.2
          99589.7 99610 95812.7 95469.8 95454.9 95447.9 95441.5 95435.3 95427.9 87655.4 87649.2 87642.5
          87634.1 98767.1 98765.1 98762.2 99551.4 99495.7 99675.7 99680.2 99607.9 99596.1 99589.1 99582.5
          99575.8 98793.2 98787.3 98781.2 98775.4 98769.1 98765.2 98762.2 99478.1 99507.4 99522.4 99297.8
          98878.5 98822.8 98811.9 98805.1 98798.7 98792.4 98786.2 98780.2 98774.3 98768.8 98764.7 98762.2
        </DataArray>
        <DataArray type="Float32" Name="rho_napl" NumberOfComponents="1" format="ascii">
          822.69 827.646 822.657 826.189 847.377 845.097 865.221 865.332 870.08 870.09 870.622 870.62
          870.669 870.669 870.673 870.673 870.673 870.673 870.673 870.673 870.673 870.673 870.673 870.673
          870.673 870.673 870.673 870.673 870.673 870.673 870.673 870.673 822.668 826.564 843.235 864.317
          869.964 870.61 870.668 870.673 870.673 870.673 870.673 870.673 870.674 870.673 870.673 870.673
          822.71 828.462 841.435 863.013 869.831 870.603 870.669 870.674 870.674 870.674 870.674 870.674
          870.674 870.674 870.673 870.673 822.755 830.745 866.557 870.18 870.608 870.667 870.673 870.673
          870.673 870.673 870.673 870.673 870.673 870.674 870.674 870.673 822.771 831.622 867.162 870.505
          870.661 870.672 870.673 870.673 870.673 870.672 870.673 870.673 870.673 870.672 870.67 870.673
          822.73 830.258 866.57 870.136 870.595 870.665 870.672 870.673 870.673 870.673 870.673 870.673
          870.672 870.671 870.669 870.673 822.683 827.71 842.333 862.449 869.614 870.568 870.664 870.673
          870.674 870.672 870.67 870.67 870.67 870.671 870.67 870.673 822.652 825.839 839.625 861.33
          869.396 870.543 870.664 870.675 870.676 870.677 870.676 870.676 870.676 870.676 870.674 870.673
        </DataArray>
        <DataArray type="Float32" Name="x^H2O_napl" NumberOfComponents="1" format="ascii">
          1e-10 1e-10 1e-10 1e-10 1e-10 1e-10 1e-10 1e-10 1e-10 1e-10 1e-10 1e-10
          1e-10 1e-10 1e-10 1e-10 1e-10 1e-10 1e-10 1e-10 1e-10 1e-10 1e-10 1e-10
          1e-10 1e-10 1e-10 1e-10 1e-10 1e-10 1e-10 1e-10 1e-10 1e-10 1e-10 1e-10
          1e-10 1e-10 1e-10 1e-10 1e-10 1e-10 1e-10 1e-10 1e-10 1e-10 1e-10 1e-10
          1e-10 1e-10 1e-10 1e-10 1e-10 1e-10 1e-10 1e-10 1e-10 1e-10 1e-10 1e-10
          1e-10 1e-10 1e-10 1e-10 1e-10 1e-10 1e-10 1e-10 1e-10 1e-10 1e-10 1e-10
          1e-10 1e-10 1e-10 1e-10 1e-10 1e-10 1e-10 1e-10 1e-10 1e-10 1e-10 1e-10
          1e-10 1e-10 1e-10 1e-10 1e-10 1e-10 1e-10 1e-10 1e-10 1e-10 1e-10 1e-10
          1e-10 1e-10 1e-10 1e-10 1e-10 1e-10 1e-10 1e-10 1e-10 1e-10 1e-10 1e-10
          1e-10 1e-10 1e-10 1e-10 1e-10 1e-10 1e-10 1e-10 1e-10 1e-10 1e-10 1e-10
          1e-10 1e-10 1e-10 1e-10 1e-10 1e-10 1e-10 1e-10 1e-10 1e-10 1e-10 1e-10
          1e-10 1e-10 1e-10 1e-10 1e-10 1e-10 1e-10 1e-10 1e-10 1e-10 1e-10 1e-10
        </DataArray>
        <DataArray type="Float32" Name="x^mesitylene_napl" NumberOfComponents="1" format="ascii">
          1.28101e-08 9.85191e-07 1.07543e-07 8.28156e-06 1.94244e-05 8.41945e-05 0.000125265 0.000539945 0.000246548 0.000913135 0.000284372 0.00101931
          0.000298116 0.00105008 0.000309406 0.00106721 0.000320601 0.00107399 0.000331578 0.00105286 0.000342216 0.000971078 0.000357818 0.000813718
          0.00061996 0.00105675 0.000869037 0.0013059 0.000905377 0.00128059 0.000438002 0.000438002 4.25436e-07 5.04597e-05 0.000335326 0.00214423
          0.00387811 0.00444251 0.00464623 0.0047595 0.00477352 0.00453502 0.00374546 0.0025339 0.00260217 0.00267441 0.00275504 0.000438002
          9.26887e-07 0.00018063 0.00101915 0.00838605 0.0193938 0.0245479 0.027821 0.0304197 0.0319624 0.0315389 0.0283136 0.0243366
          0.0232552 0.0208601 0.01985 0.000438002 1.42537e-06 0.000366432 0.230822 0.45906 0.503001 0.493624 0.471776 0.444148
          0.39693 0.33192 0.255179 0.197335 0.152612 0.0296377 0.0610099 0.000438002 2.40891e-06 0.000551341 1 1
          1 1 1 1 1 0.696799 0.546375 0.463894 0.448666 0.530831 0.658138 0.000438002
          3.74467e-06 0.00125531 1 1 1 1 1 1 1 0.886204 0.793076 0.758306
          0.799443 0.983493 0.973534 0.000438002 4.7642e-06 0.00101964 1 1 1 1 1 1
          1 0.998856 0.997293 0.995848 0.994846 0.994808 0.986237 0.000438002 5.13953e-06 0.00112511 0.135376 0.662903
          1 1 1 1 1 0.999898 0.999703 0.999431 0.999063 0.998508 0.9896 0.000438002
        </DataArray>
        <DataArray type="Float32" Name="x^Air_napl" NumberOfComponents="1" format="ascii">
          1e-10 1e-10 1e-10 1e-10 1e-10 1e-10 1e-10 1e-10 1e-10 1e-10 1e-10 1e-10
          1e-10 1e-10 1e-10 1e-10 1e-10 1e-10 1e-10 1e-10 1e-10 1e-10 1e-10 1e-10
          1e-10 1e-10 1e-10 1e-10 1e-10 1e-10 1e-10 1e-10 1e-10 1e-10 1e-10 1e-10
          1e-10 1e-10 1e-10 1e-10 1e-10 1e-10 1e-10 1e-10 1e-10 1e-10 1e-10 1e-10
          1e-10 1e-10 1e-10 1e-10 1e-10 1e-10 1e-10 1e-10 1e-10 1e-10 1e-10 1e-10
          1e-10 1e-10 1e-10 1e-10 1e-10 1e-10 1e-10 1e-10 1e-10 1e-10 1e-10 1e-10
          1e-10 1e-10 1e-10 1e-10 1e-10 1e-10 1e-10 1e-10 1e-10 1e-10 1e-10 1e-10
          1e-10 1e-10 1e-10 1e-10 1e-10 1e-10 1e-10 1e-10 1e-10 1e-10 1e-10 1e-10
          1e-10 1e-10 1e-10 1e-10 1e-10 1e-10 1e-10 1e-10 1e-10 1e-10 1e-10 1e-10
          1e-10 1e-10 1e-10 1e-10 1e-10 1e-10 1e-10 1e-10 1e-10 1e-10 1e-10 1e-10
          1e-10 1e-10 1e-10 1e-10 1e-10 1e-10 1e-10 1e-10 1e-10 1e-10 1e-10 1e-10
          1e-10 1e-10 1e-10 1e-10 1e-10 1e-10 1e-10 1e-10 1e-10 1e-10 1e-10 1e-10
        </DataArray>
        <DataArray type="Float32" Name="S_gas" NumberOfComponents="1" format="ascii">
          0.657363 0.664088 0.809893 0.812478 0.721977 0.82242 0.801143 0.868347 0.873028 0.879374 0.879949 0.879948
          0.879996 0.879996 0.88 0.88 0.88 0.88 0.88 0.88 0.88 0.88 0.88 0.88
          0.88 0.88 0.88 0.88 0.88 0.88 0.88 0.88 0.81507 0.821006 0.822066 0.865794
          0.879213 0.879936 0.879995 0.88 0.88 0.88 0.88 0.880001 0.880001 0.880001 0.880001 0.88
          0.816589 0.826862 0.823908 0.854005 0.878837 0.879922 0.879994 0.88 0.88 0.880001 0.880001 0.880001
          0.880001 0.880001 0.880001 0.88 0.818528 0.799971 0.862347 0.879908 0.879997 0.879999 0.88 0.88
          0.88 0.88 0.88 0.88 0.88 0.88 0.88 0.88 0.823395 0.804652 0.789842 0.809981
          0.810023 0.810025 0.810028 0.810033 0.810048 0.879999 0.88 0.88 0.88 0.88 0.88 0.88
          0.831253 0.822763 0.792886 0.809705 0.809988 0.809999 0.81 0.81 0.810009 0.879999 0.879999 0.879999
          0.879999 0.879999 0.879999 0.88 0.839629 0.847795 0.762569 0.767363 0.807384 0.809818 0.810009 0.810027
          0.81005 0.880001 0.88 0.88 0.88 0.88 0.88 0.88 0.851696 0.845466 0.839965 0.86474
          0.878366 0.879806 0.879982 0.879999 0.88 0.88 0.88 0.88 0.88 0.88 0.88 0.88
        </DataArray>
        <DataArray type="Float32" Name="p_gas" NumberOfComponents="1" format="ascii">
          100104 100091 100102 100091 100080 100080 100074 100073 100068 100067 100064 100063
          100059 100058 100054 100053 100049 100048 100045 100043 100041 100039 100038 100036
          100030 100027 100018 100016 100009 100008 100000 100000 100103 100092 100080 100072
          100067 100062 100057 100052 100047 100042 100037 100031 100022 100014 100007 100000
          100107 100095 100080 100071 100066 100061 100056 100051 100046 100040 100035 100028
          100020 100012 100005 100000 100111 100104 100084 100073 100066 100060 100054 100049
          100044 100038 100032 100025 100015 100007 100004 100000 100113 100106 100088 100074
          100066 100059 100053 100047 100041 100035 100029 100021 100012 100005 100003 100000
          100112 100104 100086 100073 100065 100058 100052 100045 100039 100033 100027 100020
          100011 100005 100003 100000 100108 100096 100082 100071 100063 100057 100050 100044
          100037 100031 100025 100019 100013 100007 100003 100000 100105 100094 100080 100070
          100062 100056 100049 100043 100036 100030 100024 100018 100012 100007 100002 100000
        </DataArray>
        <DataArray type="Float32" Name="rho_gas" NumberOfComponents="1" format="ascii">
          0.849128 0.894952 0.848794 0.881782 1.04207 1.02724 1.14837 1.14899 1.17581 1.17586 1.1788 1.17878
          1.179 1.179 1.17897 1.17896 1.17891 1.17891 1.17886 1.17885 1.17881 1.1788 1.17878 1.17876
          1.17869 1.17866 1.17855 1.17853 1.17844 1.17843 1.17833 1.17833 0.848911 0.885233 1.01479 1.14326
          1.17517 1.17874 1.17901 1.17898 1.17892 1.17886 1.1788 1.17871 1.17861 1.17852 1.17843 1.17833
          0.849352 0.901976 1.00239 1.13592 1.17456 1.17886 1.1792 1.17919 1.17915 1.17908 1.17899 1.17887
          1.17877 1.17865 1.17856 1.17833 0.849836 0.921603 1.15882 1.18049 1.18305 1.18322 1.183 1.1827
          1.18224 1.18161 1.18089 1.18031 1.17981 1.17867 1.1789 1.17833 0.850014 0.928726 1.17075 1.18691
          1.18758 1.18755 1.18749 1.18742 1.18735 1.18469 1.18333 1.18254 1.18229 1.18291 1.18396 1.17833
          0.849592 0.917687 1.16792 1.18508 1.18724 1.18751 1.18747 1.1874 1.18732 1.18628 1.18541 1.18503
          1.18528 1.18676 1.18665 1.17833 0.849102 0.895674 1.06592 1.14837 1.18241 1.18701 1.18741 1.18738
          1.18731 1.18721 1.18712 1.18703 1.18696 1.18689 1.18676 1.17833 0.848776 0.878767 0.99877 1.1375
          1.18133 1.18687 1.1874 1.18738 1.18731 1.18723 1.18716 1.18708 1.18701 1.18694 1.1868 1.17833
        </DataArray>
        <DataArray type="Float32" Name="x^H2O_gas" NumberOfComponents="1" format="ascii">
          0.402065 0.316623 0.402686 0.340377 0.109706 0.125194 0.0346216 0.0343486 0.0242825 0.0242664 0.0233609 0.0233643
          0.0232828 0.0232834 0.0232774 0.0232777 0.023278 0.0232782 0.0232791 0.0232793 0.02328 0.0232804 0.0232808 0.0232811
          0.0232827 0.0232834 0.0232855 0.0232859 0.0232876 0.0232878 0.0232898 0.0232898 0.402475 0.334099 0.139223 0.0368399
          0.02448 0.0233828 0.0232849 0.0232778 0.0232783 0.0232795 0.0232806 0.0232818 0.0232836 0.0232854 0.0232873 0.0232898
          0.40167 0.304573 0.154258 0.0403479 0.0247061 0.023394 0.0232838 0.0232763 0.0232771 0.0232786 0.0232803 0.0232819
          0.0232837 0.0232857 0.0232877 0.0232898 0.400798 0.271375 0.0313364 0.0241108 0.0233855 0.0232855 0.023277 0.0232773
          0.0232785 0.0232801 0.0232817 0.0232833 0.0232853 0.0232856 0.0232872 0.0232898 0.400488 0.259968 0.0300723 0.0235575
          0.0232948 0.023278 0.0232774 0.0232782 0.0232792 0.0232822 0.0232828 0.0232841 0.0232862 0.0232895 0.0232933 0.0232898
          0.40128 0.277998 0.0313019 0.0241852 0.0234075 0.0232904 0.023279 0.0232792 0.0232806 0.0232823 0.0232835 0.0232851
          0.0232878 0.0232926 0.0232951 0.0232898 0.402177 0.315664 0.146446 0.0419979 0.0250766 0.0234545 0.0232935 0.0232798
          0.0232788 0.0232844 0.023288 0.0232901 0.0232913 0.0232916 0.0232942 0.0232898 0.402771 0.346218 0.170003 0.0452693
          0.0254988 0.0234984 0.0232938 0.0232754 0.0232752 0.0232764 0.0232783 0.0232801 0.0232817 0.0232837 0.023288 0.0232898
        </DataArray>
        <DataArray type="Float32" Name="x^mesitylene_gas" NumberOfComponents="1" format="ascii">
          6.44825e-10 3.84858e-08 5.42231e-09 3.49002e-07 2.42093e-07 1.21195e-06 4.43041e-07 1.89322e-06 5.90789e-07 2.18639e-06 6.51561e-07 2.33586e-06
          6.8045e-07 2.39687e-06 7.06028e-07 2.43527e-06 7.3159e-07 2.45081e-06 7.56674e-07 2.4027e-06 7.80984e-07 2.21616e-06 8.16615e-07 1.8571e-06
          1.415e-06 2.412e-06 1.98373e-06 2.981e-06 2.06687e-06 2.92347e-06 1e-06 1e-06 2.14385e-08 2.08558e-06 5.41613e-06 8.1342e-06
          9.38224e-06 1.01896e-05 1.06061e-05 1.08608e-05 1.0893e-05 1.03493e-05 8.54785e-06 5.78314e-06 5.93938e-06 6.10475e-06 6.28933e-06 1e-06
          4.6608e-08 6.75939e-06 1.83614e-05 3.51497e-05 4.74351e-05 5.63354e-05 6.35042e-05 6.94103e-05 7.29327e-05 7.19711e-05 6.46156e-05 5.55436e-05
          5.30797e-05 4.7617e-05 4.53151e-05 1e-06 7.15087e-08 1.21374e-05 0.000735042 0.0010909 0.00115387 0.00112685 0.00107652 0.00101348
          0.000905786 0.000757486 0.000582395 0.000450408 0.000348359 6.76523e-05 0.000139274 1e-06 1.20752e-07 1.74128e-05 0.00303482 0.00231332
          0.00228386 0.00228197 0.00228188 0.00228195 0.00228205 0.00159035 0.00124705 0.00105885 0.00102419 0.00121193 0.00150286 1e-06
          1.88105e-07 4.26841e-05 0.00318092 0.00238499 0.00229644 0.00228334 0.00228205 0.00228205 0.00228219 0.00202264 0.00181018 0.00173094
          0.00182506 0.00224573 0.00222326 1e-06 2.39887e-07 3.96961e-05 0.0170648 0.00437427 0.00249004 0.00230168 0.00228367 0.00228212
          0.00228198 0.00227998 0.0022768 0.00227371 0.00227153 0.00227147 0.00225217 1e-06 2.59194e-07 4.82768e-05 0.00271655 0.00315362
          0.00253473 0.00230661 0.00228369 0.00228162 0.00228158 0.00228147 0.00228121 0.00228077 0.0022801 0.00227903 0.00225916 1e-06
        </DataArray>
        <DataArray type="Float32" Name="x^Air_gas" NumberOfComponents="1" format="ascii">
          0.597935 0.683377 0.597314 0.659623 0.890294 0.874804 0.965378 0.965649 0.975717 0.975731 0.976638 0.976633
          0.976717 0.976714 0.976722 0.97672 0.976721 0.976719 0.97672 0.976718 0.976719 0.976717 0.976718 0.976717
          0.976716 0.976714 0.976713 0.976711 0.97671 0.976709 0.976709 0.976709 0.597525 0.665899 0.860771 0.963152
          0.975511 0.976607 0.976704 0.976711 0.976711 0.97671 0.976711 0.976712 0.97671 0.976708 0.976706 0.976709
          0.59833 0.695421 0.845723 0.959617 0.975246 0.97655 0.976653 0.976654 0.97665 0.976649 0.976655 0.976663
          0.976663 0.976667 0.976667 0.976709 0.599201 0.728613 0.967929 0.974798 0.975461 0.975588 0.975646 0.975709
          0.975816 0.975962 0.976136 0.976266 0.976366 0.976647 0.976574 0.976709 0.599512 0.740014 0.966893 0.974129
          0.974421 0.97444 0.974441 0.97444 0.974439 0.975127 0.97547 0.975657 0.97569 0.975499 0.975204 0.976709
          0.598719 0.721959 0.965517 0.97343 0.974296 0.974426 0.974439 0.974439 0.974437 0.974695 0.974906 0.974984
          0.974887 0.974462 0.974482 0.976709 0.597823 0.684296 0.83649 0.953628 0.972433 0.974244 0.974423 0.974438
          0.974439 0.974436 0.974435 0.974436 0.974437 0.974437 0.974454 0.976709 0.597228 0.653734 0.827281 0.951577
          0.971966 0.974195 0.974423 0.974443 0.974443 0.974442 0.974441 0.974439 0.974438 0.974437 0.974453 0.976709
        </DataArray>
        <DataArray type="Float32" Name="porosity" NumberOfComponents="1" format="ascii">
          0.42 0.42 0.42 0.42 0.42 0.42 0.42 0.42 0.42 0.42 0.42 0.42
          0.42 0.42 0.42 0.42 0.42 0.42 0.42 0.42 0.42 0.42 0.42 0.42
          0.42 0.42 0.42 0.42 0.42 0.42 0.42 0.42 0.42 0.42 0.42 0.42
          0.42 0.42 0.42 0.42 0.42 0.42 0.42 0.42 0.42 0.42 0.42 0.42
          0.42 0.42 0.42 0.42 0.42 0.42 0.42 0.42 0.42 0.42 0.42 0.42
          0.42 0.42 0.42 0.42 0.42 0.42 0.42 0.42 0.42 0.42 0.42 0.42
          0.42 0.42 0.42 0.42 0.42 0.42 0.42 0.42 0.42 0.42 0.42 0.42
          0.42 0.42 0.42 0.42 0.42 0.42 0.42 0.42 0.42 0.42 0.42 0.42
          0.42 0.42 0.42 0.42 0.42 0.42 0.42 0.42 0.42 0.42 0.42 0.42
          0.42 0.42 0.42 0.42 0.42 0.42 0.42 0.42 0.42 0.42 0.42 0.42
          0.42 0.42 0.42 0.42 0.42 0.42 0.42 0.42 0.42 0.42 0.42 0.42
          0.42 0.42 0.42 0.42 0.42 0.42 0.42 0.42 0.42 0.42 0.42 0.42
        </DataArray>
        <DataArray type="Float32" Name="phase presence" NumberOfComponents="1" format="ascii">
          6 6 6 6 6 6 6 6 6 6 6 6
          6 6 6 6 6 6 6 6 6 6 6 6
          6 6 6 6 6 6 6 6 6 6 6 6
          6 6 6 6 6 6 6 6 6 6 6 6
          6 6 6 6 6 6 6 6 6 6 6 6
          6 6 6 6 6 6 6 6 6 6 6 6
          6 6 6 6 6 6 6 6 6 6 1 1
          1 1 1 1 1 6 6 6 6 6 6 6
          6 6 1 1 1 1 1 1 1 6 6 6
          6 6 6 6 6 6 1 1 1 1 1 1
          1 6 6 6 6 6 6 6 6 6 6 6
          1 1 1 1 1 6 6 6 6 6 6 6
        </DataArray>
        <DataArray type="Float32" Name="permeability" NumberOfComponents="1" format="ascii">
          9.14e-10 9.14e-10 9.14e-10 9.14e-10 9.14e-10 9.14e-10 9.14e-10 9.14e-10 9.14e-10 9.14e-10 9.14e-10 9.14e-10
          9.14e-10 9.14e-10 9.14e-10 9.14e-10 9.14e-10 9.14e-10 9.14e-10 9.14e-10 9.14e-10 9.14e-10 9.14e-10 9.14e-10
          6.28e-12 6.28e-12 6.28e-12 6.28e-12 6.28e-12 6.28e-12 6.28e-12 6.28e-12 9.14e-10 9.14e-10 9.14e-10 9.14e-10
          9.14e-10 9.14e-10 9.14e-10 9.14e-10 9.14e-10 9.14e-10 9.14e-10 9.14e-10 9.14e-10 9.14e-10 9.14e-10 9.14e-10
          9.14e-10 9.14e-10 9.14e-10 9.14e-10 9.14e-10 9.14e-10 9.14e-10 9.14e-10 9.14e-10 9.14e-10 9.14e-10 9.14e-10
          9.14e-10 9.14e-10 9.14e-10 9.14e-10 9.14e-10 9.14e-10 6.28e-12 6.28e-12 6.28e-12 6.28e-12 6.28e-12 6.28e-12
          6.28e-12 6.28e-12 6.28e-12 6.28e-12 6.28e-12 9.14e-10 9.14e-10 9.14e-10 9.14e-10 9.14e-10 6.28e-12 6.28e-12
          6.28e-12 6.28e-12 6.28e-12 6.28e-12 6.28e-12 6.28e-12 6.28e-12 6.28e-12 6.28e-12 9.14e-10 9.14e-10 9.14e-10
          9.14e-10 9.14e-10 6.28e-12 6.28e-12 6.28e-12 6.28e-12 6.28e-12 6.28e-12 6.28e-12 6.28e-12 6.28e-12 6.28e-12
          6.28e-12 9.14e-10 9.14e-10 9.14e-10 9.14e-10 9.14e-10 9.14e-10 9.14e-10 9.14e-10 9.14e-10 9.14e-10 9.14e-10
          9.14e-10 9.14e-10 9.14e-10 9.14e-10 9.14e-10 9.14e-10 9.14e-10 9.14e-10 9.14e-10 9.14e-10 9.14e-10 9.14e-10
          9.14e-10 9.14e-10 9.14e-10 9.14e-10 9.14e-10 9.14e-10 9.14e-10 9.14e-10 9.14e-10 9.14e-10 9.14e-10 9.14e-10
        </DataArray>
        <DataArray type="Float32" Name="T" NumberOfComponents="1" format="ascii">
          349.101 343.49 349.138 345.145 320.73 323.394 299.571 299.437 293.717 293.705 293.061 293.063
          293.005 293.005 293 293 293 293 293 293 293 293 293 293
          293 293 293 293 293 293 293 293 349.125 344.719 325.563 300.656
          293.857 293.076 293.006 293 293 293 293 292.999 292.999 292.999 292.999 293
          349.078 342.563 327.655 302.218 294.018 293.084 293.005 292.999 292.999 292.999 292.999 292.999
          292.999 292.999 292.999 293 349.027 339.961 297.966 293.596 293.079 293.007 293 292.999
          292.999 292.999 293 293 292.999 292.998 292.999 293 349.009 338.958 297.237 293.203
          293.014 293.001 293 293 292.999 293 293 293 292.999 293.001 293.003 293
          349.056 340.516 297.949 293.649 293.094 293.01 293.001 293 293 293 293 293
          293 293.003 293.004 293 349.109 343.418 326.613 302.893 294.281 293.126 293.011 293
          292.998 293.001 293.003 293.003 293.003 293.002 293.004 293 349.144 345.541 329.752 304.231
          294.543 293.158 293.011 292.997 292.996 292.996 292.996 292.996 292.996 292.997 292.999 293
        </DataArray>
      </PointData>
      <CellData Scalars="process rank">
        <DataArray type="Float32" Name="process rank" NumberOfComponents="1" format="ascii">