<?xml version="1.0"?>
<VTKFile type="UnstructuredGrid" version="0.1" byte_order="LittleEndian">
  <UnstructuredGrid>
    <Piece NumberOfCells="2272" NumberOfPoints="6816">
      <PointData Scalars="p">
        <DataArray type="Float32" Name="p" NumberOfComponents="1" format="ascii">
          0 1.11455e-14 8.15908e-15 8.15908e-15 0 0 1.70541e-14 8.15908e-15 1.11455e-14 2.2291e-14 1.70541e-14 1.11455e-14
          2.79548e-14 1.70541e-14 2.2291e-14 0 8.15908e-15 1.00945e-14 1.00945e-14 8.15908e-15 1.70541e-14 1.00945e-14 0 0
          1.70541e-14 2.79548e-14 2.21744e-14 1.00945e-14 1.70541e-14 2.21744e-14 2.79548e-14 3.315e-14 2.21744e-14 2.2291e-14 3.34365e-14 2.79548e-14
          4.45819e-14 3.90092e-14 3.34365e-14 3.90092e-14 2.79548e-14 3.34365e-14 4.99986e-14 4.45819e-14 5.57273e-14 4.99986e-14 3.90092e-14 4.45819e-14
          5.57273e-14 6.059e-14 4.99986e-14 3.315e-14 2.79548e-14 3.90092e-14 4.48552e-14 3.315e-14 3.90092e-14 3.90092e-14 4.99986e-14 4.48552e-14
          6.059e-14 5.51604e-14 4.99986e-14 4.99986e-14 5.51604e-14 4.48552e-14 1.00945e-14 7.3318e-15 0 1.6671e-14 7.3318e-15 1.00945e-14
          1.00945e-14 2.21744e-14 1.6671e-14 2.21744e-14 3.315e-14 2.7612e-14 2.21744e-14 2.7612e-14 1.6671e-14 0 7.3318e-15 0
          9.89352e-15 7.3318e-15 1.6671e-14 0 7.3318e-15 9.89352e-15 2.19062e-14 1.6671e-14 2.7612e-14 1.6671e-14 2.19062e-14 9.89352e-15
          4.48552e-14 3.6937e-14 3.315e-14 3.315e-14 3.6937e-14 2.7612e-14 4.48552e-14 5.51604e-14 5.44487e-14 4.49285e-14 3.6937e-14 4.48552e-14
          4.48552e-14 5.44487e-14 4.49285e-14 2.7612e-14 3.6937e-14 3.41392e-14 2.19062e-14 2.7612e-14 3.41392e-14 3.41392e-14 3.6937e-14 4.49285e-14
          5.44489e-14 4.49285e-14 5.44487e-14 6.059e-14 5.57273e-14 6.68727e-14 6.68727e-14 7.14566e-14 6.059e-14 7.14566e-14 6.68727e-14 7.80179e-14
          8.34982e-14 7.80179e-14 8.91631e-14 8.34982e-14 7.14566e-14 7.80179e-14 6.49497e-14 6.059e-14 7.14566e-14 6.49497e-14 5.51604e-14 6.059e-14
          8.34982e-14 7.54483e-14 7.14566e-14 7.14566e-14 7.54483e-14 6.49497e-14 8.34052e-14 7.54483e-14 8.34982e-14 8.91631e-14 1.00308e-13 9.56054e-14
          8.91631e-14 9.56054e-14 8.34982e-14 1.00308e-13 1.11453e-13 1.06343e-13 1.06343e-13 9.56054e-14 1.00308e-13 9.56054e-14 9.14453e-14 8.34982e-14
          8.34982e-14 9.14453e-14 8.34052e-14 1.01844e-13 9.14453e-14 9.56054e-14 9.56054e-14 1.06343e-13 1.01844e-13 1.01844e-13 1.06343e-13 1.13884e-13
          5.44487e-14 5.51604e-14 6.49497e-14 6.41348e-14 5.44487e-14 6.49497e-14 6.49497e-14 7.39321e-14 6.41348e-14 6.49497e-14 7.54483e-14 7.39321e-14
          7.39321e-14 7.54483e-14 8.34052e-14 6.41348e-14 5.44489e-14 5.44487e-14 8.34052e-14 8.33742e-14 7.39321e-14 6.41348e-14 7.39321e-14 7.37771e-14
          7.37771e-14 7.39321e-14 8.33742e-14 8.34052e-14 9.14453e-14 9.2874e-14 9.2874e-14 9.14453e-14 1.01844e-13 1.01844e-13 1.13884e-13 1.1224e-13
          1.02689e-13 9.2874e-14 1.01844e-13 1.1224e-13 1.02689e-13 1.01844e-13 9.2874e-14 8.33742e-14 8.34052e-14 8.33742e-14 9.2874e-14 9.30539e-14
          1.02689e-13 9.30539e-14 9.2874e-14 1.02689e-13 1.1224e-13 1.12362e-13 9.89352e-15 0 0 9.89352e-15 6.92872e-15 0
          3.41392e-14 2.67111e-14 2.19062e-14 9.89352e-15 2.19062e-14 1.64378e-14 2.19062e-14 2.67111e-14 1.64378e-14 0 6.92872e-15 0
          1.64378e-14 6.92872e-15 9.89352e-15 8.31222e-15 0 6.92872e-15 8.31222e-15 6.92872e-15 1.64378e-14 2.67111e-14 2.57293e-14 1.64378e-14
          3.41392e-14 4.49285e-14 4.47966e-14 3.5343e-14 2.67111e-14 3.41392e-14 4.47966e-14 3.5343e-14 3.41392e-14 4.49285e-14 5.44489e-14 4.47966e-14
          5.44491e-14 4.47966e-14 5.44489e-14 4.47966e-14 4.47968e-14 3.5343e-14 2.57293e-14 2.67111e-14 3.5343e-14 4.47966e-14 5.44491e-14 4.47968e-14
          1.64378e-14 1.6588e-14 8.31222e-15 0 8.31222e-15 0 8.31222e-15 1.6588e-14 9.90794e-15 1.64378e-14 2.57293e-14 1.6588e-14
          2.52886e-14 1.6588e-14 2.57293e-14 9.90794e-15 0 8.31222e-15 0 0 9.90794e-15 2.52886e-14 1.7659e-14 1.6588e-14
          1.6588e-14 1.7659e-14 9.90794e-15 9.90794e-15 1.7659e-14 1.93048e-14 1.93048e-14 1.7659e-14 2.52886e-14 3.5343e-14 3.51776e-14 2.57293e-14
          3.51776e-14 3.5343e-14 4.47968e-14 2.57293e-14 3.51776e-14 2.52886e-14 4.48171e-14 3.51776e-14 4.47968e-14 5.44492e-14 4.47968e-14 5.44491e-14
          4.47968e-14 5.44492e-14 4.48171e-14 3.51776e-14 3.5621e-14 2.52886e-14 3.51776e-14 4.48171e-14 3.5621e-14 3.5621e-14 2.8205e-14 2.52886e-14
          4.48724e-14 3.5621e-14 4.48171e-14 5.4462e-14 4.48171e-14 5.44492e-14 4.48171e-14 5.4462e-14 4.48724e-14 5.44489e-14 6.41348e-14 6.41108e-14
          7.37771e-14 6.41108e-14 6.41348e-14 6.41108e-14 5.44491e-14 5.44489e-14 8.33742e-14 8.34e-14 7.37771e-14 7.37771e-14 7.37537e-14 6.41108e-14
          7.37537e-14 7.37771e-14 8.34e-14 5.44491e-14 6.41108e-14 6.41015e-14 6.41015e-14 6.41108e-14 7.37537e-14 7.37537e-14 8.34e-14 8.34053e-14
          8.34e-14 8.33742e-14 9.30539e-14 9.30539e-14 9.30559e-14 8.34e-14 1.02707e-13 9.30559e-14 9.30539e-14 9.30539e-14 1.02689e-13 1.02707e-13
          1.02707e-13 1.02689e-13 1.12362e-13 1.12362e-13 1.12362e-13 1.02707e-13 9.30559e-14 8.34053e-14 8.34e-14 9.30559e-14 1.02707e-13 1.0271e-13
          1.12362e-13 1.0271e-13 1.02707e-13 5.44492e-14 5.44491e-14 6.41015e-14 6.41018e-14 5.44492e-14 6.41015e-14 6.41018e-14 6.41015e-14 7.37541e-14
          7.37537e-14 7.37541e-14 6.41015e-14 8.34053e-14 7.37541e-14 7.37537e-14 7.37541e-14 8.34053e-14 8.34065e-14 5.44492e-14 6.41018e-14 5.4462e-14
          6.4102e-14 5.4462e-14 6.41018e-14 6.4102e-14 6.41018e-14 7.37544e-14 6.41018e-14 7.37541e-14 7.37544e-14 8.34065e-14 7.37544e-14 7.37541e-14
          7.37544e-14 8.34065e-14 8.34071e-14 8.34053e-14 9.30559e-14 9.30589e-14 1.0271e-13 9.30589e-14 9.30559e-14 8.34065e-14 8.34053e-14 9.30589e-14
          1.0271e-13 1.12362e-13 1.12364e-13 9.30589e-14 1.0271e-13 1.02712e-13 1.12364e-13 1.02712e-13 1.0271e-13 9.30589e-14 9.30595e-14 8.34065e-14
          9.30589e-14 1.02712e-13 9.30595e-14 9.30595e-14 8.34071e-14 8.34065e-14 1.12364e-13 1.12365e-13 1.02712e-13 1.02712e-13 1.02712e-13 9.30595e-14
          1.02712e-13 1.02712e-13 1.12365e-13 1.22597e-13 1.17213e-13 1.11453e-13 1.06343e-13 1.11453e-13 1.17213e-13 1.17213e-13 1.22597e-13 1.28169e-13
          1.33741e-13 1.28169e-13 1.22597e-13 1.44885e-13 1.39114e-13 1.33741e-13 1.28169e-13 1.33741e-13 1.39114e-13 1.17213e-13 1.13884e-13 1.06343e-13
          1.13884e-13 1.17213e-13 1.23541e-13 1.28169e-13 1.23541e-13 1.17213e-13 1.23541e-13 1.22126e-13 1.13884e-13 1.33061e-13 1.23541e-13 1.28169e-13
          1.39114e-13 1.33061e-13 1.28169e-13 1.39114e-13 1.43309e-13 1.33061e-13 1.22126e-13 1.23541e-13 1.33061e-13 1.56027e-13 1.49873e-13 1.44885e-13
          1.39114e-13 1.44885e-13 1.49873e-13 1.61152e-13 1.56027e-13 1.67169e-13 1.61152e-13 1.49873e-13 1.56027e-13 1.67169e-13 1.7305e-13 1.61152e-13
          1.49873e-13 1.43309e-13 1.39114e-13 1.52119e-13 1.43309e-13 1.49873e-13 1.52119e-13 1.49873e-13 1.61152e-13 1.61152e-13 1.60798e-13 1.52119e-13
          1.61152e-13 1.6903e-13 1.60798e-13 1.1224e-13 1.13884e-13 1.22126e-13 1.33061e-13 1.31664e-13 1.22126e-13 1.31664e-13 1.33061e-13 1.42379e-13
          1.1224e-13 1.22126e-13 1.22013e-13 1.22013e-13 1.22126e-13 1.31664e-13 1.22013e-13 1.12362e-13 1.1224e-13 1.42379e-13 1.41526e-13 1.31664e-13
          1.31666e-13 1.22013e-13 1.31664e-13 1.41526e-13 1.31666e-13 1.31664e-13 1.33061e-13 1.43309e-13 1.42379e-13 1.42379e-13 1.43309e-13 1.52119e-13
          1.52119e-13 1.51159e-13 1.42379e-13 1.51159e-13 1.52119e-13 1.60798e-13 1.60798e-13 1.6903e-13 1.7163e-13 1.41526e-13 1.42379e-13 1.51159e-13
          1.51159e-13 1.50969e-13 1.41526e-13 1.60798e-13 1.60618e-13 1.51159e-13 1.60618e-13 1.60798e-13 1.7163e-13 1.50969e-13 1.51159e-13 1.60618e-13
          1.67169e-13 1.78309e-13 1.7305e-13 1.83931e-13 1.7305e-13 1.78309e-13 1.78309e-13 1.89447e-13 1.83931e-13 2.00582e-13 1.95016e-13 1.89447e-13
          1.95016e-13 1.83931e-13 1.89447e-13 1.7305e-13 1.6903e-13 1.61152e-13 1.78312e-13 1.7305e-13 1.83931e-13 1.78312e-13 1.6903e-13 1.7305e-13
          1.89057e-13 1.83931e-13 1.95016e-13 1.83931e-13 1.89057e-13 1.78312e-13 2.00381e-13 1.89057e-13 1.95016e-13 2.06115e-13 2.00582e-13 2.11713e-13
          2.06115e-13 1.95016e-13 2.00582e-13 2.17279e-13 2.11713e-13 2.22839e-13 2.11713e-13 2.17279e-13 2.06115e-13 2.22839e-13 2.27737e-13 2.17279e-13
          1.95016e-13 2.06115e-13 2.00381e-13 2.06115e-13 2.1188e-13 2.00381e-13 2.17279e-13 2.1188e-13 2.06115e-13 2.27737e-13 2.22371e-13 2.17279e-13
          2.17279e-13 2.22371e-13 2.1188e-13 1.7163e-13 1.6903e-13 1.78312e-13 1.7163e-13 1.78312e-13 1.83664e-13 1.83664e-13 1.78312e-13 1.89057e-13
          2.00381e-13 1.92552e-13 1.89057e-13 1.89057e-13 1.92552e-13 1.83664e-13 1.83664e-13 1.78495e-13 1.7163e-13 1.7163e-13 1.7027e-13 1.60618e-13
          1.7163e-13 1.78495e-13 1.7027e-13 1.89014e-13 1.83664e-13 1.92552e-13 1.78495e-13 1.83664e-13 1.89014e-13 1.89014e-13 1.92552e-13 1.99839e-13
          2.1188e-13 2.09079e-13 2.00381e-13 1.99839e-13 1.92552e-13 2.00381e-13 2.00381e-13 2.09079e-13 1.99839e-13 2.22371e-13 2.17292e-13 2.1188e-13
          2.1188e-13 2.17292e-13 2.09079e-13 2.17292e-13 2.22371e-13 2.27593e-13 1.99839e-13 2.09079e-13 2.08769e-13 2.09079e-13 2.17292e-13 2.18237e-13
          2.18237e-13 2.17292e-13 2.27593e-13 2.08769e-13 2.09079e-13 2.18237e-13 1.22014e-13 1.12362e-13 1.22013e-13 1.22014e-13 1.22013e-13 1.31666e-13
          1.12362e-13 1.22014e-13 1.12362e-13 1.41526e-13 1.41318e-13 1.31666e-13 1.31666e-13 1.31667e-13 1.22014e-13 1.31667e-13 1.31666e-13 1.41318e-13
          1.22014e-13 1.22016e-13 1.12362e-13 1.22016e-13 1.22014e-13 1.31667e-13 1.41318e-13 1.41321e-13 1.31667e-13 1.41318e-13 1.41526e-13 1.50969e-13
          1.41318e-13 1.50969e-13 1.50971e-13 1.50969e-13 1.60618e-13 1.60621e-13 1.60618e-13 1.7027e-13 1.60621e-13 1.50971e-13 1.50969e-13 1.60621e-13
          1.70236e-13 1.60621e-13 1.7027e-13 1.41318e-13 1.50971e-13 1.41321e-13 1.60619e-13 1.50971e-13 1.60621e-13 1.60621e-13 1.70236e-13 1.60619e-13
          1.22016e-13 1.12364e-13 1.12362e-13 1.22017e-13 1.12364e-13 1.22016e-13 1.22017e-13 1.22016e-13 1.31669e-13 1.31667e-13 1.31669e-13 1.22016e-13
          1.31669e-13 1.31667e-13 1.41321e-13 1.41321e-13 1.41323e-13 1.31669e-13 1.12364e-13 1.22017e-13 1.12365e-13 1.22018e-13 1.12365e-13 1.22017e-13
          1.22018e-13 1.22017e-13 1.31671e-13 1.31669e-13 1.31671e-13 1.22017e-13 1.31671e-13 1.31669e-13 1.41323e-13 1.41323e-13 1.41325e-13 1.31671e-13
          1.41321e-13 1.50971e-13 1.50974e-13 1.50974e-13 1.41323e-13 1.41321e-13 1.60619e-13 1.50974e-13 1.50971e-13 1.60619e-13 1.70236e-13 1.7028e-13
          1.50974e-13 1.60619e-13 1.60629e-13 1.7028e-13 1.60629e-13 1.60619e-13 1.41323e-13 1.50974e-13 1.50977e-13 1.50977e-13 1.41325e-13 1.41323e-13
          1.60629e-13 1.50977e-13 1.50974e-13 1.70285e-13 1.60629e-13 1.7028e-13 1.50977e-13 1.60629e-13 1.60633e-13 1.60629e-13 1.70285e-13 1.60633e-13
          1.7027e-13 1.78495e-13 1.79686e-13 1.7027e-13 1.79686e-13 1.70236e-13 1.79686e-13 1.78495e-13 1.89014e-13 1.89578e-13 1.79686e-13 1.89014e-13
          1.89014e-13 1.99223e-13 1.89578e-13 1.70236e-13 1.79686e-13 1.7993e-13 1.89578e-13 1.7993e-13 1.79686e-13 1.89014e-13 1.99839e-13 1.99223e-13
          1.99839e-13 2.08769e-13 1.99223e-13 1.99223e-13 2.08769e-13 2.0888e-13 2.08769e-13 2.18237e-13 2.18504e-13 2.28156e-13 2.18504e-13 2.18237e-13
          2.18504e-13 2.0888e-13 2.08769e-13 1.99223e-13 1.99235e-13 1.89578e-13 2.0888e-13 1.99235e-13 1.99223e-13 2.0888e-13 2.18504e-13 2.1854e-13
          2.28177e-13 2.1854e-13 2.18504e-13 1.7993e-13 1.7028e-13 1.70236e-13 1.79937e-13 1.7028e-13 1.7993e-13 1.89587e-13 1.7993e-13 1.89578e-13
          1.89587e-13 1.89578e-13 1.99235e-13 1.7993e-13 1.89587e-13 1.79937e-13 1.7028e-13 1.79937e-13 1.70285e-13 1.79943e-13 1.70285e-13 1.79937e-13
          1.89587e-13 1.89595e-13 1.79937e-13 1.99246e-13 1.89595e-13 1.89587e-13 1.79937e-13 1.89595e-13 1.79943e-13 2.0888e-13 2.08895e-13 1.99235e-13
          1.89587e-13 1.99235e-13 1.99246e-13 1.99235e-13 2.08895e-13 1.99246e-13 2.1854e-13 2.08895e-13 2.0888e-13 2.08895e-13 2.1854e-13 2.1856e-13
          2.28205e-13 2.1856e-13 2.1854e-13 2.0891e-13 1.99246e-13 2.08895e-13 1.89595e-13 1.99246e-13 1.99257e-13 2.0891e-13 1.99257e-13 1.99246e-13
          2.1856e-13 2.0891e-13 2.08895e-13 2.0891e-13 2.1856e-13 2.18578e-13 2.28231e-13 2.18578e-13 2.1856e-13 9.65242e-15 0 9.90794e-15
          9.90794e-15 1.93048e-14 9.65242e-15 0 9.65242e-15 0 2.52886e-14 2.8205e-14 1.93048e-14 1.93048e-14 2.8205e-14 2.64574e-14
          0 9.65242e-15 9.65243e-15 9.65242e-15 1.89403e-14 9.65243e-15 1.89403e-14 9.65242e-15 1.93048e-14 1.93048e-14 2.64574e-14 1.89403e-14
          1.89403e-14 2.64574e-14 2.8843e-14 3.53654e-14 2.8205e-14 3.5621e-14 3.5621e-14 4.48724e-14 3.53654e-14 3.53654e-14 2.64574e-14 2.8205e-14
          5.44496e-14 4.48724e-14 5.4462e-14 2.8843e-14 2.64574e-14 3.53654e-14 3.53654e-14 3.79854e-14 2.8843e-14 4.52493e-14 3.79854e-14 3.53654e-14
          4.48724e-14 4.52493e-14 3.53654e-14 4.48724e-14 5.44496e-14 4.52493e-14 5.44497e-14 4.52493e-14 5.44496e-14 9.65243e-15 0 0
          9.60994e-15 0 9.65243e-15 9.65243e-15 1.88031e-14 9.60994e-15 9.65243e-15 1.89403e-14 1.88031e-14 1.88031e-14 1.89403e-14 2.8843e-14
          2.5617e-14 1.88031e-14 2.8843e-14 0 9.60994e-15 0 9.65244e-15 0 9.60994e-15 9.60994e-15 1.90499e-14 9.65244e-15
          1.90499e-14 9.60994e-15 1.88031e-14 1.88031e-14 2.5617e-14 1.90499e-14 2.73363e-14 1.90499e-14 2.5617e-14 2.8843e-14 3.79854e-14 3.51447e-14
          3.51447e-14 3.79854e-14 4.53247e-14 4.53247e-14 3.79854e-14 4.52493e-14 4.52493e-14 5.44497e-14 4.53247e-14 5.45377e-14 4.53247e-14 5.44497e-14
          3.51447e-14 2.5617e-14 2.8843e-14 4.53247e-14 4.48998e-14 3.51447e-14 2.73363e-14 2.5617e-14 3.51447e-14 4.53247e-14 5.45377e-14 4.48998e-14
          5.4462e-14 6.4102e-14 5.44496e-14 6.4102e-14 7.37544e-14 7.37546e-14 7.37546e-14 7.37544e-14 8.34071e-14 6.41022e-14 5.44496e-14 6.4102e-14
          7.37546e-14 6.41022e-14 6.4102e-14 6.41022e-14 5.44497e-14 5.44496e-14 8.34074e-14 7.37546e-14 8.34071e-14 7.37548e-14 6.41022e-14 7.37546e-14
          8.34074e-14 7.37548e-14 7.37546e-14 8.34071e-14 9.30595e-14 9.306e-14 9.306e-14 9.30595e-14 1.02712e-13 1.02712e-13 1.12365e-13 1.12366e-13
          8.34074e-14 8.34071e-14 9.306e-14 9.30603e-14 8.34074e-14 9.306e-14 1.02713e-13 9.30603e-14 9.306e-14 9.306e-14 1.02712e-13 1.02713e-13
          1.12366e-13 1.02713e-13 1.02712e-13 1.02713e-13 1.12366e-13 1.12366e-13 5.44497e-14 6.41022e-14 6.41169e-14 6.41022e-14 7.37548e-14 6.41169e-14
          6.41169e-14 5.45377e-14 5.44497e-14 8.34076e-14 7.37548e-14 8.34074e-14 7.37549e-14 6.41169e-14 7.37548e-14 8.34076e-14 7.37549e-14 7.37548e-14
          6.41279e-14 5.45377e-14 6.41169e-14 6.41169e-14 7.37549e-14 6.41279e-14 7.37549e-14 8.34076e-14 8.34077e-14 8.34076e-14 8.34074e-14 9.30603e-14
          9.30605e-14 8.34076e-14 9.30603e-14 9.30605e-14 9.30603e-14 1.02713e-13 9.30603e-14 1.02713e-13 1.02713e-13 1.12366e-13 1.02713e-13 1.02713e-13
          1.02713e-13 1.12366e-13 1.12367e-13 9.30605e-14 8.34077e-14 8.34076e-14 1.02713e-13 9.30605e-14 1.02713e-13 1.12367e-13 1.02713e-13 1.02713e-13
          0 9.65244e-15 0 1.88527e-14 9.65244e-15 1.90499e-14 1.90499e-14 2.73363e-14 1.88527e-14 9.65243e-15 0 9.65244e-15
          9.65244e-15 1.88527e-14 9.65243e-15 0 9.65243e-15 0 2.89573e-14 1.88527e-14 2.73363e-14 1.87774e-14 9.65243e-15 1.88527e-14
          1.87774e-14 1.88527e-14 2.89573e-14 3.63959e-14 2.73363e-14 3.51447e-14 3.51447e-14 4.48998e-14 3.63959e-14 5.44815e-14 4.48998e-14 5.45377e-14
          4.48998e-14 4.52717e-14 3.63959e-14 4.48998e-14 5.44815e-14 4.52717e-14 2.73363e-14 3.63959e-14 2.89573e-14 3.63959e-14 3.82003e-14 2.89573e-14
          3.63959e-14 4.52717e-14 3.82003e-14 5.45341e-14 4.52717e-14 5.44815e-14 4.53334e-14 3.82003e-14 4.52717e-14 4.52717e-14 5.45341e-14 4.53334e-14
          9.5645e-15 0 9.65243e-15 9.65243e-15 1.87774e-14 9.5645e-15 0 9.5645e-15 0 2.89573e-14 2.59287e-14 1.87774e-14
          1.87774e-14 1.81726e-14 9.5645e-15 1.87774e-14 2.59287e-14 1.81726e-14 9.6524e-15 0 9.5645e-15 9.5645e-15 1.81726e-14 9.6524e-15
          2.59287e-14 2.67385e-14 1.81726e-14 1.76102e-14 1.81726e-14 2.67385e-14 2.89573e-14 3.82003e-14 3.50434e-14 3.50434e-14 3.82003e-14 4.53334e-14
          3.50434e-14 2.59287e-14 2.89573e-14 4.53334e-14 4.48439e-14 3.50434e-14 5.4565e-14 4.53334e-14 5.45341e-14 2.67385e-14 2.59287e-14 3.50434e-14
          3.54255e-14 2.67385e-14 3.50434e-14 3.50434e-14 4.48439e-14 3.54255e-14 4.53334e-14 5.4565e-14 4.48439e-14 5.4565e-14 5.44572e-14 4.48439e-14
          5.45377e-14 6.41279e-14 5.44815e-14 6.41216e-14 5.44815e-14 6.41279e-14 6.41279e-14 7.37577e-14 6.41216e-14 7.37577e-14 6.41279e-14 7.37549e-14
          7.37549e-14 8.34077e-14 7.37577e-14 8.34076e-14 7.37577e-14 8.34077e-14 5.44815e-14 6.41216e-14 5.45341e-14 6.41195e-14 5.45341e-14 6.41216e-14
          6.41216e-14 7.37584e-14 6.41195e-14 7.37584e-14 6.41216e-14 7.37577e-14 7.37577e-14 8.34076e-14 7.37584e-14 8.34074e-14 7.37584e-14 8.34076e-14
          8.34077e-14 9.30605e-14 9.30605e-14 1.02713e-13 9.30605e-14 9.30605e-14 9.30605e-14 8.34076e-14 8.34077e-14 1.12367e-13 1.02713e-13 1.12367e-13
          1.02713e-13 9.30605e-14 1.02713e-13 1.12367e-13 1.02713e-13 1.02713e-13 8.34076e-14 9.30605e-14 9.30603e-14 1.02713e-13 9.30603e-14 9.30605e-14
          8.34076e-14 9.30603e-14 8.34074e-14 1.12367e-13 1.12366e-13 1.02713e-13 9.30603e-14 1.02713e-13 1.02713e-13 1.12366e-13 1.02713e-13 1.02713e-13
          5.45341e-14 6.41195e-14 5.4565e-14 7.37575e-14 6.41195e-14 7.37584e-14 7.37584e-14 8.34074e-14 7.37575e-14 6.4102e-14 5.4565e-14 6.41195e-14
          6.4102e-14 6.41195e-14 7.37575e-14 5.4565e-14 6.4102e-14 5.44572e-14 8.34071e-14 7.37575e-14 8.34074e-14 7.37575e-14 7.37544e-14 6.4102e-14
          7.37575e-14 8.34071e-14 7.37544e-14 9.306e-14 8.34074e-14 9.30603e-14 9.30603e-14 1.02713e-13 9.306e-14 1.12366e-13 1.12366e-13 1.02713e-13
          8.34074e-14 9.306e-14 8.34071e-14 9.30595e-14 8.34071e-14 9.306e-14 9.306e-14 1.02712e-13 9.30595e-14 1.02712e-13 9.306e-14 1.02713e-13
          1.02713e-13 1.12366e-13 1.02712e-13 1.12366e-13 1.12365e-13 1.02712e-13 1.12365e-13 1.22018e-13 1.12366e-13 1.31671e-13 1.31672e-13 1.22018e-13
          1.31672e-13 1.31671e-13 1.41325e-13 1.12366e-13 1.22018e-13 1.22019e-13 1.31672e-13 1.22019e-13 1.22018e-13 1.22019e-13 1.12366e-13 1.12366e-13
          1.41326e-13 1.31672e-13 1.41325e-13 1.31673e-13 1.22019e-13 1.31672e-13 1.31672e-13 1.41326e-13 1.31673e-13 1.41325e-13 1.50977e-13 1.5098e-13
          1.50977e-13 1.60633e-13 1.5098e-13 1.70289e-13 1.60633e-13 1.70285e-13 1.5098e-13 1.41326e-13 1.41325e-13 1.41326e-13 1.5098e-13 1.50981e-13
          1.60635e-13 1.5098e-13 1.60633e-13 1.60633e-13 1.70289e-13 1.60635e-13 1.60635e-13 1.50981e-13 1.5098e-13 1.70292e-13 1.60635e-13 1.70289e-13
          1.12366e-13 1.22019e-13 1.2202e-13 1.31673e-13 1.2202e-13 1.22019e-13 1.2202e-13 1.12367e-13 1.12366e-13 1.41327e-13 1.31673e-13 1.41326e-13
          1.2202e-13 1.31673e-13 1.31674e-13 1.41327e-13 1.31674e-13 1.31673e-13 1.12367e-13 1.2202e-13 1.2202e-13 1.31674e-13 1.2202e-13 1.2202e-13
          1.31674e-13 1.41327e-13 1.41328e-13 1.50981e-13 1.41327e-13 1.41326e-13 1.41327e-13 1.50981e-13 1.50982e-13 1.50981e-13 1.60635e-13 1.60637e-13
          1.70292e-13 1.60637e-13 1.60635e-13 1.60637e-13 1.50982e-13 1.50981e-13 1.60637e-13 1.70292e-13 1.70294e-13 1.50982e-13 1.41328e-13 1.41327e-13
          1.50982e-13 1.60637e-13 1.60638e-13 1.70294e-13 1.60638e-13 1.60637e-13 1.70285e-13 1.79943e-13 1.70289e-13 1.89603e-13 1.79943e-13 1.89595e-13
          1.99257e-13 1.89603e-13 1.89595e-13 1.79948e-13 1.70289e-13 1.79943e-13 1.70289e-13 1.79948e-13 1.70292e-13 1.89603e-13 1.79948e-13 1.79943e-13
          1.79948e-13 1.89603e-13 1.89608e-13 1.99265e-13 1.89608e-13 1.89603e-13 1.99257e-13 2.0891e-13 2.08922e-13 2.18578e-13 2.08922e-13 2.0891e-13
          1.89603e-13 1.99257e-13 1.99265e-13 2.08922e-13 1.99265e-13 1.99257e-13 1.99265e-13 2.08922e-13 2.08931e-13 2.08922e-13 2.18578e-13 2.18592e-13
          2.28252e-13 2.18592e-13 2.18578e-13 2.18592e-13 2.08931e-13 2.08922e-13 1.79951e-13 1.70292e-13 1.79948e-13 1.79951e-13 1.70294e-13 1.70292e-13
          1.89608e-13 1.79951e-13 1.79948e-13 1.79951e-13 1.89608e-13 1.89611e-13 1.9927e-13 1.89611e-13 1.89608e-13 1.70294e-13 1.79951e-13 1.79952e-13
          1.89611e-13 1.79952e-13 1.79951e-13 1.89608e-13 1.99265e-13 1.9927e-13 2.08931e-13 1.9927e-13 1.99265e-13 1.9927e-13 2.08931e-13 2.08936e-13
          2.08931e-13 2.18592e-13 2.18601e-13 2.28267e-13 2.18601e-13 2.18592e-13 2.18601e-13 2.08936e-13 2.08931e-13 1.89611e-13 1.9927e-13 1.99272e-13
          2.08936e-13 1.99272e-13 1.9927e-13 2.08936e-13 2.18601e-13 2.18604e-13 2.18604e-13 2.18601e-13 2.28276e-13 1.2202e-13 1.12367e-13 1.12367e-13
          1.2202e-13 1.2202e-13 1.12367e-13 1.31674e-13 1.2202e-13 1.2202e-13 1.2202e-13 1.31674e-13 1.31674e-13 1.41328e-13 1.31674e-13 1.31674e-13
          1.31674e-13 1.41328e-13 1.41327e-13 1.2202e-13 1.12366e-13 1.12367e-13 1.2202e-13 1.22019e-13 1.12366e-13 1.22019e-13 1.2202e-13 1.31673e-13
          1.31674e-13 1.31673e-13 1.2202e-13 1.41327e-13 1.31673e-13 1.31674e-13 1.41327e-13 1.41326e-13 1.31673e-13 1.41328e-13 1.50982e-13 1.50982e-13
          1.50982e-13 1.41327e-13 1.41328e-13 1.60638e-13 1.50982e-13 1.50982e-13 1.60638e-13 1.70294e-13 1.70294e-13 1.50982e-13 1.60638e-13 1.60637e-13
          1.70294e-13 1.60637e-13 1.60638e-13 1.41327e-13 1.50982e-13 1.50981e-13 1.50981e-13 1.41326e-13 1.41327e-13 1.60637e-13 1.50981e-13 1.50982e-13
          1.60637e-13 1.70294e-13 1.70292e-13 1.50981e-13 1.60637e-13 1.60635e-13 1.70292e-13 1.60635e-13 1.60637e-13 1.12366e-13 1.12366e-13 1.22019e-13
          1.31673e-13 1.31672e-13 1.22019e-13 1.41326e-13 1.31672e-13 1.31673e-13 1.22019e-13 1.22018e-13 1.12366e-13 1.22018e-13 1.22019e-13 1.31672e-13
          1.12365e-13 1.12366e-13 1.22018e-13 1.31672e-13 1.41326e-13 1.41325e-13 1.31671e-13 1.22018e-13 1.31672e-13 1.41325e-13 1.31671e-13 1.31672e-13
          1.41326e-13 1.50981e-13 1.5098e-13 1.60635e-13 1.5098e-13 1.50981e-13 1.60635e-13 1.70292e-13 1.70289e-13 1.5098e-13 1.41325e-13 1.41326e-13
          1.41325e-13 1.5098e-13 1.50977e-13 1.5098e-13 1.60635e-13 1.60633e-13 1.70289e-13 1.60633e-13 1.60635e-13 1.60633e-13 1.50977e-13 1.5098e-13
          1.70289e-13 1.70285e-13 1.60633e-13 1.79952e-13 1.70294e-13 1.70294e-13 1.70294e-13 1.79952e-13 1.79951e-13 1.79952e-13 1.89611e-13 1.89611e-13
          1.99272e-13 1.89611e-13 1.89611e-13 1.89611e-13 1.79951e-13 1.79952e-13 1.79951e-13 1.70292e-13 1.70294e-13 1.79951e-13 1.79948e-13 1.70292e-13
          1.79951e-13 1.89611e-13 1.89608e-13 1.89608e-13 1.89611e-13 1.9927e-13 1.89608e-13 1.79948e-13 1.79951e-13 2.08936e-13 2.08936e-13 1.99272e-13
          1.99272e-13 1.9927e-13 1.89611e-13 1.9927e-13 1.99272e-13 2.08936e-13 2.18604e-13 2.08936e-13 2.08936e-13 2.18604e-13 2.18601e-13 2.08936e-13
          2.18601e-13 2.18604e-13 2.28276e-13 2.08936e-13 2.08931e-13 1.9927e-13 1.9927e-13 1.99265e-13 1.89608e-13 1.99265e-13 1.9927e-13 2.08931e-13
          2.08931e-13 2.08936e-13 2.18601e-13 2.18601e-13 2.18592e-13 2.08931e-13 2.28267e-13 2.18592e-13 2.18601e-13 1.70289e-13 1.70292e-13 1.79948e-13
          1.89608e-13 1.89603e-13 1.79948e-13 1.89603e-13 1.89608e-13 1.99265e-13 1.79948e-13 1.79943e-13 1.70289e-13 1.70285e-13 1.70289e-13 1.79943e-13
          1.79943e-13 1.79948e-13 1.89603e-13 1.89603e-13 1.89595e-13 1.79943e-13 1.89595e-13 1.89603e-13 1.99257e-13 2.08931e-13 2.08922e-13 1.99265e-13
          2.08922e-13 2.08931e-13 2.18592e-13 1.99265e-13 1.99257e-13 1.89603e-13 1.99257e-13 1.99265e-13 2.08922e-13 2.08922e-13 2.0891e-13 1.99257e-13
          2.18592e-13 2.18578e-13 2.08922e-13 2.18578e-13 2.18592e-13 2.28252e-13 2.0891e-13 2.08922e-13 2.18578e-13 2.27737e-13 2.22839e-13 2.33957e-13
          2.39029e-13 2.27737e-13 2.33957e-13 2.39029e-13 2.33957e-13 2.45066e-13 2.45066e-13 2.50831e-13 2.39029e-13 2.39029e-13 2.30969e-13 2.27737e-13
          2.27737e-13 2.30969e-13 2.22371e-13 2.38323e-13 2.30969e-13 2.39029e-13 2.50831e-13 2.46438e-13 2.39029e-13 2.39029e-13 2.46438e-13 2.38323e-13
          2.45066e-13 2.5616e-13 2.50831e-13 2.67236e-13 2.61709e-13 2.5616e-13 2.5616e-13 2.61709e-13 2.50831e-13 2.72364e-13 2.67236e-13 2.78285e-13
          2.72364e-13 2.61709e-13 2.67236e-13 2.83671e-13 2.72364e-13 2.78285e-13 2.56566e-13 2.50831e-13 2.61709e-13 2.56566e-13 2.46438e-13 2.50831e-13
          2.61709e-13 2.66692e-13 2.56566e-13 2.72364e-13 2.66692e-13 2.61709e-13 2.77002e-13 2.72364e-13 2.83671e-13 2.77002e-13 2.66692e-13 2.72364e-13
          2.22371e-13 2.30969e-13 2.27593e-13 2.27593e-13 2.30969e-13 2.38323e-13 2.38323e-13 2.46438e-13 2.47252e-13 2.47252e-13 2.46438e-13 2.56566e-13
          2.27593e-13 2.38323e-13 2.37828e-13 2.28156e-13 2.18237e-13 2.27593e-13 2.37828e-13 2.28156e-13 2.27593e-13 2.37828e-13 2.38323e-13 2.47252e-13
          2.37828e-13 2.47252e-13 2.47439e-13 2.57014e-13 2.47439e-13 2.47252e-13 2.56566e-13 2.66692e-13 2.66624e-13 2.57014e-13 2.47252e-13 2.56566e-13
          2.56566e-13 2.66624e-13 2.57014e-13 2.66624e-13 2.66692e-13 2.77002e-13 2.77002e-13 2.75521e-13 2.66624e-13 2.66624e-13 2.66431e-13 2.57014e-13
          2.66624e-13 2.75521e-13 2.66431e-13 2.83671e-13 2.78285e-13 2.89298e-13 2.89298e-13 2.94809e-13 2.83671e-13 3.00261e-13 2.94809e-13 2.89298e-13
          3.05748e-13 3.00261e-13 3.11156e-13 3.00261e-13 3.05748e-13 2.94809e-13 2.89856e-13 2.83671e-13 2.94809e-13 2.77002e-13 2.83671e-13 2.89856e-13
          2.94809e-13 3.05748e-13 3.01404e-13 3.01404e-13 2.89856e-13 2.94809e-13 3.11156e-13 3.21961e-13 3.16967e-13 3.05748e-13 3.11156e-13 3.16967e-13
          3.24869e-13 3.21961e-13 3.32626e-13 3.21961e-13 3.24869e-13 3.16967e-13 3.32626e-13 3.32711e-13 3.24869e-13 3.05748e-13 3.16967e-13 3.13597e-13
          3.13597e-13 3.01404e-13 3.05748e-13 3.16967e-13 3.24018e-13 3.13597e-13 3.16967e-13 3.24869e-13 3.24018e-13 3.24018e-13 3.24869e-13 3.32711e-13
          3.32972e-13 3.24018e-13 3.32711e-13 2.89856e-13 2.84909e-13 2.77002e-13 2.95779e-13 2.84909e-13 2.89856e-13 2.89856e-13 3.01404e-13 2.95779e-13
          3.01404e-13 3.06161e-13 2.95779e-13 2.77002e-13 2.84909e-13 2.75521e-13 2.75521e-13 2.84909e-13 2.86342e-13 2.86342e-13 2.84909e-13 2.95779e-13
          2.95779e-13 3.06161e-13 3.05312e-13 3.13597e-13 3.06161e-13 3.01404e-13 3.13597e-13 3.23853e-13 3.14693e-13 3.13597e-13 3.24018e-13 3.23853e-13
          3.23853e-13 3.24018e-13 3.32972e-13 3.14693e-13 3.06161e-13 3.13597e-13 3.05312e-13 3.06161e-13 3.14693e-13 3.32972e-13 3.33378e-13 3.23853e-13
          3.23853e-13 3.24148e-13 3.14693e-13 3.24148e-13 3.23853e-13 3.33378e-13 2.37828e-13 2.3781e-13 2.28156e-13 2.18504e-13 2.28156e-13 2.28177e-13
          2.28177e-13 2.28156e-13 2.3781e-13 2.3781e-13 2.37828e-13 2.47439e-13 2.3781e-13 2.47439e-13 2.47476e-13 2.47439e-13 2.57047e-13 2.47476e-13
          2.3781e-13 2.37844e-13 2.28177e-13 2.3781e-13 2.47476e-13 2.37844e-13 2.57047e-13 2.47439e-13 2.57014e-13 2.57014e-13 2.66431e-13 2.57047e-13
          2.57047e-13 2.66431e-13 2.6677e-13 2.66431e-13 2.75521e-13 2.76354e-13 2.76354e-13 2.6677e-13 2.66431e-13 2.47476e-13 2.57047e-13 2.57151e-13
          2.6677e-13 2.57151e-13 2.57047e-13 2.76486e-13 2.6677e-13 2.76354e-13 2.1854e-13 2.28177e-13 2.28205e-13 2.28205e-13 2.28177e-13 2.37844e-13
          2.37844e-13 2.37879e-13 2.28205e-13 2.47476e-13 2.4752e-13 2.37844e-13 2.4752e-13 2.47476e-13 2.57151e-13 2.37879e-13 2.37844e-13 2.4752e-13
          2.1856e-13 2.28205e-13 2.28231e-13 2.28231e-13 2.28205e-13 2.37879e-13 2.28231e-13 2.37879e-13 2.3791e-13 2.4752e-13 2.47564e-13 2.37879e-13
          2.57211e-13 2.47564e-13 2.4752e-13 2.3791e-13 2.37879e-13 2.47564e-13 2.57151e-13 2.6677e-13 2.66849e-13 2.4752e-13 2.57151e-13 2.57211e-13
          2.66849e-13 2.57211e-13 2.57151e-13 2.76486e-13 2.66849e-13 2.6677e-13 2.66849e-13 2.76486e-13 2.76568e-13 2.57211e-13 2.66849e-13 2.66919e-13
          2.47564e-13 2.57211e-13 2.57263e-13 2.66919e-13 2.57263e-13 2.57211e-13 2.76568e-13 2.66919e-13 2.66849e-13 2.76568e-13 2.76651e-13 2.66919e-13
          2.86342e-13 2.76354e-13 2.75521e-13 2.76354e-13 2.86342e-13 2.86189e-13 2.86189e-13 2.86342e-13 2.95749e-13 2.95749e-13 2.86342e-13 2.95779e-13
          2.95779e-13 3.05312e-13 2.95749e-13 3.05312e-13 3.05351e-13 2.95749e-13 2.86189e-13 2.76486e-13 2.76354e-13 2.95749e-13 2.95801e-13 2.86189e-13
          2.95801e-13 2.95749e-13 3.05351e-13 3.14693e-13 3.14811e-13 3.05312e-13 3.14811e-13 3.14693e-13 3.24148e-13 3.05351e-13 3.05312e-13 3.14811e-13
          3.33893e-13 3.24148e-13 3.33378e-13 3.24558e-13 3.14811e-13 3.24148e-13 3.24148e-13 3.33893e-13 3.24558e-13 3.14811e-13 3.15092e-13 3.05351e-13
          3.15092e-13 3.14811e-13 3.24558e-13 3.33893e-13 3.34444e-13 3.24558e-13 2.86189e-13 2.86209e-13 2.76486e-13 2.86209e-13 2.86189e-13 2.95801e-13
          2.86209e-13 2.76568e-13 2.76486e-13 2.95801e-13 2.95944e-13 2.86209e-13 3.05351e-13 3.05552e-13 2.95801e-13 2.95944e-13 2.95801e-13 3.05552e-13
          2.86209e-13 2.86314e-13 2.76568e-13 2.86314e-13 2.86209e-13 2.95944e-13 2.76651e-13 2.76568e-13 2.86314e-13 2.95944e-13 2.96097e-13 2.86314e-13
          3.05552e-13 3.05762e-13 2.95944e-13 2.96097e-13 2.95944e-13 3.05762e-13 3.05552e-13 3.05351e-13 3.15092e-13 3.15092e-13 3.1539e-13 3.05552e-13
          3.1539e-13 3.15092e-13 3.2496e-13 3.24558e-13 3.2496e-13 3.15092e-13 3.2496e-13 3.24558e-13 3.34444e-13 3.34444e-13 3.34958e-13 3.2496e-13
          3.05762e-13 3.05552e-13 3.1539e-13 3.1539e-13 3.1565e-13 3.05762e-13 3.1565e-13 3.1539e-13 3.25329e-13 3.2496e-13 3.25329e-13 3.1539e-13
          3.25329e-13 3.2496e-13 3.34958e-13 3.34958e-13 3.3539e-13 3.25329e-13 3 3 3 3 3 3