<?xml version="1.0"?>
<VTKFile type="UnstructuredGrid" version="0.1" byte_order="LittleEndian">
  <UnstructuredGrid>
    <Piece NumberOfCells="3200" NumberOfPoints="3609">
      <CellData Scalars="bedSurface">
        <DataArray type="Float32" Name="bedSurface" NumberOfComponents="1" format="ascii">
          0.000234476 0.000110663 5.82368e-05 2.39958e-05 9.65943e-06 3.46663e-06 1.23252e-06 4.55028e-07 2.11086e-07 1.38086e-07 1.17763e-07 1.12362e-07
          1.11005e-07 1.10678e-07 1.10603e-07 1.10585e-07 1.10581e-07 1.1058e-07 1.10579e-07 1.10579e-07 1.10578e-07 1.10578e-07 1.10577e-07 1.10576e-07
          1.10576e-07 1.10575e-07 1.10574e-07 1.10574e-07 1.10573e-07 1.10573e-07 1.10572e-07 1.10571e-07 1.10571e-07 1.1057e-07 1.1057e-07 1.10569e-07
          1.10569e-07 1.10568e-07 1.10567e-07 1.10567e-07 1.10566e-07 1.10565e-07 1.10565e-07 1.10564e-07 1.10563e-07 1.10563e-07 1.10562e-07 1.10562e-07
          1.10561e-07 1.1056e-07 1.1056e-07 1.10559e-07 1.10558e-07 1.10558e-07 1.10557e-07 1.10557e-07 1.10556e-07 1.10555e-07 1.10555e-07 1.10554e-07
          1.10553e-07 1.10553e-07 1.10552e-07 1.10552e-07 1.10551e-07 1.1055e-07 1.10549e-07 1.10549e-07 1.10548e-07 1.10547e-07 1.10547e-07 1.10546e-07
          1.10545e-07 1.10545e-07 1.10544e-07 1.10543e-07 1.10543e-07 1.10542e-07 1.10541e-07 1.10541e-07 1.1054e-07 1.10539e-07 1.10539e-07 1.10538e-07
          1.10537e-07 1.10537e-07 1.10536e-07 1.10535e-07 1.10535e-07 1.10534e-07 1.10533e-07 1.10533e-07 1.10532e-07 1.10531e-07 1.10531e-07 1.1053e-07
          1.10529e-07 1.10528e-07 1.10528e-07 1.10527e-07 1.10526e-07 1.10525e-07 1.10525e-07 1.10524e-07 1.10523e-07 1.10523e-07 1.10522e-07 1.10521e-07
          1.1052e-07 1.10519e-07 1.10519e-07 1.10517e-07 1.10503e-07 1.10272e-07 1.06697e-07 5.80641e-08 -5.08394e-07 -5.97425e-06 -4.79123e-05 -0.000289911
          -0.000672784 -0.000123648 0.00260712 0.00815717 0.0166525 0.0280728 0.0423449 0.0593715 0.0790383 0.101216 0.12576 0.152515
          0.181313 0.211976 0.244314 0.278132 0.313227 0.349389 0.386405 0.424058 0.462129 0.500398 0.538645 0.57665
          0.614198 0.651074 0.687069 0.721977 0.755599 0.787742 0.818221 0.846856 0.873477 0.897926 0.920049 0.939697
          0.956748 0.971165 0.982892 0.991465 0.996074 0.996832 0.994901 0.990649 0.983732 0.974004 0.961391 0.945898
          0.927578 0.906518 0.88283 0.856653 0.828144 0.797479 0.764851 0.73047 0.69456 0.657356 0.619104 0.58006
          0.540483 0.500637 0.460789 0.421202 0.382138 0.343856 0.306605 0.270628 0.236155 0.203407 0.172591 0.143899
          0.117507 0.0935758 0.0722489 0.0536509 0.0378881 0.0250472 0.0151881 0.00829936 0.00411129 0.00184614 0.000759938 0.000288125
          0.000101511 3.33972e-05 1.03253e-05 3.01247e-06 8.33319e-07 2.19498e-07 5.54457e-08 1.36881e-08 3.53553e-09 1.17081e-09 6.4194e-10 5.28188e-10
          5.04622e-10 4.99981e-10 4.98764e-10 4.98404e-10 4.98097e-10 4.97835e-10 4.97703e-10 4.97983e-10 4.97775e-10 4.97005e-10 4.96857e-10 4.9677e-10
          4.96924e-10 4.97296e-10 4.97314e-10 4.97632e-10 4.97743e-10 4.97234e-10 4.97135e-10 4.97423e-10 4.97026e-10 4.96722e-10 4.96764e-10 4.96444e-10
          4.96424e-10 4.96533e-10 4.96354e-10 4.96424e-10 4.96744e-10 4.97174e-10 4.96982e-10 4.96573e-10 4.96738e-10 4.9669e-10 4.96792e-10 4.96612e-10
          4.96039e-10 4.96047e-10 4.96407e-10 4.96153e-10 4.95666e-10 4.95674e-10 4.95444e-10 4.95386e-10 4.95254e-10 4.95058e-10 4.95135e-10 4.95369e-10
          4.95363e-10 4.94856e-10 4.94837e-10 4.9468e-10 4.94327e-10 4.94359e-10 4.94531e-10 4.94434e-10 4.94505e-10 4.94347e-10 4.94442e-10 4.94925e-10
          4.95043e-10 4.95018e-10 4.94757e-10 4.94653e-10 4.94631e-10 4.94533e-10 4.94293e-10 4.9399e-10 4.93568e-10 4.93185e-10 4.9344e-10 4.93521e-10
          4.93301e-10 4.92988e-10 4.92643e-10 4.92523e-10 4.9268e-10 4.92941e-10 4.9293e-10 4.92858e-10 4.92565e-10 4.92325e-10 4.92128e-10 4.91865e-10
          4.9206e-10 4.92148e-10 4.91847e-10 4.91436e-10 4.9159e-10 4.91945e-10 4.91942e-10 4.91889e-10 4.91892e-10 4.92e-10 4.91813e-10 4.91741e-10
          4.91924e-10 4.9169e-10 4.9139e-10 4.91362e-10 4.9161e-10 4.91677e-10 4.91409e-10 4.91241e-10 4.91048e-10 4.90786e-10 4.90778e-10 4.90792e-10
          4.90557e-10 4.90413e-10 4.90548e-10 4.90614e-10 4.90552e-10 4.90438e-10 4.9036e-10 4.90015e-10 4.89706e-10 4.89775e-10 4.8997e-10 4.90059e-10
          4.89955e-10 4.89997e-10 4.90035e-10 4.89786e-10 4.89444e-10 4.89228e-10 4.89289e-10 4.89649e-10 4.89619e-10 4.89227e-10 4.88964e-10 4.88874e-10
          4.8866e-10 4.88524e-10 4.88633e-10 4.88708e-10 4.88577e-10 4.88452e-10 4.88224e-10 4.87833e-10 4.87824e-10 4.88117e-10 4.88197e-10 4.88049e-10
          4.87812e-10 4.87674e-10 4.8771e-10 4.87832e-10 4.87868e-10 4.88064e-10 4.88369e-10 4.88262e-10 4.87879e-10 4.87523e-10 4.87459e-10 4.87572e-10
          4.8746e-10 4.87277e-10 4.87301e-10 4.87111e-10 4.86967e-10 4.871e-10 4.86991e-10 4.86704e-10 4.86405e-10 4.86248e-10 4.86316e-10 4.86407e-10
          4.86406e-10 4.86086e-10 4.85999e-10 4.8606e-10 4.85775e-10 4.85478e-10 4.8473e-10 4.76098e-10 3.33027e-10 -1.97625e-09 -3.5036e-08 -4.42949e-07
          -4.63419e-06 -2.40892e-05 -5.90852e-06 0.000158838 0.000234476 0.000110663 5.82369e-05 2.39958e-05 9.65943e-06 3.46663e-06 1.23252e-06 4.55028e-07
          2.11086e-07 1.38086e-07 1.17763e-07 1.12362e-07 1.11005e-07 1.10678e-07 1.10602e-07 1.10585e-07 1.10582e-07 1.1058e-07 1.1058e-07 1.10579e-07
          1.10578e-07 1.10578e-07 1.10577e-07 1.10577e-07 1.10576e-07 1.10575e-07 1.10575e-07 1.10574e-07 1.10573e-07 1.10573e-07 1.10572e-07 1.10571e-07
          1.10571e-07 1.1057e-07 1.10569e-07 1.10569e-07 1.10568e-07 1.10568e-07 1.10567e-07 1.10566e-07 1.10566e-07 1.10565e-07 1.10565e-07 1.10564e-07
          1.10563e-07 1.10563e-07 1.10562e-07 1.10561e-07 1.10561e-07 1.1056e-07 1.1056e-07 1.10559e-07 1.10559e-07 1.10558e-07 1.10557e-07 1.10556e-07
          1.10556e-07 1.10555e-07 1.10554e-07 1.10554e-07 1.10553e-07 1.10552e-07 1.10552e-07 1.10551e-07 1.1055e-07 1.1055e-07 1.10549e-07 1.10549e-07
          1.10548e-07 1.10547e-07 1.10547e-07 1.10546e-07 1.10545e-07 1.10545e-07 1.10544e-07 1.10543e-07 1.10543e-07 1.10542e-07 1.10541e-07 1.10541e-07
          1.1054e-07 1.10539e-07 1.10539e-07 1.10538e-07 1.10537e-07 1.10536e-07 1.10536e-07 1.10535e-07 1.10534e-07 1.10534e-07 1.10533e-07 1.10532e-07
          1.10532e-07 1.10531e-07 1.1053e-07 1.10529e-07 1.10529e-07 1.10528e-07 1.10527e-07 1.10526e-07 1.10526e-07 1.10525e-07 1.10524e-07 1.10523e-07
          1.10522e-07 1.10522e-07 1.10521e-07 1.1052e-07 1.1052e-07 1.10519e-07 1.10518e-07 1.10516e-07 1.10502e-07 1.10271e-07 1.06696e-07 5.8063e-08
          -5.08395e-07 -5.97425e-06 -4.79123e-05 -0.000289911 -0.000672784 -0.000123648 0.00260712 0.00815717 0.0166525 0.0280728 0.0423449 0.0593715
          0.0790383 0.101216 0.12576 0.152515 0.181313 0.211976 0.244314 0.278132 0.313227 0.349389 0.386405 0.424058
          0.462129 0.500398 0.538645 0.57665 0.614198 0.651074 0.687069 0.721977 0.755599 0.787742 0.818221 0.846856
          0.873477 0.897926 0.920049 0.939697 0.956748 0.971165 0.982892 0.991465 0.996074 0.996832 0.994901 0.990649
          0.983732 0.974004 0.961391 0.945898 0.927578 0.906518 0.88283 0.856653 0.828144 0.797479 0.764851 0.73047
          0.69456 0.657356 0.619104 0.58006 0.540483 0.500637 0.460789 0.421202 0.382138 0.343856 0.306605 0.270628
          0.236155 0.203407 0.172591 0.143899 0.117507 0.0935758 0.0722489 0.0536509 0.0378881 0.0250472 0.0151881 0.00829936
          0.00411129 0.00184614 0.000759938 0.000288125 0.000101511 3.33972e-05 1.03253e-05 3.01247e-06 8.33318e-07 2.19498e-07 5.54463e-08 1.36892e-08
          3.53563e-09 1.17129e-09 6.43245e-10 5.2949e-10 5.05554e-10 5.00981e-10 4.99968e-10 4.99739e-10 4.99958e-10 4.99655e-10 4.99408e-10 4.99678e-10
          4.99717e-10 4.98994e-10 4.99549e-10 4.99865e-10 4.98334e-10 4.98319e-10 4.99468e-10 4.98624e-10 4.97776e-10 4.97775e-10 4.97706e-10 4.97587e-10
          4.97772e-10 4.97865e-10 4.97709e-10 4.97858e-10 4.97925e-10 4.9844e-10 4.98334e-10 4.97818e-10 4.97995e-10 4.97615e-10 4.97169e-10 4.96815e-10
          4.96773e-10 4.96185e-10 4.95251e-10 4.95578e-10 4.96165e-10 4.96652e-10 4.96636e-10 4.95916e-10 4.95795e-10 4.95626e-10 4.95108e-10 4.94742e-10
          4.95356e-10 4.95878e-10 4.95415e-10 4.95049e-10 4.94772e-10 4.94657e-10 4.9438e-10 4.94524e-10 4.94895e-10 4.94798e-10 4.95249e-10 4.95685e-10
          4.95386e-10 4.95125e-10 4.9444e-10 4.9362e-10 4.93412e-10 4.92877e-10 4.92843e-10 4.93316e-10 4.93407e-10 4.9387e-10 4.94018e-10 4.93784e-10
          4.93689e-10 4.93497e-10 4.93684e-10 4.93905e-10 4.93668e-10 4.92773e-10 4.92277e-10 4.92761e-10 4.92956e-10 4.93425e-10 4.93579e-10 4.93463e-10
          4.93559e-10 4.93492e-10 4.9317e-10 4.92883e-10 4.92834e-10 4.92833e-10 4.93022e-10 4.92948e-10 4.92582e-10 4.92234e-10 4.92116e-10 4.92157e-10
          4.91978e-10 4.91883e-10 4.91752e-10 4.91791e-10 4.91591e-10 4.91248e-10 4.91133e-10 4.90919e-10 4.91112e-10 4.91091e-10 4.91257e-10 4.91703e-10
          4.91553e-10 4.91009e-10 4.90895e-10 4.90759e-10 4.90449e-10 4.90576e-10 4.90838e-10 4.91196e-10 4.9105e-10 4.90898e-10 4.91335e-10 4.91169e-10
          4.91037e-10 4.91248e-10 4.91376e-10 4.91263e-10 4.91135e-10 4.90853e-10 4.90119e-10 4.89763e-10 4.89992e-10 4.90167e-10 4.89711e-10 4.89367e-10
          4.89115e-10 4.89101e-10 4.89458e-10 4.89648e-10 4.89624e-10 4.89616e-10 4.89347e-10 4.89199e-10 4.89162e-10 4.88813e-10 4.88546e-10 4.88692e-10
          4.88948e-10 4.88705e-10 4.88633e-10 4.88873e-10 4.89049e-10 4.88925e-10 4.8875e-10 4.89004e-10 4.8898e-10 4.88733e-10 4.88535e-10 4.88408e-10
          4.88185e-10 4.88035e-10 4.88144e-10 4.8799e-10 4.87594e-10 4.87193e-10 4.87183e-10 4.87262e-10 4.87046e-10 4.86915e-10 4.86901e-10 4.86715e-10
          4.86316e-10 4.86351e-10 4.86565e-10 4.86234e-10 4.86e-10 4.85878e-10 4.85601e-10 4.85523e-10 4.85529e-10 4.85296e-10 4.845e-10 4.76464e-10
          3.33643e-10 -1.97553e-09 -3.50347e-08 -4.42948e-07 -4.63418e-06 -2.40892e-05 -5.90851e-06 0.000158838 0.000234476 0.000110663 5.82368e-05 2.39958e-05
          9.65943e-06 3.46663e-06 1.23252e-06 4.55028e-07 2.11085e-07 1.38086e-07 1.17763e-07 1.12362e-07 1.11005e-07 1.10678e-07 1.10603e-07 1.10586e-07
          1.10581e-07 1.1058e-07 1.10579e-07 1.10579e-07 1.10578e-07 1.10578e-07 1.10577e-07 1.10576e-07 1.10576e-07 1.10575e-07 1.10575e-07 1.10574e-07
          1.10574e-07 1.10573e-07 1.10572e-07 1.10572e-07 1.10571e-07 1.10571e-07 1.1057e-07 1.10569e-07 1.10568e-07 1.10568e-07 1.10567e-07 1.10567e-07
          1.10566e-07 1.10566e-07 1.10565e-07 1.10564e-07 1.10564e-07 1.10563e-07 1.10563e-07 1.10562e-07 1.10561e-07 1.1056e-07 1.1056e-07 1.10559e-07
          1.10558e-07 1.10558e-07 1.10557e-07 1.10557e-07 1.10556e-07 1.10555e-07 1.10555e-07 1.10554e-07 1.10553e-07 1.10552e-07 1.10552e-07 1.10551e-07
          1.1055e-07 1.1055e-07 1.10549e-07 1.10549e-07 1.10548e-07 1.10547e-07 1.10547e-07 1.10546e-07 1.10545e-07 1.10544e-07 1.10544e-07 1.10543e-07
          1.10542e-07 1.10542e-07 1.10541e-07 1.10541e-07 1.1054e-07 1.10539e-07 1.10539e-07 1.10538e-07 1.10537e-07 1.10536e-07 1.10536e-07 1.10535e-07
          1.10534e-07 1.10534e-07 1.10533e-07 1.10532e-07 1.10532e-07 1.10531e-07 1.1053e-07 1.10529e-07 1.10529e-07 1.10528e-07 1.10527e-07 1.10526e-07
          1.10526e-07 1.10525e-07 1.10524e-07 1.10524e-07 1.10523e-07 1.10522e-07 1.10522e-07 1.10521e-07 1.1052e-07 1.1052e-07 1.10519e-07 1.10518e-07
          1.10504e-07 1.10272e-07 1.06697e-07 5.80642e-08 -5.08394e-07 -5.97425e-06 -4.79123e-05 -0.000289911 -0.000672784 -0.000123648 0.00260712 0.00815717
          0.0166525 0.0280728 0.0423449 0.0593715 0.0790383 0.101216 0.12576 0.152515 0.181313 0.211976 0.244314 0.278132
          0.313227 0.349389 0.386405 0.424058 0.462129 0.500398 0.538645 0.57665 0.614198 0.651074 0.687069 0.721977
          0.755599 0.787742 0.818221 0.846856 0.873477 0.897926 0.920049 0.939697 0.956748 0.971165 0.982892 0.991465
          0.996074 0.996832 0.994901 0.990649 0.983732 0.974004 0.961391 0.945898 0.927578 0.906518 0.88283 0.856653
          0.828144 0.797479 0.764851 0.73047 0.69456 0.657356 0.619104 0.58006 0.540483 0.500637 0.460789 0.421202
          0.382138 0.343856 0.306605 0.270628 0.236155 0.203407 0.172591 0.143899 0.117507 0.0935758 0.0722489 0.0536509
          0.0378881 0.0250472 0.0151881 0.00829936 0.00411129 0.00184614 0.000759938 0.000288125 0.000101511 3.33972e-05 1.03253e-05 3.01247e-06
          8.33319e-07 2.19498e-07 5.54467e-08 1.36889e-08 3.53648e-09 1.17205e-09 6.42842e-10 5.28577e-10 5.04864e-10 5.00564e-10 4.99704e-10 4.9918e-10
          4.99082e-10 4.98878e-10 4.98101e-10 4.97829e-10 4.97904e-10 4.98115e-10 4.98652e-10 4.98708e-10 4.98481e-10 4.98212e-10 4.98146e-10 4.98146e-10
          4.98005e-10 4.97759e-10 4.97504e-10 4.97305e-10 4.97374e-10 4.98018e-10 4.98413e-10 4.98143e-10 4.97403e-10 4.96864e-10 4.96604e-10 4.96651e-10
          4.96595e-10 4.96221e-10 4.96367e-10 4.96504e-10 4.96624e-10 4.96956e-10 4.97312e-10 4.97307e-10 4.96836e-10 4.96507e-10 4.96324e-10 4.96483e-10
          4.96657e-10 4.96583e-10 4.96521e-10 4.96482e-10 4.96558e-10 4.96254e-10 4.95903e-10 4.95696e-10 4.95747e-10 4.9552e-10 4.95143e-10 4.95716e-10
          4.9582e-10 4.95021e-10 4.94659e-10 4.94626e-10 4.94495e-10 4.94272e-10 4.94023e-10 4.94033e-10 4.9389e-10 4.93866e-10 4.93982e-10 4.93931e-10
          4.93777e-10 4.9333e-10 4.92977e-10 4.92835e-10 4.92727e-10 4.92805e-10 4.93052e-10 4.92858e-10 4.93006e-10 4.93565e-10 4.93435e-10 4.93033e-10
          4.92542e-10 4.92004e-10 4.92183e-10 4.92749e-10 4.93105e-10 4.93253e-10 4.93132e-10 4.92826e-10 4.92954e-10 4.93231e-10 4.93413e-10 4.93915e-10
          4.93864e-10 4.93528e-10 4.92999e-10 4.92531e-10 4.92193e-10 4.91729e-10 4.91867e-10 4.91967e-10 4.91928e-10 4.91896e-10 4.91644e-10 4.91497e-10
          4.9144e-10 4.91313e-10 4.90997e-10 4.90897e-10 4.90805e-10 4.90453e-10 4.9031e-10 4.9026e-10 4.90432e-10 4.90436e-10 4.90225e-10 4.89982e-10
          4.89386e-10 4.89132e-10 4.88961e-10 4.88649e-10 4.89026e-10 4.89555e-10 4.89843e-10 4.90037e-10 4.89704e-10 4.89365e-10 4.89296e-10 4.8939e-10
          4.8951e-10 4.89414e-10 4.89372e-10 4.89618e-10 4.89535e-10 4.89233e-10 4.89099e-10 4.88913e-10 4.88948e-10 4.887e-10 4.885e-10 4.88839e-10
          4.88887e-10 4.88655e-10 4.881e-10 4.87513e-10 4.87658e-10 4.88154e-10 4.88028e-10 4.87743e-10 4.87932e-10 4.87848e-10 4.87348e-10 4.87119e-10
          4.87009e-10 4.86929e-10 4.86823e-10 4.86872e-10 4.87021e-10 4.8699e-10 4.8673e-10 4.86359e-10 4.861e-10 4.86083e-10 4.85848e-10 4.85709e-10
          4.86024e-10 4.8586e-10 4.85667e-10 4.85807e-10 4.85943e-10 4.85975e-10 4.85822e-10 4.8547e-10 4.85347e-10 4.85455e-10 4.85307e-10 4.85257e-10
          4.85335e-10 4.85194e-10 4.84913e-10 4.77202e-10 3.34383e-10 -1.97473e-09 -3.50341e-08 -4.42948e-07 -4.63418e-06 -2.40892e-05 -5.90852e-06 0.000158838
          0.000234476 0.000110663 5.82368e-05 2.39958e-05 9.65943e-06 3.46663e-06 1.23252e-06 4.55028e-07 2.11086e-07 1.38086e-07 1.17763e-07 1.12362e-07
          1.11005e-07 1.10678e-07 1.10603e-07 1.10586e-07 1.10581e-07 1.1058e-07 1.10579e-07 1.10579e-07 1.10578e-07 1.10578e-07 1.10577e-07 1.10576e-07
          1.10576e-07 1.10575e-07 1.10575e-07 1.10574e-07 1.10574e-07 1.10573e-07 1.10572e-07 1.10572e-07 1.10571e-07 1.1057e-07 1.1057e-07 1.10569e-07
          1.10569e-07 1.10568e-07 1.10567e-07 1.10567e-07 1.10566e-07 1.10565e-07 1.10565e-07 1.10564e-07 1.10564e-07 1.10563e-07 1.10562e-07 1.10562e-07
          1.10561e-07 1.1056e-07 1.1056e-07 1.10559e-07 1.10558e-07 1.10558e-07 1.10557e-07 1.10557e-07 1.10556e-07 1.10555e-07 1.10555e-07 1.10554e-07
          1.10553e-07 1.10553e-07 1.10552e-07 1.10551e-07 1.10551e-07 1.1055e-07 1.10549e-07 1.10549e-07 1.10548e-07 1.10547e-07 1.10547e-07 1.10546e-07
          1.10545e-07 1.10545e-07 1.10544e-07 1.10543e-07 1.10543e-07 1.10542e-07 1.10542e-07 1.10541e-07 1.1054e-07 1.10539e-07 1.10539e-07 1.10538e-07
          1.10537e-07 1.10537e-07 1.10536e-07 1.10535e-07 1.10535e-07 1.10534e-07 1.10533e-07 1.10532e-07 1.10532e-07 1.10531e-07 1.1053e-07 1.1053e-07
          1.10529e-07 1.10528e-07 1.10528e-07 1.10527e-07 1.10526e-07 1.10525e-07 1.10525e-07 1.10524e-07 1.10523e-07 1.10523e-07 1.10522e-07 1.10521e-07
          1.1052e-07 1.1052e-07 1.10519e-07 1.10518e-07 1.10504e-07 1.10272e-07 1.06697e-07 5.8064e-08 -5.08394e-07 -5.97425e-06 -4.79123e-05 -0.000289911
          -0.000672784 -0.000123648 0.00260712 0.00815717 0.0166525 0.0280728 0.0423449 0.0593715 0.0790383 0.101216 0.12576 0.152515
          0.181313 0.211976 0.244314 0.278132 0.313227 0.349389 0.386405 0.424058 0.462129 0.500398 0.538645 0.57665
          0.614198 0.651074 0.687069 0.721977 0.755599 0.787742 0.818221 0.846856 0.873477 0.897926 0.920049 0.939697
          0.956748 0.971165 0.982892 0.991465 0.996074 0.996832 0.994901 0.990649 0.983732 0.974004 0.961391 0.945898
          0.927578 0.906518 0.88283 0.856653 0.828144 0.797479 0.764851 0.73047 0.69456 0.657356 0.619104 0.58006
          0.540483 0.500637 0.460789 0.421202 0.382138 0.343856 0.306605 0.270628 0.236155 0.203407 0.172591 0.143899
          0.117507 0.0935758 0.0722489 0.0536509 0.0378881 0.0250472 0.0151881 0.00829936 0.00411129 0.00184614 0.000759938 0.000288125
          0.000101511 3.33972e-05 1.03253e-05 3.01247e-06 8.3332e-07 2.19499e-07 5.54478e-08 1.36896e-08 3.53719e-09 1.17249e-09 6.43291e-10 5.29111e-10
          5.05354e-10 5.00392e-10 4.99108e-10 4.99011e-10 4.99122e-10 4.99244e-10 4.99255e-10 4.99044e-10 4.98731e-10 4.99102e-10 4.99365e-10 4.99327e-10
          4.99508e-10 4.99544e-10 4.9934e-10 4.98744e-10 4.98213e-10 4.98038e-10 4.98475e-10 4.98054e-10 4.97065e-10 4.97121e-10 4.97349e-10 4.97466e-10
          4.97429e-10 4.97583e-10 4.97482e-10 4.96782e-10 4.96538e-10 4.96952e-10 4.96752e-10 4.96711e-10 4.97052e-10 4.96333e-10 4.95853e-10 4.96272e-10
          4.96542e-10 4.96264e-10 4.96179e-10 4.96513e-10 4.95925e-10 4.95723e-10 4.9607e-10 4.96168e-10 4.95463e-10 4.94475e-10 4.9462e-10 4.95046e-10
          4.95203e-10 4.94802e-10 4.94478e-10 4.94802e-10 4.94756e-10 4.94542e-10 4.94563e-10 4.94316e-10 4.94267e-10 4.94421e-10 4.94836e-10 4.95304e-10
          4.95172e-10 4.94982e-10 4.94709e-10 4.94292e-10 4.94202e-10 4.94423e-10 4.94464e-10 4.94055e-10 4.94368e-10 4.94722e-10 4.94188e-10 4.93906e-10
          4.93891e-10 4.9411e-10 4.94273e-10 4.93965e-10 4.93711e-10 4.93695e-10 4.93228e-10 4.92702e-10 4.92376e-10 4.91932e-10 4.91621e-10 4.91848e-10
          4.92218e-10 4.9227e-10 4.92063e-10 4.91971e-10 4.91686e-10 4.91625e-10 4.92111e-10 4.9193e-10 4.92153e-10 4.91957e-10 4.91273e-10 4.90839e-10
          4.90764e-10 4.91208e-10 4.91432e-10 4.91245e-10 4.90748e-10 4.90674e-10 4.90888e-10 4.91017e-10 4.91185e-10 4.91023e-10 4.91095e-10 4.91137e-10
          4.90751e-10 4.90634e-10 4.90768e-10 4.90723e-10 4.90863e-10 4.90962e-10 4.90737e-10 4.90628e-10 4.90169e-10 4.89781e-10 4.89847e-10 4.89613e-10
          4.89213e-10 4.89117e-10 4.89446e-10 4.89686e-10 4.89854e-10 4.8977e-10 4.89459e-10 4.89205e-10 4.89009e-10 4.88959e-10 4.88935e-10 4.89039e-10
          4.88906e-10 4.88453e-10 4.88563e-10 4.89039e-10 4.89216e-10 4.89244e-10 4.8913e-10 4.89448e-10 4.89577e-10 4.8943e-10 4.89132e-10 4.88599e-10
          4.88168e-10 4.87777e-10 4.87711e-10 4.87785e-10 4.87815e-10 4.87774e-10 4.87335e-10 4.87165e-10 4.8712e-10 4.87002e-10 4.87159e-10 4.8711e-10
          4.86928e-10 4.86779e-10 4.86749e-10 4.86883e-10 4.86797e-10 4.86821e-10 4.86742e-10 4.86115e-10 4.85733e-10 4.85524e-10 4.85326e-10 4.85402e-10
          4.85284e-10 4.85034e-10 4.84742e-10 4.84666e-10 4.84743e-10 4.84766e-10 4.84288e-10 4.76008e-10 3.33133e-10 -1.97606e-09 -3.50356e-08 -4.42949e-07
          -4.63418e-06 -2.40892e-05 -5.90852e-06 0.000158838 0.000234476 0.000110663 5.82368e-05 2.39958e-05 9.65943e-06 3.46663e-06 1.23252e-06 4.55028e-07
          2.11086e-07 1.38086e-07 1.17763e-07 1.12362e-07 1.11005e-07 1.10678e-07 1.10603e-07 1.10585e-07 1.10581e-07 1.1058e-07 1.10579e-07 1.10579e-07
          1.10578e-07 1.10578e-07 1.10577e-07 1.10576e-07 1.10576e-07 1.10575e-07 1.10575e-07 1.10574e-07 1.10574e-07 1.10573e-07 1.10572e-07 1.10572e-07
          1.10571e-07 1.1057e-07 1.1057e-07 1.10569e-07 1.10568e-07 1.10568e-07 1.10567e-07 1.10567e-07 1.10566e-07 1.10565e-07 1.10565e-07 1.10564e-07
          1.10563e-07 1.10563e-07 1.10562e-07 1.10561e-07 1.10561e-07 1.1056e-07 1.10559e-07 1.10559e-07 1.10558e-07 1.10558e-07 1.10557e-07 1.10556e-07
          1.10556e-07 1.10555e-07 1.10554e-07 1.10554e-07 1.10553e-07 1.10552e-07 1.10552e-07 1.10551e-07 1.10551e-07 1.1055e-07 1.10549e-07 1.10549e-07
          1.10548e-07 1.10547e-07 1.10547e-07 1.10546e-07 1.10545e-07 1.10545e-07 1.10544e-07 1.10543e-07 1.10543e-07 1.10542e-07 1.10541e-07 1.10541e-07
          1.1054e-07 1.10539e-07 1.10539e-07 1.10538e-07 1.10537e-07 1.10536e-07 1.10536e-07 1.10535e-07 1.10534e-07 1.10534e-07 1.10533e-07 1.10532e-07
          1.10531e-07 1.10531e-07 1.1053e-07 1.10529e-07 1.10529e-07 1.10528e-07 1.10527e-07 1.10527e-07 1.10526e-07 1.10525e-07 1.10525e-07 1.10524e-07
          1.10523e-07 1.10522e-07 1.10521e-07 1.10521e-07 1.1052e-07 1.10519e-07 1.10518e-07 1.10517e-07 1.10503e-07 1.10271e-07 1.06696e-07 5.80633e-08
          -5.08395e-07 -5.97425e-06 -4.79123e-05 -0.000289911 -0.000672784 -0.000123648 0.00260712 0.00815717 0.0166525 0.0280728 0.0423449 0.0593715
          0.0790383 0.101216 0.12576 0.152515 0.181313 0.211976 0.244314 0.278132 0.313227 0.349389 0.386405 0.424058
          0.462129 0.500398 0.538645 0.57665 0.614198 0.651074 0.687069 0.721977 0.755599 0.787742 0.818221 0.846856
          0.873477 0.897926 0.920049 0.939697 0.956748 0.971165 0.982892 0.991465 0.996074 0.996832 0.994901 0.990649
          0.983732 0.974004 0.961391 0.945898 0.927578 0.906518 0.88283 0.856653 0.828144 0.797479 0.764851 0.73047
          0.69456 0.657356 0.619104 0.58006 0.540483 0.500637 0.460789 0.421202 0.382138 0.343856 0.306605 0.270628
          0.236155 0.203407 0.172591 0.143899 0.117507 0.0935758 0.0722489 0.0536509 0.0378881 0.0250472 0.0151881 0.00829936
          0.00411129 0.00184614 0.000759938 0.000288125 0.000101511 3.33972e-05 1.03253e-05 3.01247e-06 8.33319e-07 2.19499e-07 5.54474e-08 1.36892e-08
          3.53545e-09 1.17098e-09 6.41604e-10 5.26548e-10 5.03385e-10 5.00163e-10 4.9869e-10 4.97895e-10 4.98077e-10 4.97653e-10 4.97093e-10 4.96871e-10
          4.98021e-10 4.98605e-10 4.98622e-10 4.98248e-10 4.97062e-10 4.96942e-10 4.97992e-10 4.97998e-10 4.98065e-10 4.97851e-10 4.97174e-10 4.97033e-10
          4.97584e-10 4.97743e-10 4.97518e-10 4.9722e-10 4.96772e-10 4.97135e-10 4.97363e-10 4.97464e-10 4.97021e-10 4.97087e-10 4.97081e-10 4.96552e-10
          4.96449e-10 4.96147e-10 4.96364e-10 4.96413e-10 4.96117e-10 4.9572e-10 4.95249e-10 4.94914e-10 4.94658e-10 4.94796e-10 4.94966e-10 4.94316e-10
          4.94463e-10 4.95304e-10 4.95467e-10 4.95406e-10 4.95552e-10 4.95782e-10 4.9518e-10 4.9509e-10 4.95215e-10 4.94941e-10 4.94909e-10 4.94984e-10
          4.94512e-10 4.94136e-10 4.94032e-10 4.93392e-10 4.93545e-10 4.94243e-10 4.94437e-10 4.94308e-10 4.93938e-10 4.93785e-10 4.93503e-10 4.93318e-10
          4.93164e-10 4.926e-10 4.92456e-10 4.92667e-10 4.92906e-10 4.93216e-10 4.93277e-10 4.93334e-10 4.93176e-10 4.92883e-10 4.92777e-10 4.92741e-10
          4.92758e-10 4.93081e-10 4.93376e-10 4.93218e-10 4.92794e-10 4.92243e-10 4.92185e-10 4.92517e-10 4.93009e-10 4.92699e-10 4.92157e-10 4.92182e-10
          4.91976e-10 4.92161e-10 4.92636e-10 4.92738e-10 4.92847e-10 4.92596e-10 4.92352e-10 4.92372e-10 4.92014e-10 4.92063e-10 4.91993e-10 4.91746e-10
          4.91619e-10 4.91483e-10 4.91445e-10 4.91249e-10 4.91102e-10 4.91053e-10 4.91031e-10 4.90617e-10 4.90254e-10 4.903e-10 4.90121e-10 4.89952e-10
          4.90068e-10 4.90185e-10 4.90108e-10 4.89845e-10 4.89804e-10 4.89766e-10 4.89569e-10 4.89343e-10 4.89512e-10 4.89907e-10 4.89818e-10 4.8994e-10
          4.89812e-10 4.89264e-10 4.88958e-10 4.89085e-10 4.89271e-10 4.89221e-10 4.89261e-10 4.89222e-10 4.88791e-10 4.88604e-10 4.88637e-10 4.88567e-10
          4.88212e-10 4.87806e-10 4.87749e-10 4.87742e-10 4.87931e-10 4.88269e-10 4.87929e-10 4.87512e-10 4.87917e-10 4.87833e-10 4.87199e-10 4.87272e-10
          4.87718e-10 4.87495e-10 4.87163e-10 4.87133e-10 4.87002e-10 4.86747e-10 4.86416e-10 4.86406e-10 4.8645e-10 4.86356e-10 4.86116e-10 4.85842e-10
          4.85798e-10 4.8573e-10 4.85604e-10 4.85841e-10 4.85748e-10 4.85565e-10 4.85492e-10 4.85119e-10 4.84701e-10 4.84398e-10 4.84315e-10 4.76655e-10
          3.33854e-10 -1.97529e-09 -3.5035e-08 -4.42949e-07 -4.63419e-06 -2.40892e-05 -5.90852e-06 0.000158838 0.000234476 0.000110663 5.82368e-05 2.39958e-05
          9.65943e-06 3.46663e-06 1.23252e-06 4.55028e-07 2.11085e-07 1.38085e-07 1.17762e-07 1.12362e-07 1.11005e-07 1.10678e-07 1.10602e-07 1.10585e-07
          1.10581e-07 1.1058e-07 1.10579e-07 1.10578e-07 1.10577e-07 1.10577e-07 1.10576e-07 1.10576e-07 1.10575e-07 1.10574e-07 1.10574e-07 1.10573e-07
          1.10573e-07 1.10572e-07 1.10572e-07 1.10571e-07 1.1057e-07 1.1057e-07 1.10569e-07 1.10569e-07 1.10568e-07 1.10568e-07 1.10567e-07 1.10566e-07
          1.10566e-07 1.10565e-07 1.10564e-07 1.10564e-07 1.10563e-07 1.10563e-07 1.10562e-07 1.10562e-07 1.10561e-07 1.10561e-07 1.1056e-07 1.10559e-07
          1.10559e-07 1.10558e-07 1.10557e-07 1.10557e-07 1.10556e-07 1.10556e-07 1.10555e-07 1.10554e-07 1.10554e-07 1.10553e-07 1.10552e-07 1.10552e-07
          1.10551e-07 1.1055e-07 1.10549e-07 1.10549e-07 1.10548e-07 1.10547e-07 1.10547e-07 1.10546e-07 1.10546e-07 1.10545e-07 1.10544e-07 1.10544e-07
          1.10543e-07 1.10542e-07 1.10541e-07 1.10541e-07 1.1054e-07 1.10539e-07 1.10539e-07 1.10538e-07 1.10537e-07 1.10537e-07 1.10536e-07 1.10535e-07
          1.10534e-07 1.10534e-07 1.10533e-07 1.10532e-07 1.10532e-07 1.10531e-07 1.1053e-07 1.10529e-07 1.10528e-07 1.10528e-07 1.10527e-07 1.10526e-07
          1.10526e-07 1.10525e-07 1.10524e-07 1.10523e-07 1.10523e-07 1.10522e-07 1.10521e-07 1.1052e-07 1.1052e-07 1.10519e-07 1.10518e-07 1.10517e-07
          1.10502e-07 1.10271e-07 1.06695e-07 5.8063e-08 -5.08396e-07 -5.97425e-06 -4.79123e-05 -0.000289911 -0.000672784 -0.000123648 0.00260712 0.00815717
          0.0166525 0.0280728 0.0423449 0.0593715 0.0790383 0.101216 0.12576 0.152515 0.181313 0.211976 0.244314 0.278132
          0.313227 0.349389 0.386405 0.424058 0.462129 0.500398 0.538645 0.57665 0.614198 0.651074 0.687069 0.721977
          0.755599 0.787742 0.818221 0.846856 0.873477 0.897926 0.920049 0.939697 0.956748 0.971165 0.982892 0.991465
          0.996074 0.996832 0.994901 0.990649 0.983732 0.974004 0.961391 0.945898 0.927578 0.906518 0.88283 0.856653
          0.828144 0.797479 0.764851 0.73047 0.69456 0.657356 0.619104 0.58006 0.540483 0.500637 0.460789 0.421202
          0.382138 0.343856 0.306605 0.270628 0.236155 0.203407 0.172591 0.143899 0.117507 0.0935758 0.0722489 0.0536509
          0.0378881 0.0250472 0.0151881 0.00829936 0.00411129 0.00184614 0.000759938 0.000288125 0.000101511 3.33972e-05 1.03253e-05 3.01247e-06
          8.3332e-07 2.19498e-07 5.54469e-08 1.36892e-08 3.53525e-09 1.17024e-09 6.4222e-10 5.28927e-10 5.05246e-10 5.00405e-10 5.00154e-10 5.00204e-10
          4.99341e-10 4.99296e-10 4.99736e-10 4.99616e-10 4.99008e-10 4.99038e-10 4.98546e-10 4.97867e-10 4.98331e-10 4.98471e-10 4.98396e-10 4.97624e-10
          4.97216e-10 4.97186e-10 4.97108e-10 4.97793e-10 4.98189e-10 4.97204e-10 4.96631e-10 4.97552e-10 4.97419e-10 4.96433e-10 4.96411e-10 4.96999e-10
          4.96123e-10 4.95602e-10 4.96477e-10 4.97242e-10 4.97043e-10 4.96953e-10 4.96593e-10 4.95703e-10 4.96208e-10 4.96168e-10 4.96158e-10 4.96093e-10
          4.95754e-10 4.95629e-10 4.95529e-10 4.95329e-10 4.95189e-10 4.95729e-10 4.9563e-10 4.95579e-10 4.95234e-10 4.94625e-10 4.94463e-10 4.94904e-10
          4.95356e-10 4.94804e-10 4.94631e-10 4.94429e-10 4.94163e-10 4.93729e-10 4.93869e-10 4.94636e-10 4.94222e-10 4.9373e-10 4.9381e-10 4.94363e-10
          4.94282e-10 4.94149e-10 4.94931e-10 4.94874e-10 4.94188e-10 4.9406e-10 4.94248e-10 4.94276e-10 4.94469e-10 4.94426e-10 4.94255e-10 4.94193e-10
          4.94023e-10 4.93552e-10 4.93132e-10 4.93382e-10 4.93309e-10 4.9317e-10 4.93255e-10 4.93152e-10 4.92923e-10 4.92538e-10 4.92477e-10 4.92367e-10
          4.91939e-10 4.91706e-10 4.92027e-10 4.92677e-10 4.92854e-10 4.92697e-10 4.92589e-10 4.92539e-10 4.92372e-10 4.92012e-10 4.91938e-10 4.91926e-10
          4.91755e-10 4.91615e-10 4.91377e-10 4.914e-10 4.91226e-10 4.90803e-10 4.90546e-10 4.90391e-10 4.90147e-10 4.90197e-10 4.90054e-10 4.90151e-10
          4.90446e-10 4.90333e-10 4.9015e-10 4.89994e-10 4.89749e-10 4.89794e-10 4.90046e-10 4.90055e-10 4.89934e-10 4.89923e-10 4.89948e-10 4.89464e-10
          4.89104e-10 4.89071e-10 4.89184e-10 4.88922e-10 4.88649e-10 4.89258e-10 4.89658e-10 4.89337e-10 4.8899e-10 4.88733e-10 4.88467e-10 4.88538e-10
          4.88634e-10 4.88712e-10 4.88511e-10 4.88381e-10 4.88314e-10 4.88339e-10 4.88618e-10 4.88416e-10 4.88042e-10 4.87899e-10 4.88077e-10 4.88072e-10
          4.87701e-10 4.87321e-10 4.86863e-10 4.86629e-10 4.87022e-10 4.87217e-10 4.87194e-10 4.87409e-10 4.8761e-10 4.87559e-10 4.87314e-10 4.8691e-10
          4.86686e-10 4.87016e-10 4.87005e-10 4.86923e-10 4.8727e-10 4.87022e-10 4.86421e-10 4.85955e-10 4.85876e-10 4.85948e-10 4.85879e-10 4.8582e-10
          4.8556e-10 4.85235e-10 4.84662e-10 4.76795e-10 3.34129e-10 -1.97545e-09 -3.50353e-08 -4.42949e-07 -4.63419e-06 -2.40892e-05 -5.90851e-06 0.000158838
          0.000234476 0.000110663 5.82368e-05 2.39958e-05 9.65943e-06 3.46663e-06 1.23252e-06 4.55028e-07 2.11085e-07 1.38086e-07 1.17763e-07 1.12362e-07
          1.11005e-07 1.10678e-07 1.10603e-07 1.10586e-07 1.10582e-07 1.1058e-07 1.1058e-07 1.10579e-07 1.10578e-07 1.10578e-07 1.10577e-07 1.10576e-07