<?xml version="1.0"?>
<VTKFile type="UnstructuredGrid" version="0.1" byte_order="LittleEndian">
  <UnstructuredGrid>
    <Piece NumberOfCells="1670" NumberOfPoints="911">
      <PointData Scalars="S_aq">
        <DataArray type="Float32" Name="S_aq" NumberOfComponents="1" format="ascii">
          0.212052 0.218781 0.219127 0.158199 0.170551 0.15773 0.170711 0.292544 0.292843 0.267343 0.292379 0.266819
          0.267277 0.26689 0.158356 0.157887 0.170741 0.292749 0.170898 0.227103 0.193189 0.196941 0.201952 0.229385
          0.235491 0.240106 0.211204 0.222849 0.204873 0.212137 0.201215 0.184437 0.18646 0.245911 0.211269 0.211982
          0.205047 0.22662 0.222427 0.237355 0.256841 0.240062 0.248433 0.176704 0.187852 0.181868 0.234625 0.234874
          0.191405 0.256616 0.247128 0.226692 0.236634 0.1979 0.190118 0.157823 0.171941 0.157881 0.211714 0.20202
          0.207765 0.292889 0.29279 0.265137 0.211512 0.221835 0.215557 0.167184 0.273575 0.22695 0.197663 0.177752
          0.198404 0.205541 0.227403 0.197155 0.193033 0.219227 0.248071 0.233847 0.239055 0.181869 0.191989 0.187868
          0.292959 0.292971 0.267503 0.15764 0.170427 0.157631 0.157813 0.170596 0.157799 0.292817 0.292836 0.267028
          0.233762 0.248076 0.239236 0.192226 0.182088 0.188192 0.211275 0.218633 0.271017 0.204668 0.168523 0.19663
          0.188743 0.217086 0.25475 0.204414 0.211481 0.218361 0.227724 0.253142 0.17865 0.182246 0.253199 0.17889
          0.157562 0.222026 0.293022 0.201783 0.251348 0.219105 0.204481 0.251775 0.179548 0.271838 0.168076 0.168255
          0.271755 0.251806 0.179765 0.176432 0.202054 0.180285 0.227698 0.274993 0.19668 0.166361 0.195891 0.191726
          0.409911 0.42018 0.39742 0.431231 0.382616 0.363098 0.380155 0.361276 0.331863 0.323427 0.322983 0.308089
          0.316717 0.311394 0.311983 0.322471 0.310683 0.799004 0.675294 0.805048 0.302046 0.345385 0.36415 0.349888
          0.316089 0.350586 0.668073 0.407225 0.388502 0.421784 0.319876 0.348303 0.364342 0.355159 0.585491 0.592696
          0.585315 0.679065 0.596047 0.672168 0.48826 0.502462 0.534212 0.559261 0.483617 0.449701 0.451281 0.404917
          0.368954 0.452807 0.453996 0.344642 0.356261 0.343351 0.436645 0.473608 0.454969 0.355592 0.405676 1
          1 0.822675 0.303696 0.373348 0.889024 0.452569 0.435645 0.47204 0.528866 0.573567 0.448193 0.348347
          0.3347 0.341561 0.365904 0.302159 0.301502 0.31449 0.314141 0.331787 0.326049 0.530762 0.5885 0.517348
          0.418897 0.434911 0.582837 0.335837 0.782896 0.306907 0.814983 0.376168 0.379798 0.330911 0.698545 0.652031
          0.702513 0.374577 0.411358 0.419902 0.392253 0.39046 0.300999 0.394527 0.383815 0.349145 0.337334 0.367804
          0.391598 0.328226 0.735036 0.864774 1 1 0.832957 1 1 0.835135 0.340762 0.666853
          0.328667 0.52943 0.483233 0.520441 0.567927 0.537665 0.424673 0.498327 0.336656 0.487873 0.454948 0.492592
          0.421394 0.363203 0.703868 0.300748 0.30413 0.322695 0.31201 0.317846 0.436861 0.349849 0.313994 0.40727
          0.393482 0.478451 0.623586 0.598053 0.583507 0.62022 0.669324 0.342592 0.302363 0.741287 0.324143 0.336675
          0.32848 0.383715 0.326667 0.357998 0.436278 0.30953 0.536205 0.348898 1 0.54315 0.336502 0.299655
          0.379033 0.476678 0.376682 0.329354 0.871524 0.871006 0.299207 1 1 0.319628 0.307477 0.299176
          0.399601 0.356291 0.313367 0.329237 0.338052 0.45378 0.6929 0.410713 0.299066 0.521242 0.320883 0.895516
          0.334565 0.432489 0.302099 0.309853 0.36443 0.465324 0.31978 0.645727 0.520914 0.473405 0.365847 0.308308
          0.889107 0.895989 0.372895 0.297345 0.316846 0.879316 0.871459 0.614572 0.859971 0.694619 0.807901 0.636247
          0.571753 0.541223 0.576011 0.334956 0.346857 0.343315 0.329035 0.315073 0.30314 0.303688 0.299854 0.312078
          0.63506 0.559412 0.533267 0.500369 0.58399 0.472981 0.453811 0.436473 0.361021 0.356198 0.343123 0.300573
          0.301978 0.560278 0.499799 0.322554 0.316725 0.329255 0.342241 0.355032 0.373594 0.356839 0.342374 0.463714
          0.508641 0.302998 0.37073 0.381665 0.397149 0.487823 0.45963 0.573727 0.505542 0.546383 0.494546 0.421978
          0.425375 0.529077 0.587548 0.587716 0.582419 0.658202 0.392406 0.320514 0.324076 0.690781 0.308203 0.428105
          0.462037 0.351751 0.317247 0.652317 0.649956 0.735437 0.316895 0.339407 0.339691 0.489699 0.328054 0.314142
          0.309236 0.317975 0.31017 1 0.49529 0.626961 0.695973 0.455764 0.464594 0.44799 0.486991 0.348237
          0.342132 0.334682 0.422311 0.667137 0.71119 0.747937 0.632293 1 0.524845 0.360165 0.357893 0.322638
          0.301283 0.328739 0.582683 0.549576 0.328474 0.321053 0.308266 0.318675 0.349313 0.385128 0.403791 0.390265
          0.327494 0.328523 0.665554 0.426717 0.378112 0.330116 0.869454 0.752208 0.867479 0.831718 0.33031 0.394776
          0.734758 0.307134 0.312122 0.302301 1 1 1 0.835875 1 1 0.45707 0.539809
          0.355782 0.889233 0.862445 0.863772 0.60617 0.462714 0.322716 0.312072 0.407908 0.333294 0.438907 0.372037
          0.379087 0.392022 0.402751 0.413225 0.371925 0.311902 0.338565 0.408145 0.402697 0.410925 1 1
          0.435954 0.433979 0.363192 0.32165 0.406882 0.314846 0.4242 0.30213 0.300616 0.356923 0.357317 0.369072
          0.893017 0.520137 0.473169 0.392127 0.383246 0.36414 0.407299 0.372606 0.299283 0.349679 0.436364 0.459606
          0.322727 0.519945 0.348073 0.334483 0.421087 0.330579 0.393667 0.724108 0.300084 0.307691 0.364242 0.383644
          0.401072 0.384344 0.368764 0.382882 0.438976 0.367974 0.371146 0.308149 0.87265 0.875244 0.782279 0.784392
          0.419072 0.726359 0.520928 0.530704 0.508872 0.541072 0.494254 0.474453 0.491811 0.472571 0.441257 0.432041
          0.431523 0.41516 0.424662 0.418778 0.419507 0.431041 0.418038 0.848223 0.750516 0.8531 0.4085 0.455832
          0.475548 0.460632 0.423949 0.461363 0.744588 0.518348 0.500095 0.532203 0.428148 0.45896 0.475742 0.46618
          0.676562 0.682521 0.676442 0.753435 0.685421 0.747913 0.592839 0.605328 0.632917 0.654369 0.58872 0.558142
          0.559576 0.516119 0.480466 0.560981 0.562051 0.455068 0.467353 0.45369 0.546106 0.579784 0.562946 0.466649
          0.516865 1 1 0.866692 0.398616 0.410379 0.398649 0.484938 0.917094 0.560746 0.54517 0.57837
          0.628374 0.666405 0.556754 0.459026 0.444377 0.451784 0.477354 0.398618 0.408781 0.408013 0.422243 0.421871
          0.441193 0.434918 0.630005 0.679042 0.618383 0.529483 0.544492 0.674253 0.445579 0.835404 0.413896 0.860741
          0.487806 0.491451 0.398652 0.44024 0.769097 0.39867 0.398665 0.731561 0.772318 0.48618 0.522306 0.530433
          0.503794 0.502046 0.407497 0.50604 0.495456 0.459868 0.447224 0.4793 0.503173 0.437331 0.798171 0.89873
          1 1 0.87448 1 1 0.876148 0.450908 0.743633 0.437818 0.62883 0.5884 0.621021
          0.661746 0.635941 0.534927 0.601734 0.446447 0.592496 0.562918 0.59666 0.531838 0.474547 0.773456 0.398628
          0.407082 0.410814 0.431289 0.419554 0.42596 0.546307 0.460614 0.421635 0.518392 0.505007 0.584117 0.708301
          0.686931 0.674889 0.705336 0.745699 0.45286 0.39863 0.409023 0.803205 0.432868 0.446515 0.43761 0.495356
          0.435562 0.46918 0.545756 0.416815 0.634678 0.459607 1 0.64069 0.446302 0.405951 0.490679 0.582542
          0.488302 0.438556 0.903789 0.903472 0.405475 1 1 0.427912 0.414452 0.40536 0.510986 0.467394
          0.420972 0.438429 0.447996 0.398654 0.561849 0.764725 0.521697 0.405343 0.621754 0.42926 0.921982 0.444221
          0.542246 0.408748 0.417207 0.475838 0.572327 0.428018 0.726402 0.621441 0.57959 0.477285 0.39856 0.415378
          0.917305 0.922599 0.484479 0.403655 0.42477 0.903799 0.909918 0.398484 0.700765 0.356601 0.363555 0.356693
          0.342432 0.334809 0.34235 0.388614 0.305559 0.305486 0.3885 0.305371 0.305459 0.388441 0.388576 0.349813
          0.349408 0.363792 0.35331 0.334807 0.345931 0.364309 0.368725 0.373456 0.334174 0.329194 0.323838 0.377276
          0.319358 0.363322 0.335269 0.31189 0.323904 0.317488 0.363411 0.360278 0.371769 0.335145 0.338629 0.325773
          0.328056 0.369776 0.328011 0.311881 0.318357 0.383415 0.378074 0.349573 0.359407 0.353254 0.349637 0.339492
          0.345971 0.387593 0.30683 0.363637 0.334908 0.302067 0.391286 0.358632 0.340325 0.356919 0.355114 0.342126
          0.343992 0.348492 0.333701 0.364722 0.350703 0.363429 0.335199 0.388709 0.305438 0.369105 0.378726 0.372893
          0.328836 0.317568 0.3244 0.317476 0.328751 0.324465 0.378703 0.369116 0.372878 0.305546 0.388577 0.349609
          0.390371 0.342572 0.303587 0.356476 0.384432 0.379049 0.3261 0.381514 0.313236 0.343956 0.355137 0.381646
          0.371735 0.314177 0.314089 0.381605 0.339412 0.359461 0.380401 0.315527 0.390589 0.30314 0.380747 0.315187
          0.315096 0.380717 0.303033 0.39055 0.372683 0.392027 0.334143 0.364284 0.301496 0.377221 0.370897
        </DataArray>
        <DataArray type="Float32" Name="p_aq" NumberOfComponents="1" format="ascii">
          100099 100091 100091 100143 100139 100142 100139 100043 100043 100052 100043 100052
          100052 100052 100143 100142 100139 100043 100139 100082 100122 100118 100112 100079
          100073 100069 100101 100087 100108 100099 100113 100130 100128 100065 100100 100100
          100108 100082 100087 100072 100058 100070 100063 100136 100127 100132 100074 100074
          100124 100058 100064 100082 100072 100117 100125 100142 100139 100142 100100 100112
          100105 100043 100043 100053 100100 100087 100095 100140 100050 100082 100117 100135
          100116 100107 100082 100117 100122 100091 100063 100075 100070 100132 100123 100127
          100043 100043 100052 100142 100139 100142 100142 100140 100142 100043 100043 100052
          100075 100063 100070 100123 100132 100127 100100 100091 100051 100109 100140 100118
          100126 100093 100059 100109 100100 100092 100081 100060 100135 100132 100060 100135
          100142 100087 100043 100112 100061 100091 100109 100061 100134 100050 100140 100140
          100050 100061 100134 100136 100112 100133 100081 100049 100118 100140 100119 100123
          100009 100008 100010 100007 100013 100016 100013 100017 100026 100029 100029 100036
          100032 100034 100034 100029 100034 100000 100001 100000 100039 100021 100016 100020
          100032 100020 100001 100009 100012 100008 100030 100020 100016 100018 100001 100001
          100002 100001 100001 100001 100004 100003 100002 100002 100004 100006 100005 100009
          100015 100005 100005 100021 100018 100022 100006 100004 100005 100018 100009 100000
          100000 100000 100038 100014 100000 100005 100006 100004 100002 100002 100006 100020
          100025 100022 100016 100038 100039 100033 100033 100026 100028 100002 100001 100003
          100008 100007 100002 100024 100000 100036 100000 100014 100013 100026 100001 100001
          100001 100014 100009 100008 100011 100011 100039 100011 100012 100020 100024 100015
          100011 100027 100000 100000 100000 100000 100000 100000 100000 100000 100022 100001
          100027 100002 100004 100003 100002 100002 100007 100003 100024 100004 100005 100004
          100008 100016 100001 100039 100037 100029 100034 100031 100006 100020 100033 100009
          100011 100004 100001 100001 100002 100001 100001 100022 100038 100000 100028 100024
          100027 100012 100028 100018 100006 100035 100002 100020 100000 100002 100024 100040
          100013 100004 100014 100026 100000 100000 100040 100000 100000 100030 100036 100040
          100010 100018 100033 100026 100023 100005 100001 100009 100040 100003 100030 100000
          100025 100007 100038 100035 100016 100005 100030 100001 100003 100004 100016 100036
          100000 100000 100014 100041 100032 100000 100000 100001 100000 100001 100000 100001
          100002 100002 100002 100024 100020 100022 100027 100032 100038 100038 100040 100034
          100001 100002 100002 100003 100002 100004 100005 100006 100017 100018 100022 100039
          100038 100002 100003 100029 100032 100026 100022 100018 100014 100018 100022 100005
          100003 100038 100015 100013 100010 100004 100005 100002 100003 100002 100003 100008
          100007 100002 100001 100001 100002 100001 100011 100030 100028 100001 100036 100007
          100005 100019 100031 100001 100001 100000 100032 100023 100023 100004 100027 100033
          100035 100031 100035 100000 100003 100001 100001 100005 100005 100006 100004 100020
          100022 100025 100008 100001 100001 100000 100001 100000 100003 100017 100017 100029
          100039 100027 100002 100002 100027 100030 100035 100031 100020 100012 100009 100011
          100027 100027 100001 100007 100013 100026 100000 100000 100000 100000 100026 100011
          100000 100036 100034 100038 100000 100000 100000 100000 100000 100000 100005 100002
          100018 100000 100000 100000 100001 100005 100029 100034 100009 100025 100006 100014
          100013 100011 100010 100008 100014 100034 100023 100009 100010 100009 100000 100000
          100007 100007 100016 100030 100009 100032 100007 100038 100039 100018 100018 100015
          100000 100003 100004 100011 100012 100016 100009 100014 100040 100020 100006 100005
          100029 100003 100020 100024 100008 100026 100011 100000 100039 100036 100016 100012
          100010 100012 100015 100012 100006 100015 100015 100036 100000 100000 100000 100000
          100008 100000 100007 100007 100008 100006 100010 100012 100010 100013 100018 100020
          100020 100024 100022 100023 100023 100020 100023 100000 100001 100000 100026 100015
          100012 100014 100022 100014 100001 100008 100009 100006 100021 100015 100012 100013
          100002 100002 100002 100001 100002 100001 100004 100003 100002 100002 100004 100005
          100005 100008 100011 100005 100005 100015 100013 100016 100006 100004 100005 100013
          100008 100000 100000 100000 100029 100025 100029 100011 100000 100005 100006 100004
          100003 100002 100005 100015 100017 100016 100012 100029 100026 100026 100022 100022
          100018 100019 100003 100002 100003 100007 100006 100002 100017 100000 100024 100000
          100010 100010 100029 100018 100001 100029 100029 100001 100001 100011 100007 100007
          100009 100009 100026 100009 100010 100014 100017 100012 100009 100019 100001 100000
          100000 100000 100000 100000 100000 100000 100016 100001 100019 100003 100004 100003
          100002 100002 100006 100003 100017 100004 100005 100003 100007 100012 100001 100029
          100026 100025 100020 100023 100021 100006 100014 100022 100008 100009 100004 100001
          100001 100002 100001 100001 100016 100029 100026 100001 100020 100017 100019 100010
          100019 100013 100006 100024 100002 100014 100000 100002 100017 100027 100010 100004
          100010 100018 100000 100000 100027 100000 100000 100021 100024 100027 100008 100013
          100023 100019 100017 100029 100005 100001 100007 100027 100003 100021 100000 100017
          100006 100026 100024 100012 100004 100021 100001 100003 100004 100012 100029 100024
          100000 100000 100011 100027 100022 100000 100000 100029 100001 100040 100038 100040
          100043 100043 100043 100032 100044 100044 100032 100044 100044 100032 100032 100041
          100041 100038 100041 100043 100042 100038 100037 100036 100044 100044 100044 100035
          100044 100039 100043 100044 100044 100044 100038 100039 100036 100043 100043 100044
          100044 100037 100044 100044 100044 100033 100035 100041 100039 100041 100041 100043
          100042 100032 100044 100038 100043 100044 100031 100040 100043 100040 100040 100043
          100042 100042 100044 100038 100041 100039 100043 100032 100044 100037 100034 100036
          100044 100044 100044 100044 100044 100044 100034 100037 100036 100044 100032 100041
          100031 100042 100044 100040 100033 100034 100044 100034 100044 100042 100040 100034
          100036 100044 100044 100034 100043 100039 100034 100044 100031 100044 100034 100044
          100044 100034 100044 100031 100036 100031 100043 100038 100044 100035 100037
        </DataArray>
        <DataArray type="Float32" Name="rho_aq" NumberOfComponents="1" format="ascii">
          1000 1000 1000 1000 1000 1000 1000 1000 1000 1000 1000 1000
          1000 1000 1000 1000 1000 1000 1000 1000 1000 1000 1000 1000
          1000 1000 1000 1000 1000 1000 1000 1000 1000 1000 1000 1000
          1000 1000 1000 1000 1000 1000 1000 1000 1000 1000 1000 1000
          1000 1000 1000 1000 1000 1000 1000 1000 1000 1000 1000 1000
          1000 1000 1000 1000 1000 1000 1000 1000 1000 1000 1000 1000
          1000 1000 1000 1000 1000 1000 1000 1000 1000 1000 1000 1000
          1000 1000 1000 1000 1000 1000 1000 1000 1000 1000 1000 1000
          1000 1000 1000 1000 1000 1000 1000 1000 1000 1000 1000 1000
          1000 1000 1000 1000 1000 1000 1000 1000 1000 1000 1000 1000
          1000 1000 1000 1000 1000 1000 1000 1000 1000 1000 1000 1000
          1000 1000 1000 1000 1000 1000 1000 1000 1000 1000 1000 1000
          1000 1000 1000 1000 1000 1000 1000 1000 1000 1000 1000 1000
          1000 1000 1000 1000 1000 1000 1000 1000 1000 1000 1000 1000
          1000 1000 1000 1000 1000 1000 1000 1000 1000 1000 1000 1000
          1000 1000 1000 1000 1000 1000 1000 1000 1000 1000 1000 1000
          1000 1000 1000 1000 1000 1000 1000 1000 1000 1000 1000 1000
          1000 1000 1000 1000 1000 1000 1000 1000 1000 1000 1000 1000
          1000 1000 1000 1000 1000 1000 1000 1000 1000 1000 1000 1000
          1000 1000 1000 1000 1000 1000 1000 1000 1000 1000 1000 1000
          1000 1000 1000 1000 1000 1000 1000 1000 1000 1000 1000 1000
          1000 1000 1000 1000 1000 1000 1000 1000 1000 1000 1000 1000
          1000 1000 1000 1000 1000 1000 1000 1000 1000 1000 1000 1000
          1000 1000 1000 1000 1000 1000 1000 1000 1000 1000 1000 1000
          1000 1000 1000 1000 1000 1000 1000 1000 1000 1000 1000 1000
          1000 1000 1000 1000 1000 1000 1000 1000 1000 1000 1000 1000
          1000 1000 1000 1000 1000 1000 1000 1000 1000 1000 1000 1000
          1000 1000 1000 1000 1000 1000 1000 1000 1000 1000 1000 1000
          1000 1000 1000 1000 1000 1000 1000 1000 1000 1000 1000 1000
          1000 1000 1000 1000 1000 1000 1000 1000 1000 1000 1000 1000
          1000 1000 1000 1000 1000 1000 1000 1000 1000 1000 1000 1000
          1000 1000 1000 1000 1000 1000 1000 1000 1000 1000 1000 1000
          1000 1000 1000 1000 1000 1000 1000 1000 1000 1000 1000 1000
          1000 1000 1000 1000 1000 1000 1000 1000 1000 1000 1000 1000
          1000 1000 1000 1000 1000 1000 1000 1000 1000 1000 1000 1000
          1000 1000 1000 1000 1000 1000 1000 1000 1000 1000 1000 1000
          1000 1000 1000 1000 1000 1000 1000 1000 1000 1000 1000 1000
          1000 1000 1000 1000 1000 1000 1000 1000 1000 1000 1000 1000
          1000 1000 1000 1000 1000 1000 1000 1000 1000 1000 1000 1000
          1000 1000 1000 1000 1000 1000 1000 1000 1000 1000 1000 1000
          1000 1000 1000 1000 1000 1000 1000 1000 1000 1000 1000 1000
          1000 1000 1000 1000 1000 1000 1000 1000 1000 1000 1000 1000
          1000 1000 1000 1000 1000 1000 1000 1000 1000 1000 1000 1000
          1000 1000 1000 1000 1000 1000 1000 1000 1000 1000 1000 1000
          1000 1000 1000 1000 1000 1000 1000 1000 1000 1000 1000 1000
          1000 1000 1000 1000 1000 1000 1000 1000 1000 1000 1000 1000
          1000 1000 1000 1000 1000 1000 1000 1000 1000 1000 1000 1000
          1000 1000 1000 1000 1000 1000 1000 1000 1000 1000 1000 1000
          1000 1000 1000 1000 1000 1000 1000 1000 1000 1000 1000 1000
          1000 1000 1000 1000 1000 1000 1000 1000 1000 1000 1000 1000
          1000 1000 1000 1000 1000 1000 1000 1000 1000 1000 1000 1000
          1000 1000 1000 1000 1000 1000 1000 1000 1000 1000 1000 1000
          1000 1000 1000 1000 1000 1000 1000 1000 1000 1000 1000 1000
          1000 1000 1000 1000 1000 1000 1000 1000 1000 1000 1000 1000
          1000 1000 1000 1000 1000 1000 1000 1000 1000 1000 1000 1000
          1000 1000 1000 1000 1000 1000 1000 1000 1000 1000 1000 1000
          1000 1000 1000 1000 1000 1000 1000 1000 1000 1000 1000 1000
          1000 1000 1000 1000 1000 1000 1000 1000 1000 1000 1000 1000
          1000 1000 1000 1000 1000 1000 1000 1000 1000 1000 1000 1000
          1000 1000 1000 1000 1000 1000 1000 1000 1000 1000 1000 1000
          1000 1000 1000 1000 1000 1000 1000 1000 1000 1000 1000 1000
          1000 1000 1000 1000 1000 1000 1000 1000 1000 1000 1000 1000
          1000 1000 1000 1000 1000 1000 1000 1000 1000 1000 1000 1000
          1000 1000 1000 1000 1000 1000 1000 1000 1000 1000 1000 1000
          1000 1000 1000 1000 1000 1000 1000 1000 1000 1000 1000 1000
          1000 1000 1000 1000 1000 1000 1000 1000 1000 1000 1000 1000
          1000 1000 1000 1000 1000 1000 1000 1000 1000 1000 1000 1000
          1000 1000 1000 1000 1000 1000 1000 1000 1000 1000 1000 1000
          1000 1000 1000 1000 1000 1000 1000 1000 1000 1000 1000 1000
          1000 1000 1000 1000 1000 1000 1000 1000 1000 1000 1000 1000
          1000 1000 1000 1000 1000 1000 1000 1000 1000 1000 1000 1000
          1000 1000 1000 1000 1000 1000 1000 1000 1000 1000 1000 1000
          1000 1000 1000 1000 1000 1000 1000 1000 1000 1000 1000 1000
          1000 1000 1000 1000 1000 1000 1000 1000 1000 1000 1000 1000
          1000 1000 1000 1000 1000 1000 1000 1000 1000 1000 1000 1000
          1000 1000 1000 1000 1000 1000 1000 1000 1000 1000 1000
        </DataArray>
        <DataArray type="Float32" Name="mob_aq" NumberOfComponents="1" format="ascii">
          2.93104 3.3213 3.34223 0.850046 1.1833 0.838826 1.1881 10.1577 10.1966 7.23644 10.1364 7.18281
          7.22975 7.18999 0.853823 0.842578 1.18901 10.1843 1.19377 3.85094 2.00485 2.17038 2.40554 4.00563
          4.44017 4.78905 2.88416 3.5735 2.55034 2.93576 2.36992 1.65238 1.7298 5.25397 2.88774 2.92711
          2.55916 3.81875 3.54681 4.57888 6.21099 4.78566 5.46514 1.37812 1.78445 1.55753 4.37664 4.39481
          1.92923 6.19022 5.35513 3.82352 4.52488 2.21411 1.87588 0.841033 1.22556 0.842415 2.91227 2.40888
          2.6994 10.2026 10.1897 7.01214 2.90112 3.50947 3.13015 1.08502 7.89664 3.84071 2.20323 1.41334
          2.23732 2.58426 3.87103 2.18006 1.99816 3.34832 5.43445 4.32013 4.70807 1.55757 1.95375 1.78508
          10.2116 10.2132 7.25299 0.83669 1.17956 0.836482 0.840804 1.18465 0.840468 10.1932 10.1956 7.20414
          4.314 5.43487 4.72192 1.96379 1.56551 1.79796 2.88808 3.31235 7.62086 2.53996 1.12341 2.15631
          1.82002 3.21984 6.0194 2.52722 2.89943 3.29593 3.89259 5.87488 1.444 1.57123 5.87997 1.45227
          0.834833 3.52147 10.2199 2.39734 5.71638 3.34093 2.53056 5.75381 1.47509 7.70867 1.1105 1.11565
          7.69976 5.75656 1.48269 1.36908 2.41051 1.50094 3.89087 8.05236 2.15856 1.06186 2.12314 1.94269
          34.7326 37.9433 31.0889 41.6241 27.1257 22.4556 26.5029 22.0504 16.1873 14.7289 14.6547 12.3132
          13.6354 12.8088 12.8986 14.5694 12.7011 378.665 204.706 389.534 11.4414 18.7279 22.6919 19.6314
          13.5361 19.7741 196.957 33.9251 28.6565 38.4625 14.143 19.3101 22.7352 20.7268 123.076 128.534
          122.944 208.843 131.131 201.323 64.702 71.6167 88.9592 104.625 62.5484 48.324 48.9303 33.2419
          23.793 49.5207 49.9843 18.5815 20.9611 18.3292 43.5156 58.0791 50.3659 20.8187 33.4655 1000
          1000 422.769 11.6751 24.8318 572.005 49.4281 43.1617 57.4002 85.8489 114.417 47.7504 19.3189
          16.6993 17.9834 23.0897 11.4573 11.3651 13.2852 13.2309 16.1736 15.1719 86.9431 125.334 79.4133
          37.5312 42.9034 121.108 16.9074 350.938 12.1392 407.978 25.515 26.4133 16.0178 231.25 180.537
          236.032 25.1279 35.1729 37.8536 29.6628 29.179 11.2948 30.2848 27.4328 19.4802 17.1844 23.5261
          29.4855 15.5468 278.197 512.515 1000 1000 443.272 1000 1000 447.728 17.8303 195.669
          15.6236 86.1731 62.3728 81.1065 110.48 91.0112 39.411 69.5517 17.0587 64.5205 50.3576 66.7586
          38.3359 22.479 237.682 11.2598 11.7371 14.6067 12.9026 13.8153 43.5925 19.6234 13.2082 33.9387
          29.9978 60.2126 153.972 132.705 121.602 151.034 198.282 18.182 11.486 286.94 14.849 17.0623
          15.5909 27.4072 15.2778 21.334 43.3855 12.5276 90.1392 19.4302 1000 94.3392 17.0302 11.1086
          26.2223 59.425 25.6409 15.7436 528.441 527.203 11.047 1000 1000 14.1027 12.2229 11.0426
          31.7048 20.9676 13.111 15.7231 17.3184 49.8996 224.576 34.9764 11.0276 81.549 14.3075 589.065
          16.6746 42.0584 11.449 12.576 22.755 54.5552 14.1274 174.375 81.3677 57.9909 23.0766 12.3457
          572.218 590.328 24.7234 10.7932 13.6558 547.418 528.285 146.197 501.46 226.592 394.756 165.407
          113.14 93.1602 116.154 16.746 19.02 18.3222 15.6878 13.3763 11.5959 11.674 11.136 12.913
          164.309 104.725 88.4039 70.5664 121.96 57.8073 49.912 43.4548 21.9941 20.9477 18.2849 11.2356
          11.4318 105.3 70.2822 14.5833 13.6367 15.7263 18.1143 20.7 24.8911 21.0847 18.1398 53.8883
          74.7836 11.5758 24.2091 26.8839 31.0128 64.4974 52.2225 114.53 73.1832 96.342 67.701 38.526
          39.6439 85.9701 124.616 124.742 120.801 186.725 29.7043 14.247 14.8377 222.109 12.33 40.5586
          53.1999 20.014 13.7196 180.82 178.49 278.752 13.6637 17.5731 17.6268 65.3803 15.517 13.231
          12.4837 13.836 12.6237 1000 68.0623 156.961 228.19 50.679 54.2519 47.6736 64.1083 19.2967
          18.0931 16.6959 38.6346 195.968 246.755 296.48 161.771 1000 83.5613 21.8057 21.3115 14.5972
          11.3345 15.6362 120.995 98.3498 15.5899 14.3354 12.3394 13.9485 19.5145 27.7718 32.9123 29.1265
          15.4201 15.5984 194.306 40.0918 25.9935 15.8774 523.507 302.739 518.841 440.757 15.9116 30.3534
          277.813 12.1725 12.9198 11.4773 1000 1000 1000 449.251 1000 1000 51.1966 92.3015
          20.8592 572.547 507.127 510.189 139.215 53.4771 14.6103 12.9121 34.1293 16.4441 44.3236 24.5187
          26.2357 29.6002 32.6095 35.7472 24.4919 12.8861 17.4145 34.2004 32.5939 35.0408 1000 1000
          43.271 42.5769 22.4767 14.4336 33.8229 13.3408 39.2545 11.4533 11.2415 21.1028 21.1874 23.8204
          582.436 80.9388 57.8885 29.6288 27.2869 22.6896 33.9472 24.6543 11.0574 19.5889 43.4161 52.2126
          14.6121 80.8334 19.2637 16.6597 38.2364 15.9591 30.0485 263.42 11.1677 12.2545 22.7127 27.3889
          32.1252 27.5691 23.7486 27.1937 44.3481 23.5653 24.3073 12.322 531.143 537.42 349.912 353.44
          37.5871 266.412 81.3753 86.909 74.9038 93.0684 67.5595 58.4474 66.3845 57.6298 45.1737 41.9035
          41.7244 36.3489 39.4075 37.4932 37.7265 41.5589 37.257 475.351 300.246 486.034 34.3067 50.7061
          58.9273 52.6276 39.1719 52.925 291.645 79.9579 70.4296 87.7808 40.573 51.9527 59.0127 54.9121
          206.09 212.692 205.959 304.557 215.962 296.445 128.643 138.528 162.34 182.863 125.5 103.885
          104.833 78.7478 61.116 105.768 106.485 50.4049 55.4039 49.8646 96.1692 118.874 107.086 55.1083
          79.1511 1000 1000 516.992 31.4257 34.8746 31.4351 63.1558 657.783 105.612 95.5871 117.849
          158.225 195.199 102.973 51.9793 46.3205 49.1241 59.7244 31.4264 34.3913 34.1605 38.6121 38.4909
          45.1506 42.9058 159.694 208.819 149.448 86.2038 95.1668 203.575 46.7677 448.281 35.955 503.216
          64.4891 66.2122 31.4358 44.8042 328.545 31.4411 31.4396 273.429 333.664 63.7308 82.1393 86.7521
          72.2914 71.407 34.0063 73.4388 68.1432 52.3184 47.3843 60.592 71.9764 43.7595 377.188 597.703
          1000 1000 535.564 1000 1000 539.625 48.7865 290.277 43.9333 158.634 125.258 151.729
          190.352 165.124 89.3812 135.629 47.0924 128.379 107.068 131.611 87.5684 58.4888 335.489 31.429
          33.8825 35.007 41.6441 37.7417 39.8387 96.2945 52.6202 38.4141 79.982 72.9093 122.054 243.144
          217.68 204.265 239.48 293.241 49.5413 31.4297 34.4643 386.192 42.1897 47.118 43.8591 68.0945
          43.1326 56.176 95.9513 36.8692 163.957 52.213 1000 169.566 47.038 33.5468 65.8448 120.891
          64.722 44.1973 611.57 610.693 33.4062 1000 1000 40.4934 36.1277 33.3725 76.0109 55.4211
          38.1991 44.1517 47.6758 31.4365 106.349 321.7 81.8012 33.3672 152.368 40.9501 679.423 46.2626
          93.7852 34.3815 36.9933 59.0549 113.543 40.5292 266.469 152.095 118.733 59.6939 31.4099 36.4171
          658.669 682.294 62.9446 32.8725 39.4432 611.599 630.274 31.3886 233.916 21.0339 22.5581 21.0536
          18.151 16.7191 18.1353 28.6864 11.9429 11.9323 28.656 11.9156 11.9284 28.6404 28.6763 19.6162
          19.5337 22.6112 20.338 16.7187 18.8358 22.7277 23.7396 24.8577 16.6035 15.7156 14.7976 25.7868
          14.0589 22.5059 16.8033 12.8843 14.8088 13.7581 22.5256 21.8306 24.4551 16.7805 17.4266 15.1249
          15.5173 23.9849 15.5096 12.8829 13.8974 27.33 25.984 19.5673 21.64 20.3263 19.5803 17.5892
          18.8438 28.4165 12.1279 22.5765 16.7371 11.4444 29.4012 21.4713 17.7471 21.1019 20.7174 18.092
          18.4542 19.3482 16.5176 22.821 19.798 22.5298 16.7904 28.7116 11.9253 23.828 26.1459 24.7228
          15.6529 13.7708 14.8922 13.7562 15.6383 14.9031 26.14 23.8308 24.7192 11.9411 28.6766 19.5746
          29.1549 18.1782 11.6596 21.007 27.5918 26.2261 15.1807 26.8456 13.0908 18.4471 20.7223 26.879
          24.447 13.2365 13.2229 26.8685 17.5741 21.6517 26.5648 13.4475 29.2136 11.596 26.6517 13.3941
          13.38 26.6441 11.5809 29.203 24.6726 29.6015 16.5978 22.7222 11.3643 25.7734 24.2484
        </DataArray>
        <DataArray type="Float32" Name="S_napl" NumberOfComponents="1" format="ascii">
          0.787948 0.781219 0.780873 0.841801 0.829449 0.84227 0.829289 0.707456 0.707157 0.732657 0.707621 0.733181
          0.732723 0.73311 0.841644 0.842113 0.829259 0.707251 0.829102 0.772897 0.806811 0.803059 0.798048 0.770615