<?xml version="1.0"?>
<VTKFile type="PolyData" version="0.1" byte_order="LittleEndian">
  <PolyData>
    <Piece NumberOfLines="199" NumberOfPoints="200">
      <PointData Scalars="S_liq">
        <DataArray type="Float32" Name="S_liq" NumberOfComponents="1" format="ascii">
          1 1 1 1 1 1 1 1 1 1 1 1
          1 1 1 1 1 1 1 1 1 1 1 1
          1 1 1 1 1 1 1 1 1 1 1 1
          1 1 1 1 1 1 1 1 1 1 1 1
          1 1 1 1 1 1 1 1 1 1 1 1
          1 1 1 1 1 1 1 1 1 1 1 1
          1 1 1 1 1 1 1 1 1 1 1 1
          1 1 1 0.890662 0.781833 0.706478 0.643996 0.58693 0.531914 0.477623 0.424098 0.371754
          0.320053 0.266624 0.205894 0.121881 0 0 0 0 0 0 0 0
          0 0 0 0 0 0 0 0 0 0 0 0
          0 0 0 0 0 0 0 0 0 0 0 0
          0 0 0 0 0 0 0 0 0 0 0 0
          0 0 0 0 0 0 0 0 0 0 0 0
          0 0 0 0 0 0 0 0 0 0 0 0
          0 0 0 0.0013925 0.00175105 0.00175043 0.00174966 0.00174886 0.00174802 0.00174714 0.00174621 0.00174525
          0.00174423 0.00174317 0.00174206 0.00174089 0.00173966 0.00173836 0.00173696 0.00173543 0.00173365 0.00173139 0.00172811 0.00172271
          0.0017129 0.00169447 0.00166027 0.00159955 0.00149836 0.00134248 0.0011336 0.001
        </DataArray>
        <DataArray type="Float32" Name="S_gas" NumberOfComponents="1" format="ascii">
          0 0 0 0 0 0 0 0 0 0 0 0
          0 0 0 0 0 0 0 0 0 0 0 0
          0 0 0 0 0 0 0 0 0 0 0 0
          0 0 0 0 0 0 0 0 0 0 0 0
          0 0 0 0 0 0 0 0 0 0 0 0
          0 0 0 0 0 0 0 0 0 0 0 0
          0 0 0 0 0 0 0 0 0 0 0 0
          0 0 0 0.109338 0.218167 0.293522 0.356004 0.41307 0.468086 0.522377 0.575902 0.628246
          0.679947 0.733376 0.794106 0.878119 1 1 1 1 1 1 1 1
          1 1 1 1 1 1 1 1 1 1 1 1
          1 1 1 1 1 1 1 1 1 1 1 1
          1 1 1 1 1 1 1 1 1 1 1 1
          1 1 1 1 1 1 1 1 1 1 1 1
          1 1 1 1 1 1 1 1 1 1 1 1
          1 1 1 0.998608 0.998249 0.99825 0.99825 0.998251 0.998252 0.998253 0.998254 0.998255
          0.998256 0.998257 0.998258 0.998259 0.99826 0.998262 0.998263 0.998265 0.998266 0.998269 0.998272 0.998277
          0.998287 0.998305 0.99834 0.9984 0.998502 0.998658 0.998866 0.999
        </DataArray>
        <DataArray type="Float32" Name="p_liq" NumberOfComponents="1" format="ascii">
          100273 100262 100251 100240 100229 100218 100207 100196 100185 100174 100163 100152
          100141 100130 100119 100107 100096 100085 100074 100063 100052 100041 100030 100019
          100008 99997.1 99986.1 99975 99964 99952.9 99941.9 99930.9 99919.8 99908.8 99897.8 99886.7
          99875.7 99864.6 99853.6 99842.6 99831.5 99820.5 99809.5 99798.4 99787.4 99776.3 99765.3 99754.3
          99743.2 99732.2 99721.1 99710.1 99699.1 99688 99677 99666 99654.9 99643.9 99632.8 99621.8
          99610.8 99599.7 99588.7 99577.7 99566.6 99555.6 99544.5 99533.5 99522.5 99511.4 99500.4 99489.4
          99478.3 99467.3 99456.2 99445.2 99434.2 99423.1 99412.1 99401 99390 99379 99367.9 99356.9
          99345.9 99334.8 99323.8 99312.7 99301.2 99289.1 99276.3 99262.7 99248 99231.8 99213.2 99191.2
          99163.3 99125.6 99067.7 98954.1 98700.1 98700 98699.9 98699.8 98699.7 98699.6 98699.4 98699.3
          98699.2 98699 98698.9 98698.8 98698.6 98698.4 98698.2 98698.1 98697.9 98697.7 98697.5 98697.2
          98697 98696.8 98696.5 98696.2 98696 98695.7 98695.4 98695 98694.7 98694.4 98694 98693.6
          98693.2 98692.8 98692.3 98691.8 98691.4 98690.8 98690.3 98689.7 98689.2 98688.5 98687.9 98687.2
          98686.5 98685.8 98685 98684.2 98683.3 98682.4 98681.5 98680.5 98679.5 98678.4 98677.2 98676.1
          98674.8 98673.5 98672.1 98670.7 98669.2 98667.7 98666 98664.3 98662.5 98660.6 98658.6 98656.5
          98654.4 98652.1 98649.7 98650.8 98649.1 98646.3 98643.5 98640.5 98637.3 98634 98630.5 98626.9
          98623.1 98619.1 98614.9 98610.5 98605.9 98601.1 98596.1 98590.8 98585.3 98579.5 98573.4 98567
          98560.4 98553.3 98545.9 98538.1 98529.8 98521 98511.7 98502.1
        </DataArray>
        <DataArray type="Float32" Name="p_gas" NumberOfComponents="1" format="ascii">
          100273 100262 100251 100240 100229 100218 100207 100196 100185 100174 100163 100152
          100141 100130 100119 100107 100096 100085 100074 100063 100052 100041 100030 100019
          100008 99997.1 99986.1 99975 99964 99952.9 99941.9 99930.9 99919.8 99908.8 99897.8 99886.7
          99875.7 99864.6 99853.6 99842.6 99831.5 99820.5 99809.5 99798.4 99787.4 99776.3 99765.3 99754.3
          99743.2 99732.2 99721.1 99710.1 99699.1 99688 99677 99666 99654.9 99643.9 99632.8 99621.8
          99610.8 99599.7 99588.7 99577.7 99566.6 99555.6 99544.5 99533.5 99522.5 99511.4 99500.4 99489.4
          99478.3 99467.3 99456.2 99445.2 99434.2 99423.1 99412.1 99401 99390 99379 99367.9 99356.9
          99345.9 99334.8 99323.8 99664.4 99894.3 99999.7 100061 100100 100128 100147 100162 100174
          100183 100190 100195 100199 100201 100200 100200 100200 100200 100200 100200 100200
          100200 100200 100199 100199 100199 100199 100199 100199 100198 100198 100198 100198
          100197 100197 100197 100197 100196 100196 100196 100196 100195 100195 100194 100194
          100194 100193 100193 100192 100192 100191 100191 100190 100190 100189 100188 100188
          100187 100186 100185 100185 100184 100183 100182 100181 100180 100179 100178 100177
          100175 100174 100173 100171 100170 100168 100166 100165 100163 100161 100159 100157
          100155 100153 100150 100148 100145 100142 100139 100136 100133 100130 100126 100123
          100119 100115 100111 100106 100102 100097 100092 100087 100081 100075 100069 100063
          100056 100049 100042 100034 100026 100018 100009 100000
        </DataArray>
        <DataArray type="Float32" Name="rho_liq" NumberOfComponents="1" format="ascii">
          1044 1044 1044 1044 1044 1044 1044 1044 1044 1044 1044 1044
          1044 1044 1044 1044 1044 1044 1044 1044 1044 1044 1044 1044
          1044 1044 1044 1044 1044 1044 1044 1044 1044 1044 1044 1044
          1044 1044 1044 1044 1044 1044 1044 1044 1044 1044 1044 1044
          1044 1044 1044 1044 1044 1044 1044 1044 1044 1044 1044 1044
          1044 1044 1044 1044 1044 1044 1044 1044 1044 1044 1044 1044
          1044 1044 1044 1044 1044 1044 1044 1044 1044 1044 1044 1044
          1044 1044 1044 1044 1044 1044 1044 1044 1044 1044 1044 1044
          1044 1044 1044 1044 1044 1044 1044 1044 1044 1044 1044 1044
          1044 1044 1044 1044 1044 1044 1044 1044 1044 1044 1044 1044
          1044 1044 1044 1044 1044 1044 1044 1044 1044 1044 1044 1044
          1044 1044 1044 1044 1044 1044 1044 1044 1044 1044 1044 1044
          1044 1044 1044 1044 1044 1044 1044 1044 1044 1044 1044 1044
          1044 1044 1044 1044 1044 1044 1044 1044 1044 1044 1044 1044
          1044 1044 1044 1044 1044 1044 1044 1044 1044 1044 1044 1044
          1044 1044 1044 1044 1044 1044 1044 1044 1044 1044 1044 1044
          1044 1044 1044 1044 1044 1044 1044 1044
        </DataArray>
        <DataArray type="Float32" Name="rho_gas" NumberOfComponents="1" format="ascii">
          1.679 1.679 1.679 1.679 1.679 1.679 1.679 1.679 1.679 1.679 1.679 1.679
          1.679 1.679 1.679 1.679 1.679 1.679 1.679 1.679 1.679 1.679 1.679 1.679
          1.679 1.679 1.679 1.679 1.679 1.679 1.679 1.679 1.679 1.679 1.679 1.679
          1.679 1.679 1.679 1.679 1.679 1.679 1.679 1.679 1.679 1.679 1.679 1.679
          1.679 1.679 1.679 1.679 1.679 1.679 1.679 1.679 1.679 1.679 1.679 1.679
          1.679 1.679 1.679 1.679 1.679 1.679 1.679 1.679 1.679 1.679 1.679 1.679
          1.679 1.679 1.679 1.679 1.679 1.679 1.679 1.679 1.679 1.679 1.679 1.679
          1.679 1.679 1.679 1.679 1.679 1.679 1.679 1.679 1.679 1.679 1.679 1.679
          1.679 1.679 1.679 1.679 1.679 1.679 1.679 1.679 1.679 1.679 1.679 1.679
          1.679 1.679 1.679 1.679 1.679 1.679 1.679 1.679 1.679 1.679 1.679 1.679
          1.679 1.679 1.679 1.679 1.679 1.679 1.679 1.679 1.679 1.679 1.679 1.679
          1.679 1.679 1.679 1.679 1.679 1.679 1.679 1.679 1.679 1.679 1.679 1.679
          1.679 1.679 1.679 1.679 1.679 1.679 1.679 1.679 1.679 1.679 1.679 1.679
          1.679 1.679 1.679 1.679 1.679 1.679 1.679 1.679 1.679 1.679 1.679 1.679
          1.679 1.679 1.679 1.679 1.679 1.679 1.679 1.679 1.679 1.679 1.679 1.679
          1.679 1.679 1.679 1.679 1.679 1.679 1.679 1.679 1.679 1.679 1.679 1.679
          1.679 1.679 1.679 1.679 1.679 1.679 1.679 1.679
        </DataArray>
        <DataArray type="Float32" Name="mob_liq" NumberOfComponents="1" format="ascii">
          3555.51 3555.51 3555.51 3555.51 3555.51 3555.51 3555.51 3555.51 3555.51 3555.51 3555.51 3555.51
          3555.51 3555.51 3555.51 3555.51 3555.51 3555.51 3555.51 3555.51 3555.51 3555.51 3555.51 3555.51
          3555.51 3555.51 3555.51 3555.51 3555.51 3555.51 3555.51 3555.51 3555.51 3555.51 3555.51 3555.51
          3555.51 3555.51 3555.51 3555.51 3555.51 3555.51 3555.51 3555.51 3555.51 3555.51 3555.51 3555.51
          3555.51 3555.51 3555.51 3555.51 3555.51 3555.51 3555.51 3555.51 3555.51 3555.51 3555.51 3555.51
          3555.51 3555.51 3555.51 3555.51 3555.51 3555.51 3555.51 3555.51 3555.51 3555.51 3555.51 3555.51
          3555.51 3555.51 3555.51 3555.51 3555.51 3555.51 3555.51 3555.51 3555.51 3555.51 3555.51 3555.51
          3555.51 3555.51 3555.51 2512.12 1699.2 1253.71 949.625 718.887 535.088 387.398 271.207 182.67
          116.565 67.3904 31.0335 6.43745 0 0 0 0 0 0 0 0
          0 0 0 0 0 0 0 0 0 0 0 0
          0 0 0 0 0 0 0 0 0 0 0 0
          0 0 0 0 0 0 0 0 0 0 0 0
          0 0 0 0 0 0 0 0 0 0 0 0
          0 0 0 0 0 0 0 0 0 0 0 0
          0 0 0 9.60032e-06 1.90895e-05 1.90692e-05 1.90442e-05 1.9018e-05 1.89906e-05 1.89619e-05 1.89319e-05 1.89005e-05
          1.88676e-05 1.88332e-05 1.87971e-05 1.87593e-05 1.87195e-05 1.86775e-05 1.86326e-05 1.85832e-05 1.85261e-05 1.84537e-05 1.83493e-05 1.81776e-05
          1.7869e-05 1.72984e-05 1.62719e-05 1.45512e-05 1.19604e-05 8.60249e-06 5.17936e-06 3.55551e-06
        </DataArray>
        <DataArray type="Float32" Name="mob_gas" NumberOfComponents="1" format="ascii">
          0 0 0 0 0 0 0 0 0 0 0 0
          0 0 0 0 0 0 0 0 0 0 0 0
          0 0 0 0 0 0 0 0 0 0 0 0
          0 0 0 0 0 0 0 0 0 0 0 0
          0 0 0 0 0 0 0 0 0 0 0 0
          0 0 0 0 0 0 0 0 0 0 0 0
          0 0 0 0 0 0 0 0 0 0 0 0
          0 0 0 108.729 863.78 2103.58 3753.18 5862.83 8531.28 11857.4 15888.4 20626.5
          26149.4 32810.8 41655.5 56324.3 83183.3 83183.3 83183.3 83183.3 83183.3 83183.3 83183.3 83183.3
          83183.3 83183.3 83183.3 83183.3 83183.3 83183.3 83183.3 83183.3 83183.3 83183.3 83183.3 83183.3
          83183.3 83183.3 83183.3 83183.3 83183.3 83183.3 83183.3 83183.3 83183.3 83183.3 83183.3 83183.3
          83183.3 83183.3 83183.3 83183.3 83183.3 83183.3 83183.3 83183.3 83183.3 83183.3 83183.3 83183.3
          83183.3 83183.3 83183.3 83183.3 83183.3 83183.3 83183.3 83183.3 83183.3 83183.3 83183.3 83183.3
          83183.3 83183.3 83183.3 83183.3 83183.3 83183.3 83183.3 83183.3 83183.3 83183.3 83183.3 83183.3
          83183.3 83183.3 83183.3 83164.7 83154 83154 83154.1 83154.1 83154.1 83154.1 83154.2 83154.2
          83154.2 83154.3 83154.3 83154.4 83154.4 83154.4 83154.5 83154.5 83154.6 83154.7 83154.8 83155
          83155.3 83155.9 83157 83158.8 83161.8 83166 83171 83173.7
        </DataArray>
        <DataArray type="Float32" Name="porosity" NumberOfComponents="1" format="ascii">
          0.35 0.35 0.35 0.35 0.35 0.35 0.35 0.35 0.35 0.35 0.35 0.35
          0.35 0.35 0.35 0.35 0.35 0.35 0.35 0.35 0.35 0.35 0.35 0.35
          0.35 0.35 0.35 0.35 0.35 0.35 0.35 0.35 0.35 0.35 0.35 0.35
          0.35 0.35 0.35 0.35 0.35 0.35 0.35 0.35 0.35 0.35 0.35 0.35
          0.35 0.35 0.35 0.35 0.35 0.35 0.35 0.35 0.35 0.35 0.35 0.35
          0.35 0.35 0.35 0.35 0.35 0.35 0.35 0.35 0.35 0.35 0.35 0.35
          0.35 0.35 0.35 0.35 0.35 0.35 0.35 0.35 0.35 0.35 0.35 0.35
          0.35 0.35 0.35 0.35 0.35 0.35 0.35 0.35 0.35 0.35 0.35 0.35
          0.35 0.35 0.35 0.35 0.35 0.35 0.35 0.35 0.35 0.35 0.35 0.35
          0.35 0.35 0.35 0.35 0.35 0.35 0.35 0.35 0.35 0.35 0.35 0.35
          0.35 0.35 0.35 0.35 0.35 0.35 0.35 0.35 0.35 0.35 0.35 0.35
          0.35 0.35 0.35 0.35 0.35 0.35 0.35 0.35 0.35 0.35 0.35 0.35
          0.35 0.35 0.35 0.35 0.35 0.35 0.35 0.35 0.35 0.35 0.35 0.35
          0.35 0.35 0.35 0.35 0.35 0.35 0.35 0.35 0.35 0.35 0.35 0.35
          0.35 0.35 0.35 0.35 0.35 0.35 0.35 0.35 0.35 0.35 0.35 0.35
          0.35 0.35 0.35 0.35 0.35 0.35 0.35 0.35 0.35 0.35 0.35 0.35
          0.35 0.35 0.35 0.35 0.35 0.35 0.35 0.35
        </DataArray>
        <DataArray type="Float32" Name="x^SimpleH2O_liq" NumberOfComponents="1" format="ascii">
          1 1 1 1 1 1 1 1 1 1 1 1
          1 1 1 1 1 1 1 1 1 1 1 1
          1 1 1 1 1 1 1 1 1 1 1 1
          1 1 1 1 1 1 1 1 1 1 1 1
          1 1 1 1 1 1 1 1 1 1 1 1
          1 1 1 1 1 1 1 1 1 1 1 1
          1 1 1 1 1 1 1 1 1 1 1 1
          1 1 1 1 1 1 1 1 1 1 1 1
          1 1 1 1 0.00962714 0.00960062 0.00960061 0.0096006 0.00960058 0.00960057 0.00960056 0.00960054
          0.00960053 0.00960051 0.00960049 0.00960047 0.00960044 0.00960042 0.00960039 0.00960035 0.0096003 0.00960025 0.00960017 0.00960008
          0.00959995 0.00959977 0.00959952 0.00959914 0.00959858 0.00959772 0.00959638 0.00959427 0.00959094 0.0095857 0.00957751 0.00956486
          0.00954564 0.00951698 0.00947521 0.00941588 0.00933394 0.00922428 0.00908245 0.00890577 0.00869452 0.0084531 0.00819085 0.00792223
          0.00766644 0.00744663 0.00728912 0.00722333 0.007283 0.00750913 0.00795548 0.00869774 0.00984802 0.0115778 0.0141542 0.0179963
          0.023761 0.0324663 0.0456491 0.0655179 0.0950186 0.137666 0.196807 0.274449 0.37041 0.480011 0.595557 0.711721
          0.814511 0.896329 0.967029 1 1 1 1 1 1 1 1 1
          1 1 1 1 1 1 1 1 1 1 1 1
          1 1 1 1 1 1 1 0.406912
        </DataArray>
        <DataArray type="Float32" Name="x^N2_liq" NumberOfComponents="1" format="ascii">
          0 0 0 0 0 0 0 0 0 0 0 0
          -0 -0 -0 -0 -0 -0 0 0 0 0 0 0
          0 0 0 0 0 0 0 0 0 0 0 0
          0 0 0 0 0 0 0 0 0 0 0 0
          0 0 0 0 0 0 0 0 0 0 0 0
          0 0 0 0 0 0 0 0 0 0 0 0
          0 0 0 0 0 0 0 0 0 0 0 0
          0 0 1.37841e-35 5.81687e-39 5.00264e-43 0 0 0 0 0 0 0
          0 0 0 0 0 0 0 0 0 0 0 0
          0 0 0 0 0 0 0 0 0 0 0 0
          0 0 0 0 0 0 0 0 0 0 0 0
          0 0 0 0 0 0 0 0 0 0 0 0
          0 0 0 0 0 0 0 0 0 0 0 0
          0 0 0 0 0 0 0 0 0 0 0 0
          0 0 0 0 0 0 0 0 0 0 0 0
          0 0 0 0 0 0 0 0 0 0 0 0
          0 0 0 0 0 0 0 0
        </DataArray>
        <DataArray type="Float32" Name="x^SimpleH2O_gas" NumberOfComponents="1" format="ascii">
          0.03529 0.0352982 0.0353048 0.0353116 0.0353187 0.0353262 0.035334 0.0353423 0.035351 0.0353603 0.0353701 0.0353805
          0.0353917 0.0354036 0.0354164 0.0354301 0.0354449 0.0354608 0.0354781 0.0354967 0.0355169 0.0355389 0.0355628 0.0355889
          0.0356173 0.0356483 0.0356822 0.0357194 0.0357601 0.0358048 0.0358539 0.0359078 0.0359671 0.0360324 0.0361043 0.0361836
          0.0362711 0.0363676 0.0364743 0.0365921 0.0367225 0.0368667 0.0370264 0.0372033 0.0373994 0.037617 0.0378585 0.0381268
          0.0384251 0.038757 0.0391266 0.0395386 0.0399983 0.0405117 0.0410859 0.0417288 0.0424498 0.0432594 0.0441701 0.0451964
          0.0463552 0.0476667 0.0491543 0.0508461 0.0527757 0.0549833 0.0575177 0.0604379 0.0638164 0.0677422 0.0723259 0.0777054
          0.0840545 0.0915934 0.100604 0.111448 0.124598 0.140673 0.160491 0.185145 0.216108 0.255385 0.305729 0.370956
          0.456406 0.56971 0.739447 1 1 1 1 1 1 1 1 1
          1 1 1 1 1 1 1 1 1 1 1 1
          1 1 1 1 1 1 1 1 1 1 1 1
          1 1 1 1 1 1 1 1 1 1 1 1
          1 1 1 1 1 1 1 1 1 1 1 1
          1 1 1 1 1 1 1 1 1 1 1 1
          1 1 1 1 1 1 1 1 1 1 1 1
          1 1 1 1 1 1 1 1 1 1 1 1
          1 1 1 1 1 1 1 1 1 1 1 1
          1 1 1 1 1 1 1 1
        </DataArray>
        <DataArray type="Float32" Name="x^N2_gas" NumberOfComponents="1" format="ascii">
          0 0 0 0 0 0 0 0 0 0 0 0
          -0 -0 -0 -0 -0 -0 0 0 0 0 0 0
          0 0 0 0 0 0 0 0 0 0 0 0
          0 0 0 0 0 0 0 0 0 0 0 0
          0 0 0 0 0 0 0 0 0 0 0 0
          0 0 0 0 0 0 0 0 0 0 0 0
          0 0 0 0 0 0 0 0 0 0 0 0
          0 0 1.62613e-30 6.69146e-34 5.73759e-38 4.47014e-42 0 0 0 0 0 0
          0 0 0 0 0 0 0 0 0 0 0 0
          0 0 0 0 0 0 0 0 0 0 0 0
          0 0 0 0 0 0 0 0 0 0 0 0
          0 0 0 0 0 0 0 0 0 0 0 0
          0 0 0 0 0 0 0 0 0 0 0 0
          0 0 0 0 0 0 0 0 0 0 0 0
          0 0 0 0 0 0 0 0 0 0 0 0
          0 0 0 0 0 0 0 0 0 0 0 0
          0 0 0 0 0 0 0 0
        </DataArray>
        <DataArray type="Float32" Name="fugacity^SimpleH2O" NumberOfComponents="1" format="ascii">
          3538.63 3539.07 3539.34 3539.63 3539.96 3540.32 3540.71 3541.15 3541.63 3542.17 3542.76 3543.42
          3544.15 3544.95 3545.84 3546.82 3547.91 3549.11 3550.45 3551.92 3553.55 3555.36 3557.36 3559.57
          3562.02 3564.73 3567.73 3571.05 3574.72 3578.8 3583.3 3588.3 3593.83 3599.95 3606.74 3614.26
          3622.6 3631.84 3642.09 3653.45 3666.06 3680.05 3695.58 3712.83 3731.99 3753.29 3776.97 3803.31
          3832.65 3865.32 3901.75 3942.4 3987.79 4038.54 4095.32 4158.95 4230.33 4310.53 4400.79 4502.55
          4617.48 4747.59 4895.21 5063.14 5254.7 5473.9 5725.58 6015.6 6351.17 6741.13 7196.46 7730.87
          8361.61 9110.55 10005.7 11083 12389.3 13986.2 15954.7 18403.6 21479 25379.9 30379.7 36857
          45342 56592.1 73444.7 99664.3 99894.3 99999.7 100061 100100 100128 100147 100162 100174
          100183 100190 100195 100199 100201 100200 100200 100200 100200 100200 100200 100200
          100200 100199 100199 100199 100199 100199 100199 100199 100198 100198 100198 100198
          100197 100197 100197 100197 100196 100196 100196 100195 100195 100195 100194 100194
          100194 100193 100193 100192 100192 100191 100191 100190 100190 100189 100188 100188
          100187 100186 100185 100185 100184 100183 100182 100181 100180 100179 100178 100176
          100175 100174 100173 100171 100170 100168 100166 100165 100163 100161 100159 100157
          100155 100153 100150 100148 100145 100142 100139 100136 100133 100130 100126 100123
          100119 100115 100111 100106 100102 100097 100092 100087 100081 100075 100069 100063
          100056 100049 100042 100034 100026 100018 100009 100000
        </DataArray>
        <DataArray type="Float32" Name="fugacity^N2" NumberOfComponents="1" format="ascii">
          0 0 0 0 0 0 0 0 0 0 0 0
          -0 -0 -0 -0 -0 -0 -0 -0 -0 -0 -0 -0
          -0 -0 -0 -0 -0 -0 -0 -0 -0 -0 -0 -0
          -0 -0 -0 -0 -0 -0 -0 0 0 0 0 0
          0 0 0 0 0 0 0 0 0 0 0 0
          0 0 0 0 0 0 0 0 0 0 0 0
          0 0 0 0 0 0 0 0 0 0 0 0
          0 0 4.27512e-37 1.76522e-40 1.54143e-44 0 0 0 0 0 0 0
          0 0 0 0 0 0 0 0 0 0 0 0
          0 0 0 0 0 0 0 0 0 0 0 0
          0 0 0 0 0 0 0 0 0 0 0 0
          0 0 0 0 0 0 0 0 0 0 0 0
          0 0 0 0 0 0 0 0 0 0 0 0
          0 0 0 0 0 0 0 0 0 0 -0 -0
          -0 -0 -0 -0 -0 -0 -0 -0 -0 -0 -0 -0
          -0 -0 -0 -0 -0 -0 -0 -0 -0 -0 -0 -0
          -0 -0 -0 -0 -0 -0 -0 0
        </DataArray>
        <DataArray type="Float32" Name="T_liq" NumberOfComponents="1" format="ascii">
          300.01 300.012 300.013 300.015 300.016 300.018 300.02 300.022 300.024 300.027 300.03 300.033
          300.036 300.04 300.044 300.049 300.054 300.06 300.067 300.074 300.081 300.09 300.1 300.11
          300.122 300.135 300.149 300.165 300.183 300.202 300.223 300.247 300.273 300.302 300.335 300.37
          300.409 300.453 300.501 300.554 300.613 300.678 300.75 300.83 300.918 301.016 301.123 301.243
          301.375 301.521 301.682 301.861 302.059 302.277 302.519 302.787 303.083 303.41 303.772 304.173
          304.616 305.107 305.649 306.249 306.913 307.647 308.459 309.358 310.352 311.451 312.667 314.013
          315.501 317.147 318.969 320.983 323.212 325.677 328.405 331.422 334.759 338.451 342.535 347.052
          352.05 357.583 364.351 372.662 372.726 372.756 372.773 372.784 372.792 372.797 372.801 372.804
          372.807 372.809 372.81 372.812 587.103 587.308 587.308 587.308 587.308 587.308 587.308 587.308
          587.308 587.308 587.308 587.308 587.308 587.308 587.308 587.309 587.309 587.309 587.31 587.31
          587.311 587.312 587.314 587.317 587.321 587.327 587.337 587.353 587.379 587.419 587.482 587.58
          587.729 587.953 588.28 588.747 589.399 590.282 591.444 592.923 594.739 596.882 599.295 601.866
          604.415 606.688 608.367 609.081 608.432 606.031 601.538 594.705 585.41 573.685 559.727 543.886
          526.645 508.571 490.274 472.353 455.343 439.67 425.656 413.488 403.169 394.708 387.968 382.595
          378.639 375.888 373.738 372.797 372.796 372.796 372.795 372.794 372.793 372.792 372.791 372.79
          372.789 372.788 372.787 372.786 372.784 372.783 372.782 372.78 372.779 372.777 372.775 372.774
          372.772 372.77 372.768 372.766 372.763 372.761 372.758 400
        </DataArray>
        <DataArray type="Float32" Name="T_s" NumberOfComponents="1" format="ascii">
          300.011 300.012 300.013 300.015 300.016 300.018 300.02 300.022 300.024 300.027 300.03 300.033
          300.037 300.04 300.045 300.049 300.055 300.061 300.067 300.074 300.082 300.091 300.1 300.111
          300.123 300.136 300.15 300.166 300.184 300.203 300.225 300.249 300.275 300.304 300.337 300.372
          300.412 300.456 300.504 300.557 300.617 300.682 300.755 300.835 300.923 301.022 301.13 301.25
          301.383 301.53 301.692 301.872 302.071 302.291 302.534 302.803 303.101 303.43 303.794 304.197
          304.643 305.136 305.682 306.285 306.953 307.692 308.508 309.412 310.412 311.518 312.741 314.094
          315.591 317.247 319.079 321.106 323.347 325.827 328.57 331.605 334.962 338.675 342.783 347.327
          352.354 357.914 364.058 369.683 371.007 371.579 371.914 372.151 372.34 372.504 372.653 372.795
          372.936 373.085 373.251 373.447 740.002 587.321 587.308 587.308 587.308 587.308 587.308 587.308
          587.308 587.308 587.308 587.308 587.308 587.308 587.308 587.309 587.309 587.309 587.31 587.31
          587.311 587.312 587.314 587.317 587.321 587.327 587.338 587.354 587.379 587.42 587.483 587.582
          587.732 587.956 588.284 588.753 589.407 590.293 591.457 592.939 594.758 596.902 599.317 601.889
          604.436 606.706 608.379 609.086 608.427 606.015 601.51 594.664 585.357 573.622 559.655 543.808
          526.564 508.49 490.196 472.279 455.276 439.611 425.607 413.446 403.135 394.681 387.948 382.58
          378.628 375.881 373.734 372.797 372.796 372.796 372.795 372.794 372.793 372.792 372.791 372.79
          372.789 372.788 372.787 372.786 372.784 372.783 372.782 372.78 372.779 372.777 372.775 372.774
          372.772 372.77 372.768 372.766 372.763 372.761 372.758 400
        </DataArray>
        <DataArray type="Float32" Name="reynoldsNumber_liq" NumberOfComponents="1" format="ascii">
          0.888878 0.888878 0.888878 0.888878 0.888878 0.888878 0.888878 0.888878 0.888878 0.888878 0.888878 0.888878
          0.888878 0.888878 0.888878 0.888878 0.888878 0.888878 0.888878 0.888878 0.888878 0.888878 0.888878 0.888878
          0.888878 0.888878 0.888878 0.888878 0.888878 0.888878 0.888878 0.888878 0.888878 0.888878 0.888878 0.888878
          0.888878 0.888878 0.888878 0.888878 0.888878 0.888878 0.888878 0.888878 0.888878 0.888878 0.888878 0.888878
          0.888878 0.888878 0.888878 0.888878 0.888878 0.888878 0.888878 0.888878 0.888878 0.888878 0.888878 0.888878
          0.888878 0.888878 0.888878 0.888878 0.888878 0.888878 0.888878 0.888878 0.888878 0.888878 0.888878 0.888878
          0.888878 0.888878 0.888878 0.888878 0.888878 0.888878 0.888878 0.888878 0.888878 0.888878 0.888878 0.888878
          0.888878 0.888878 0.907573 0.98916 1.00082 1.00451 1.00605 1.00681 1.00722 1.00745 1.00756 1.00758
          1.00747 1.00721 1.00674 0.985111 0 0 0 0 0 0 0 0
          0 0 0 0 0 0 0 0 0 0 0 0
          0 0 0 0 0 0 0 0 0 0 0 0
          0 0 0 0 0 0 0 0 0 0 0 0
          0 0 0 0 0 0 0 0 0 0 0 0
          0 0 0 0 0 0 0 0 0 0 0 0
          0 0 0.000182642 0.000362398 0.000361762 0.000361288 0.000360791 0.000360271 0.000359727 0.000359157 0.000358561 0.000357937
          0.000357284 0.000356599 0.000355882 0.000355128 0.000354331 0.000353478 0.000352542 0.000351459 0.000350085 0.000348104 0.000344847 0.000338991
          0.000328164 0.000308687 0.00027604 0.000226887 0.000163183 9.82459e-05 6.74467e-05 6.74467e-05
        </DataArray>
        <DataArray type="Float32" Name="nusseltNumber_liq" NumberOfComponents="1" format="ascii">
          3.23375 3.23375 3.23375 3.23375 3.23375 3.23375 3.23375 3.23375 3.23375 3.23375 3.23375 3.23375
          3.23375 3.23375 3.23375 3.23375 3.23375 3.23375 3.23375 3.23375 3.23375 3.23375 3.23375 3.23375
          3.23375 3.23375 3.23375 3.23375 3.23375 3.23375 3.23375 3.23375 3.23375 3.23375 3.23375 3.23375
          3.23375 3.23375 3.23375 3.23375 3.23375 3.23375 3.23375 3.23375 3.23375 3.23375 3.23375 3.23375
          3.23375 3.23375 3.23375 3.23375 3.23375 3.23375 3.23375 3.23375 3.23375 3.23375 3.23375 3.23375
          3.23375 3.23375 3.23375 3.23375 3.23375 3.23375 3.23375 3.23375 3.23375 3.23375 3.23375 3.23375
          3.23375 3.23375 3.23375 3.23375 3.23375 3.23375 3.23375 3.23375 3.23375 3.23375 3.23375 3.23375
          3.23375 3.23375 3.24926 3.31548 3.32476 3.32769 3.32891 3.32951 3.32983 3.33002 3.33011 3.33012
          3.33004 3.32983 3.32946 3.31224 2 2 2 2 2 2 2 2
          2 2 2 2 2 2 2 2 2 2 2 2
          2 2 2 2 2 2 2 2 2 2 2 2
          2 2 2 2 2 2 2 2 2 2 2 2
          2 2 2 2 2 2 2 2 2 2 2 2
          2 2 2 2 2 2 2 2 2 2 2 2
          2 2 2.00757 2.01141 2.0114 2.01139 2.01138 2.01137 2.01136 2.01135 2.01134 2.01133
          2.01132 2.0113 2.01129 2.01128 2.01126 2.01124 2.01123 2.01121 2.01118 2.01114 2.01108 2.01097
          2.01075 2.01037 2.00969 2.00862 2.00707 2.00522 2.00416 2.00416
        </DataArray>
        <DataArray type="Float32" Name="prandtlNumber_liq" NumberOfComponents="1" format="ascii">
          1.74419 1.74419 1.74419 1.74419 1.74419 1.74419 1.74419 1.74419 1.74419 1.74419 1.74419 1.74419
          1.74419 1.74419 1.74419 1.74419 1.74419 1.74419 1.74419 1.74419 1.74419 1.74419 1.74419 1.74419
          1.74419 1.74419 1.74419 1.74419 1.74419 1.74419 1.74419 1.74419 1.74419 1.74419 1.74419 1.74419
          1.74419 1.74419 1.74419 1.74419 1.74419 1.74419 1.74419 1.74419 1.74419 1.74419 1.74419 1.74419
          1.74419 1.74419 1.74419 1.74419 1.74419 1.74419 1.74419 1.74419 1.74419 1.74419 1.74419 1.74419
          1.74419 1.74419 1.74419 1.74419 1.74419 1.74419 1.74419 1.74419 1.74419 1.74419 1.74419 1.74419
          1.74419 1.74419 1.74419 1.74419 1.74419 1.74419 1.74419 1.74419 1.74419 1.74419 1.74419 1.74419
          1.74419 1.74419 1.74419 1.74419 1.74419 1.74419 1.74419 1.74419 1.74419 1.74419 1.74419 1.74419
          1.74419 1.74419 1.74419 1.74419 1.74419 1.74419 1.74419 1.74419 1.74419 1.74419 1.74419 1.74419
          1.74419 1.74419 1.74419 1.74419 1.74419 1.74419 1.74419 1.74419 1.74419 1.74419 1.74419 1.74419
          1.74419 1.74419 1.74419 1.74419 1.74419 1.74419 1.74419 1.74419 1.74419 1.74419 1.74419 1.74419
          1.74419 1.74419 1.74419 1.74419 1.74419 1.74419 1.74419 1.74419 1.74419 1.74419 1.74419 1.74419
          1.74419 1.74419 1.74419 1.74419 1.74419 1.74419 1.74419 1.74419 1.74419 1.74419 1.74419 1.74419
          1.74419 1.74419 1.74419 1.74419 1.74419 1.74419 1.74419 1.74419 1.74419 1.74419 1.74419 1.74419
          1.74419 1.74419 1.74419 1.74419 1.74419 1.74419 1.74419 1.74419 1.74419 1.74419 1.74419 1.74419
          1.74419 1.74419 1.74419 1.74419 1.74419 1.74419 1.74419 1.74419 1.74419 1.74419 1.74419 1.74419
          1.74419 1.74419 1.74419 1.74419 1.74419 1.74419 1.74419 1.74419
        </DataArray>
        <DataArray type="Float32" Name="reynoldsNumber_gas" NumberOfComponents="1" format="ascii">
          0 0 0 0 0 0 0 0 0 0 0 0
          0 0 0 0 0 0 0 0 0 0 0 0
          0 0 0 0 0 0 0 0 0 0 0 0
          0 0 0 0 0 0 0 0 0 0 0 0
          0 0 0 0 0 0 0 0 0 0 0 0
          0 0 0 0 0 0 0 0 0 0 0 0
          0 0 0 0 0 0 0 0 0 0 0 0
          0 0 0.437394 2.34618 2.61902 2.70532 2.74139 2.75905 2.76861 2.77402 2.77674 2.77705
          2.77459 2.76852 2.75745 2.25144 20.7958 20.7958 20.7958 20.7958 20.7958 20.7958 20.7958 20.7958
          20.7958 20.7958 20.7958 20.7958 20.7958 20.7958 20.7958 20.7958 20.7958 20.7958 20.7958 20.7958
          20.7958 20.7958 20.7958 20.7958 20.7958 20.7958 20.7958 20.7958 20.7958 20.7958 20.7958 20.7958
          20.7958 20.7958 20.7958 20.7958 20.7958 20.7958 20.7958 20.7958 20.7958 20.7958 20.7958 20.7958
          20.7958 20.7958 20.7958 20.7958 20.7958 20.7958 20.7958 20.7958 20.7958 20.7958 20.7958 20.7958
          20.7958 20.7958 20.7958 20.7958 20.7958 20.7958 20.7958 20.7958 20.7958 20.7958 20.7958 20.7958
          20.7958 20.7958 20.8041 20.8217 20.8217 20.8217 20.8218 20.8218 20.8218 20.8218 20.8218 20.8219
          20.8219 20.8219 20.8219 20.8219 20.822 20.822 20.822 20.822 20.8221 20.8221 20.8221 20.8222
          20.8222 20.8222 20.8223 20.8223 20.8224 20.8224 20.8225 20.8225
        </DataArray>
        <DataArray type="Float32" Name="nusseltNumber_gas" NumberOfComponents="1" format="ascii">
          2 2 2 2 2 2 2 2 2 2 2 2
          2 2 2 2 2 2 2 2 2 2 2 2
          2 2 2 2 2 2 2 2 2 2 2 2
          2 2 2 2 2 2 2 2 2 2 2 2
          2 2 2 2 2 2 2 2 2 2 2 2
          2 2 2 2 2 2 2 2 2 2 2 2
          2 2 2 2 2 2 2 2 2 2 2 2
          2 2 2.66606 3.82477 3.94928 3.98757 4.00343 4.01116 4.01534 4.0177 4.01889 4.01902
          4.01795 4.0153 4.01046 3.78019 8.75735 8.75735 8.75735 8.75735 8.75735 8.75735 8.75735 8.75735