<?xml version="1.0"?>
<VTKFile type="UnstructuredGrid" version="0.1" byte_order="LittleEndian">
  <UnstructuredGrid>
    <Piece NumberOfCells="1536" NumberOfPoints="1617">
      <PointData Scalars="S_aq">
        <DataArray type="Float32" Name="S_aq" NumberOfComponents="1" format="ascii">
          1 1 1 1 1 1 1 1 1 1 1 1
          1 1 1 1 1 1 1 1 1 1 1 1
          1 1 1 1 1 1 1 1 1 1 1 1
          1 1 1 1 1 1 1 1 1 1 1 1
          1 1 1 1 1 1 1 1 1 1 1 1
          1 1 1 1 1 1 1 1 1 1 1 1
          1 1 1 1 1 1 1 1 1 1 1 1
          1 1 1 1 1 1 1 1 1 1 1 1
          1 1 1 1 1 1 1 1 1 1 1 1
          1 1 1 1 1 1 1 1 1 1 1 1
          1 1 1 1 1 1 1 1 1 1 1 1
          1 1 1 1 1 1 1 1 1 1 1 1
          1 1 1 1 1 1 1 1 1 1 1 1
          1 1 1 1 1 1 1 1 1 1 1 1
          1 1 1 1 1 1 1 1 1 1 1 1
          1 1 1 1 1 1 1 1 1 1 1 1
          1 1 1 1 1 1 1 1 1 1 1 1
          1 1 1 1 1 1 1 1 1 1 1 1
          1 1 1 1 1 1 1 1 1 1 1 1
          1 1 1 1 1 1 1 1 1 1 1 1
          1 1 1 1 1 1 1 1 1 1 1 1
          1 1 1 1 1 1 1 1 1 1 1 1
          1 1 1 1 1 1 1 1 1 1 1 1
          1 1 1 1 1 1 1 1 1 1 1 1
          1 1 1 1 1 1 1 1 1 1 1 1
          1 1 1 1 1 1 1 1 1 1 1 1
          1 1 1 1 1 1 1 1 1 1 1 1
          1 1 1 1 1 1 1 1 1 1 1 1
          1 1 1 1 1 1 1 1 1 1 1 1
          1 1 1 1 1 1 1 1 1 1 1 1
          1 1 1 1 1 1 1 1 1 1 1 1
          1 1 1 1 1 1 1 1 1 1 1 1
          1 1 1 1 1 1 1 1 1 1 1 1
          1 1 1 1 1 1 1 1 1 1 1 1
          1 1 1 1 1 1 1 1 1 1 1 1
          1 1 1 1 1 1 1 1 1 1 1 1
          1 1 1 1 1 1 1 1 1 1 1 1
          1 1 1 1 1 1 1 1 1 1 1 1
          1 1 1 1 1 1 1 1 1 1 1 1
          1 1 1 1 1 1 1 1 1 1 1 1
          1 1 1 1 1 1 1 1 1 1 1 1
          1 1 1 1 1 1 1 1 1 1 1 1
          1 1 1 1 1 1 1 1 1 1 1 1
          1 1 1 1 1 1 1 1 1 1 1 1
          1 1 1 1 1 1 1 1 1 1 1 1
          1 1 1 1 1 1 1 1 1 1 1 1
          1 1 1 1 1 1 1 1 1 1 1 1
          1 1 1 1 1 1 1 1 1 1 1 1
          1 1 1 1 1 1 1 1 1 1 1 1
          1 1 1 1 1 1 1 1 1 1 1 1
          1 1 1 1 1 1 1 1 1 1 1 1
          1 1 1 1 1 1 1 1 1 1 1 1
          1 1 1 1 1 1 1 1 1 1 1 1
          1 1 1 1 1 1 1 1 1 1 1 1
          1 1 1 1 1 1 1 1 1 1 1 1
          1 1 1 1 1 1 1 1 1 1 1 1
          1 1 1 1 1 1 1 1 1 1 1 1
          1 1 1 1 1 1 1 1 1 1 1 1
          1 1 1 1 1 1 1 1 1 1 1 1
          1 1 1 1 1 1 1 1 1 1 1 1
          1 1 1 1 1 1 1 1 1 1 1 1
          1 1 1 1 1 1 1 1 1 1 1 1
          1 1 1 1 1 1 1 1 1 1 1 1
          1 1 1 1 1 1 1 1 1 1 1 1
          1 1 1 1 1 1 1 1 1 1 1 1
          1 1 1 1 1 1 1 1 1 1 1 1
          1 1 1 1 1 1 1 1 1 1 1 1
          1 1 1 1 1 1 1 1 1 1 1 1
          1 1 1 1 1 1 1 1 1 1 1 1
          1 1 1 1 1 1 1 1 1 1 1 1
          1 1 1 1 1 1 1 1 1 1 1 1
          1 1 1 1 1 1 1 1 1 1 1 1
          1 1 1 1 1 1 1 1 1 1 1 1
          1 1 1 1 1 1 1 1 1 1 1 1
          1 1 1 1 1 1 1 1 1 1 1 1
          1 1 1 1 1 1 1 1 1 1 1 1
          1 1 1 1 1 1 1 1 1 1 1 1
          1 1 1 1 1 1 1 1 1 1 1 1
          1 1 1 1 1 1 1 1 1 1 1 1
          1 1 1 1 1 1 1 1 1 1 1 1
          1 1 1 1 1 1 1 1 1 1 1 1
          1 1 1 1 1 1 1 1 1 1 1 1
          1 1 1 1 1 1 1 1 1 1 1 1
          1 1 1 0.999998 0.99999 0.999969 0.999937 0.999899 0.99989 0.999923 0.999968 0.999995
          1 1 1 1 0.999992 1 1 1 1 1 1 1
          1 1 1 1 1 1 1 1 1 1 1 1
          1 1 1 1 1 1 1 1 1 1 1 1
          1 1 0.999926 0.999348 0.998069 0.996481 0.994858 0.993278 0.991926 0.991577 0.992664 0.994703
          0.997234 0.999114 0.999813 0.999986 1 0.999282 0.999988 1 1 1 1 1
          1 1 1 1 1 1 1 1 1 1 1 1
          1 1 1 1 1 1 1 1 1 1 1 1
          1 0.999999 0.999203 0.992591 0.981853 0.969588 0.957823 0.947131 0.937867 0.930986 0.929014 0.933755
          0.94518 0.961876 0.978191 0.988956 0.996059 0.999558 0.994162 0.99942 0.999999 1 1 1
          1 1 1 1 1 1 1 1 1 1 1 1
          1 1 1 1 1 1 1 1 1 1 1 1
          1 0.999999 0.998749 0.97871 0.935702 0.897875 0.868753 0.845872 0.827823 0.813479 0.803282 0.799551
          0.804739 0.820673 0.847994 0.882686 0.915422 0.952937 0.983742 0.983368 0.996869 0.999937 1 1
          1 1 1 1 1 1 1 1 1 1 1 1
          1 1 1 1 1 1 1 1 1 1 1 1
          1 1 0.998773 0.978885 0.890251 0.796738 0.726052 0.670144 0.626288 0.593108 0.569593 0.555667
          0.552973 0.564556 0.593947 0.642319 0.704883 0.758414 0.827573 0.898829 0.969539 0.994142 0.999705 1
          1 1 1 1 1 1 1 1 1 1 1 1
          1 1 1 1 1 1 1 1 1 1 1 1
          1 1 1 0.99994 0.995031 0.961408 0.940471 0.928247 0.920883 0.916353 0.913512 0.911859
          0.912002 0.917897 0.932444 0.953654 0.976528 0.992865 0.999257 0.999996 1 1 1 1
          1 1 1 1 1 1 1 1 1 1 1 1
          1 1 1 1 1 1 1 1 1 1 1 1
          1 1 1 1 0.999912 0.994618 0.960392 0.941512 0.93204 0.927472 0.925411 0.924545
          0.924293 0.925191 0.931646 0.946079 0.964972 0.983679 0.995634 0.999736 1 1 1 1
          1 1 1 1 1 1 1 1 1 1 1 1
          1 1 1 1 1 1 1 1 1 1 1 1
          1 1 1 1 1 0.999817 0.993992 0.95802 0.939114 0.930492 0.926748 0.925244
          0.924689 0.924583 0.92558 0.933144 0.94937 0.968708 0.986243 0.996582 0.999852 1 1 1
          1 1 1 1 1 1 1 1 1 1 1 1
          1 1 1 1 1 1 1 1 1 1 1 1
          1 1 1 1 1 1 0.999661 0.993323 0.955795 0.936608 0.928902 0.925939
          0.924883 0.924537 0.924503 0.925538 0.934492 0.952951 0.972663 0.98875 0.997501 0.999929 1 1
          1 1 1 1 1 1 1 1 1 1 1 1
          1 1 1 1 1 1 1 1 1 1 1 1
          1 1 1 1 1 1 1 0.999453 0.992681 0.953699 0.934072 0.92747
          0.925298 0.924629 0.924437 0.924443 0.925456 0.936141 0.957327 0.977096 0.991259 0.998379 0.999974 1
          1 1 1 1 1 1 1 1 1 1 1 1
          1 1 1 1 1 1 1 1 1 1 1 1
          1 1 1 1 1 1 1 1 0.999244 0.992215 0.951664 0.931474
          0.92623 0.92483 0.924471 0.924382 0.924403 0.925311 0.93818 0.962819 0.982053 0.993701 0.999154 0.999994
          1 1 1 1 1 1 1 1 1 1 1 1
          1 1 1 1 1 1 1 1 1 1 1 1
          1 1 1 1 1 1 1 1 1 0.999166 0.99223 0.949606
          0.928778 0.925227 0.924527 0.924386 0.924357 0.924375 0.92506 0.940712 0.970131 0.987609 0.996198 0.999732
          1 1 1 1 1 1 1 1 1 1 1 1
          1 1 1 1 1 1 1 1 1 1 1 1
          1 1 1 1 1 1 1 1 1 1 0.99946 0.993819
          0.947329 0.925947 0.924529 0.924373 0.924352 0.924349 0.924356 0.924647 0.943842 0.981701 0.994457 0.999021
          0.999988 1 1 1 1 1 1 1 1 1 1 1
          1 1 1 1 1 1 1 1 1
        </DataArray>
        <DataArray type="Float32" Name="p_aq" NumberOfComponents="1" format="ascii">
          153955 152689 152269 151338 151813 150518 151092 149819 150468 149207 149915 148662
          149416 148168 148962 147718 148544 147303 148155 146917 147792 146555 147450 146215
          147126 145892 146817 145585 146522 145290 146237 145006 145961 144731 145693 144464
          145433 144203 145178 143949 144928 143699 144683 143454 144441 143213 144204 142976
          143970 142742 143739 142511 143511 142283 143286 142058 143064 141837 142846 141618
          142630 141402 142418 141190 142209 140981 142003 140775 141800 140572 141601 140373
          141405 140177 141212 139985 141023 139795 140836 139608 140651 139424 140470 139242
          140290 139063 140112 138885 139936 138709 139761 138534 139587 138360 139413 138187
          139240 138014 150583 149822 149108 148462 147882 147357 146878 146439 146032 145653
          145298 144962 144644 144340 144047 143766 143493 143227 142969 142715 142467 142222
          141982 141745 141511 141280 141052 140828 140606 140387 140171 139959 139749 139544
          139341 139142 138946 138754 138564 138378 138194 138013 137834 137656 137481 137306
          137133 136960 136788 148897 148247 147623 147039 146501 146006 145550 145128 144735
          144367 144021 143693 143381 143082 142795 142517 142247 141985 141728 141477 141229
          140986 140747 140510 140277 140046 139819 139594 139372 139153 138937 138724 138515
          138309 138107 137908 137712 137520 137331 137145 136962 136781 136603 136426 136251
          136078 135905 135733 135561 147211 146645 146094 145570 145077 144617 144188 143787
          143412 143059 142725 142408 142105 141813 141532 141260 140995 140736 140483 140234
          139988 139747 139508 139273 139040 138810 138582 138357 138135 137916 137699 137486
          137277 137071 136868 136670 136474 136283 136094 135909 135727 135547 135370 135194
          135020 134848 134676 134506 134335 145525 145026 144538 144067 143619 143196 142797
          142421 142067 141732 141413 141109 140816 140535 140262 139996 139736 139482 139232
          138987 138744 138504 138267 138033 137800 137570 137343 137118 136895 136675 136459
          136245 136035 135829 135627 135428 135233 135042 134855 134671 134490 134311 134135
          133961 133788 133617 133447 133278 133109 143838 143397 142963 142541 142136 141750
          141383 141034 140703 140388 140087 139797 139518 139247 138983 138726 138473 138224
          137979 137736 137497 137259 137024 136790 136559 136329 136101 135876 135653 135432
          135215 135001 134790 134583 134381 134183 133989 133798 133612 133429 133249 133072
          132898 132726 132555 132386 132217 132050 131882 142152 141761 141375 140998 140634
          140284 139949 139629 139324 139031 138749 138476 138211 137953 137699 137450 137205
          136962 136722 136484 136247 136012 135778 135546 135315 135085 134857 134631 134407
          134186 133967 133752 133541 133334 133131 132933 132740 132551 132366 132184 132006
          131831 131659 131489 131320 131153 130987 130821 130656 140466 140120 139778 139443
          139117 138803 138501 138211 137931 137662 137401 137147 136898 136653 136411 136172
          135934 135698 135463 135229 134996 134763 134531 134300 134070 133840 133612 133385
          133160 132937 132717 132500 132287 132079 131877 131679 131486 131299 131115 130936
          130761 130588 130418 130250 130084 129919 129756 129593 129430 138780 138475 138174
          137877 137589 137310 137040 136780 136529 136285 136047 135812 135580 135350 135121
          134892 134662 134433 134203 133974 133744 133514 133284 133054 132824 132594 132365
          132137 131910 131685 131462 131243 131029 130820 130617 130420 130228 130042 129861
          129685 129512 129342 129175 129010 128847 128685 128524 128364 128204 137094 136827
          136563 136304 136051 135806 135570 135342 135120 134903 134689 134475 134262 134047
          133830 133611 133390 133168 132944 132719 132492 132265 132036 131807 131578 131347
          131117 130887 130658 130430 130204 129983 129766 129555 129351 129154 128965 128781
          128603 128429 128259 128093 127929 127768 127608 127449 127291 127134 126978 135408
          135177 134948 134724 134505 134295 134092 133896 133705 133517 133329 133139 132944
          132745 132541 132333 132120 131905 131686 131465 131241 131016 130789 130561 130332
          130101 129869 129637 129405 129173 128943 128717 128496 128283 128078 127882 127695
          127514 127339 127170 127004 126842 126682 126524 126368 126213 126058 125905 125751
          133722 133524 133328 133137 132952 132775 132606 132445 132288 132132 131973 131807
          131632 131448 131257 131058 130854 130644 130430 130213 129992 129769 129544 129316
          129087 128856 128622 128387 128151 127914 127678 127445 127218 127002 126796 126602
          126417 126241 126071 125907 125746 125588 125432 125279 125126 124975 124825 124675
          124525 132036 131869 131704 131544 131390 131246 131112 130988 130870 130751 130624
          130484 130328 130160 129980 129790 129592 129388 129178 128964 128746 128525 128301
          128074 127844 127612 127377 127139 126898 126655 126410 126167 125931 125709 125503
          125311 125132 124962 124798 124639 124484 124331 124181 124032 123884 123737 123591
          123445 123299 130350 130211 130075 129943 129820 129707 129608 129524 129453 129380
          129290 129176 129039 128883 128712 128529 128337 128137 127931 127719 127503 127283
          127060 126833 126604 126371 126134 125894 125649 125398 125141 124881 124629 124398
          124194 124009 123839 123677 123521 123369 123220 123073 122928 122784 122641 122498
          122356 122214 122072 128664 128551 128441 128335 128239 128154 128087 128046 128035
          128028 127982 127891 127767 127620 127456 127278 127089 126892 126688 126478 126264
          126045 125823 125596 125367 125133 124896 124653 124405 124147 123878 123589 123302
          123059 122864 122694 122536 122386 122239 122095 121954 121813 121674 121535 121397
          121259 121121 120984 120846 126978 126888 126802 126720 126646 126584 126541 126528
          126600 126740 126718 126637 126519 126375 126213 126037 125850 125654 125451 125243
          125029 124811 124589 124363 124133 123900 123662 123419 123169 122909 122633 122325
          121895 121675 121514 121368 121228 121090 120955 120820 120686 120553 120419 120286
          120153 120019 119886 119753 119620 125291 125224 125158 125096 125041 124996 124967
          124959 124961 124990 124963 124887 124781 124653 124509 124354 124189 124018 123840
          123656 123466 123269 123067 122858 122642 122418 122186 121944 121690 121418 121118
          120767 120317 120261 120153 120036 119916 119794 119670 119544 119418 119292 119164
          119037 118908 118780 118651 118523 118394 123605 123557 123510 123466 123426 123394
          123372 123361 123357 123314 123252 123168 123064 122945 122816 122679 122536 122388
          122234 122075 121908 121735 121552 121360 121158 120944 120719 120481 120227 119953
          119649 119301 118900 118868 118799 118708 118606 118498 118385 118269 118151 118031
          117910 117788 117664 117541 117416 117292 117168 121919 121889 121859 121830 121804
          121782 121766 121755 121750 121660 121568 121468 121360 121247 121130 121010 120888
          120763 120634 120500 120359 120208 120047 119873 119685 119482 119265 119033 118784
          118515 118222 117897 117537 117514 117462 117390 117303 117207 117104 116997 116886
          116772 116657 116539 116421 116302 116182 116062 115941 120233 120220 120207 120193
          120179 120165 120152 120143 120138 120012 119891 119775 119663 119554 119447 119343
          119242 119141 119040 118933 118819 118693 118554 118399 118226 118035 117826 117600
          117359 117102 116827 116530 116207 116188 116146 116085 116009 115922 115828 115728
          115623 115515 115405 115292 115178 115064 114948 114832 114715 118547 118552 118555
          118556 118553 118546 118536 118526 118520 118357 118210 118079 117963 117858 117761
          117674 117594 117521 117450 117374 117290 117192 117077 116943 116786 116606 116403
          116183 115950 115708 115454 115188 114904 114887 114850 114794 114725 114645 114557
          114463 114363 114261 114155 114047 113937 113826 113714 113602 113489 116861 116885
          116907 116923 116931 116931 116920 116905 116894 116685 116510 116369 116253 116153
          116067 115995 115939 115899 115864 115823 115771 115702 115613 115501 115362 115192
          114994 114775 114549 114323 114095 113864 113624 113607 113571 113518 113452 113376
          113292 113202 113108 113009 112907 112803 112697 112589 112481 112372 112262 115175
          115221 115263 115297 115320 115326 115313 115278 115251 114970 114775 114635 114527
          114436 114360 114299 114264 114269 114263 114235 114188 114123 114042 113942 113823
          113682 113519 113335 113136 112938 112732 112547 112367 112348 112308 112254 112189
          112115 112034 111947 111855 111760 111662 111561 111458 111354 111249 111143 111036
          113489 113561 113628 113684 113723 113741 113729 113672 113505 113158 112990 112874
          112783 112707 112640 112581 112535 112473 112401 112323 112240 112153 112062 111966
          111865 111763 111662 111567 111478 111397 111314 111234 111149 111107 111059 111000
          110934 110860 110781 110696 110607 110514 110419 110321 110221 110119 110017 109914
          109810 111803 111907 112003 112086 112149 112185 112185 112137 112024 111870 111731
          111626 111540 111467 111401 111340 111279 111211 111131 111044 110952 110857 110760
          110663 110564 110468 110380 110302 110230 110158 110085 110010 109940 109878 109818
          109755 109686 109612 109533 109450 109362 109272 109178 109083 108985 108886 108786
          108685 108584 110117 110259 110393 110509 110601 110663 110687 110671 110614 110531
          110442 110359 110285 110219 110156 110096 110036 109968 109888 109802 109711 109617
          109522 109425 109328 109234 109149 109072 109000 108929 108857 108786 108716 108649
          108583 108515 108444 108369 108290 108207 108121 108032 107940 107846 107751 107654
          107555 107457 107358 108430 108621 108800 108957 109084 109177 109232 109250 109235
          109195 109141 109083 109024 108966 108909 108852 108794 108726 108648 108562 108472
          108380 108285 108189 108093 108001 107918 107843 107771 107701 107630 107559 107489
          107419 107350 107279 107206 107130 107050 106968 106882 106794 106704 106612 106518
          106422 106326 106229 106131 106744 106996 107230 107435 107602 107728 107815 107864
          107880 107871 107844 107806 107762 107713 107662 107609 107554 107487 107409 107324
          107235 107143 107050 106955 106859 106768 106688 106614 106543 106473 106402 106331
          106260 106189 106118 106045 105970 105893 105814 105732 105647 105560 105470 105379
          105286 105192 105097 105001 104905 105058 105388 105692 105951 106161 106321 106436
          106511 106552 106565 106558 106536 106503 106463 106417 106368 106315 106249 106172
          106088 106000 105909 105817 105722 105627 105537 105458 105386 105316 105245 105174
          105103 105032 104960 104887 104813 104738 104660 104580 104498 104413 104327 104238
          104148 104056 103963 103868 103774 103679 103372 103811 104201 104519 104769 104959
          105097 105192 105250 105280 105286 105275 105251 105217 105176 105130 105079 105015
          104937 104854 104767 104677 104585 104491 104395 104307 104230 104159 104089 104018
          103947 103876 103804 103731 103658 103583 103507 103429 103349 103267 103182 103096
          103008 102918 102827 102734 102641 102547 102452 101686 102293 102786 103157 103438
          103648 103802 103909 103978 104017 104032 104027 104009 103979 103941 103897 103847
          103783 103706 103623 103536 103447 103355 103261 103165 103078 103004 102933 102862
          102791 102720 102649 102577 102504 102430 102355 102278 102200 102120 102037 101953
          101867 101779 101689 101599 101506 101414 101320 101226 100000 100940 101490 101883
          102175 102393 102552 102664 102737 102779 102796 102794 102777 102748 102711 102668
          102619 102555 102477 102395 102309 102219 102128 102034 101937 101851 101778 101706
          101636 101565 101494 101422 101350 101277 101203 101128 101051 100973 100892 100810
          100726 100640 100552 100463 100372 100280 100187 100094 100000
        </DataArray>
        <DataArray type="Float32" Name="rho_aq" NumberOfComponents="1" format="ascii">
          1000 1000 1000 1000 1000 1000 1000 1000 1000 1000 1000 1000
          1000 1000 1000 1000 1000 1000 1000 1000 1000 1000 1000 1000
          1000 1000 1000 1000 1000 1000 1000 1000 1000 1000 1000 1000
          1000 1000 1000 1000 1000 1000 1000 1000 1000 1000 1000 1000
          1000 1000 1000 1000 1000 1000 1000 1000 1000 1000 1000 1000
          1000 1000 1000 1000 1000 1000 1000 1000 1000 1000 1000 1000
          1000 1000 1000 1000 1000 1000 1000 1000 1000 1000 1000 1000
          1000 1000 1000 1000 1000 1000 1000 1000 1000 1000 1000 1000
          1000 1000 1000 1000 1000 1000 1000 1000 1000 1000 1000 1000
          1000 1000 1000 1000 1000 1000 1000 1000 1000 1000 1000 1000
          1000 1000 1000 1000 1000 1000 1000 1000 1000 1000 1000 1000
          1000 1000 1000 1000 1000 1000 1000 1000 1000 1000 1000 1000
          1000 1000 1000 1000 1000 1000 1000 1000 1000 1000 1000 1000
          1000 1000 1000 1000 1000 1000 1000 1000 1000 1000 1000 1000
          1000 1000 1000 1000 1000 1000 1000 1000 1000 1000 1000 1000
          1000 1000 1000 1000 1000 1000 1000 1000 1000 1000 1000 1000
          1000 1000 1000 1000 1000 1000 1000 1000 1000 1000 1000 1000
          1000 1000 1000 1000 1000 1000 1000 1000 1000 1000 1000 1000
          1000 1000 1000 1000 1000 1000 1000 1000 1000 1000 1000 1000
          1000 1000 1000 1000 1000 1000 1000 1000 1000 1000 1000 1000
          1000 1000 1000 1000 1000 1000 1000 1000 1000 1000 1000 1000
          1000 1000 1000 1000 1000 1000 1000 1000 1000 1000 1000 1000
          1000 1000 1000 1000 1000 1000 1000 1000 1000 1000 1000 1000
          1000 1000 1000 1000 1000 1000 1000 1000 1000 1000 1000 1000
          1000 1000 1000 1000 1000 1000 1000 1000 1000 1000 1000 1000
          1000 1000 1000 1000 1000 1000 1000 1000 1000 1000 1000 1000
          1000 1000 1000 1000 1000 1000 1000 1000 1000 1000 1000 1000
          1000 1000 1000 1000 1000 1000 1000 1000 1000 1000 1000 1000
          1000 1000 1000 1000 1000 1000 1000 1000 1000 1000 1000 1000
          1000 1000 1000 1000 1000 1000 1000 1000 1000 1000 1000 1000
          1000 1000 1000 1000 1000 1000 1000 1000 1000 1000 1000 1000
          1000 1000 1000 1000 1000 1000 1000 1000 1000 1000 1000 1000
          1000 1000 1000 1000 1000 1000 1000 1000 1000 1000 1000 1000
          1000 1000 1000 1000 1000 1000 1000 1000 1000 1000 1000 1000
          1000 1000 1000 1000 1000 1000 1000 1000 1000 1000 1000 1000
          1000 1000 1000 1000 1000 1000 1000 1000 1000 1000 1000 1000
          1000 1000 1000 1000 1000 1000 1000 1000 1000 1000 1000 1000
          1000 1000 1000 1000 1000 1000 1000 1000 1000 1000 1000 1000
          1000 1000 1000 1000 1000 1000 1000 1000 1000 1000 1000 1000
          1000 1000 1000 1000 1000 1000 1000 1000 1000 1000 1000 1000
          1000 1000 1000 1000 1000 1000 1000 1000 1000 1000 1000 1000
          1000 1000 1000 1000 1000 1000 1000 1000 1000 1000 1000 1000
          1000 1000 1000 1000 1000 1000 1000 1000 1000 1000 1000 1000
          1000 1000 1000 1000 1000 1000 1000 1000 1000 1000 1000 1000
          1000 1000 1000 1000 1000 1000 1000 1000 1000 1000 1000 1000
          1000 1000 1000 1000 1000 1000 1000 1000 1000 1000 1000 1000
          1000 1000 1000 1000 1000 1000 1000 1000 1000 1000 1000 1000
          1000 1000 1000 1000 1000 1000 1000 1000 1000 1000 1000 1000
          1000 1000 1000 1000 1000 1000 1000 1000 1000 1000 1000 1000
          1000 1000 1000 1000 1000 1000 1000 1000 1000 1000 1000 1000
          1000 1000 1000 1000 1000 1000 1000 1000 1000 1000 1000 1000
          1000 1000 1000 1000 1000 1000 1000 1000 1000 1000 1000 1000
          1000 1000 1000 1000 1000 1000 1000 1000 1000 1000 1000 1000
          1000 1000 1000 1000 1000 1000 1000 1000 1000 1000 1000 1000
          1000 1000 1000 1000 1000 1000 1000 1000 1000 1000 1000 1000
          1000 1000 1000 1000 1000 1000 1000 1000 1000 1000 1000 1000
          1000 1000 1000 1000 1000 1000 1000 1000 1000 1000 1000 1000
          1000 1000 1000 1000 1000 1000 1000 1000 1000 1000 1000 1000
          1000 1000 1000 1000 1000 1000 1000 1000 1000 1000 1000 1000
          1000 1000 1000 1000 1000 1000 1000 1000 1000 1000 1000 1000
          1000 1000 1000 1000 1000 1000 1000 1000 1000 1000 1000 1000
          1000 1000 1000 1000 1000 1000 1000 1000 1000 1000 1000 1000
          1000 1000 1000 1000 1000 1000 1000 1000 1000 1000 1000 1000
          1000 1000 1000 1000 1000 1000 1000 1000 1000 1000 1000 1000
          1000 1000 1000 1000 1000 1000 1000 1000 1000 1000 1000 1000
          1000 1000 1000 1000 1000 1000 1000 1000 1000 1000 1000 1000
          1000 1000 1000 1000 1000 1000 1000 1000 1000 1000 1000 1000
          1000 1000 1000 1000 1000 1000 1000 1000 1000 1000 1000 1000
          1000 1000 1000 1000 1000 1000 1000 1000 1000 1000 1000 1000
          1000 1000 1000 1000 1000 1000 1000 1000 1000 1000 1000 1000
          1000 1000 1000 1000 1000 1000 1000 1000 1000 1000 1000 1000
          1000 1000 1000 1000 1000 1000 1000 1000 1000 1000 1000 1000
          1000 1000 1000 1000 1000 1000 1000 1000 1000 1000 1000 1000
          1000 1000 1000 1000 1000 1000 1000 1000 1000 1000 1000 1000
          1000 1000 1000 1000 1000 1000 1000 1000 1000 1000 1000 1000
          1000 1000 1000 1000 1000 1000 1000 1000 1000 1000 1000 1000
          1000 1000 1000 1000 1000 1000 1000 1000 1000 1000 1000 1000
          1000 1000 1000 1000 1000 1000 1000 1000 1000 1000 1000 1000
          1000 1000 1000 1000 1000 1000 1000 1000 1000 1000 1000 1000
          1000 1000 1000 1000 1000 1000 1000 1000 1000 1000 1000 1000
          1000 1000 1000 1000 1000 1000 1000 1000 1000 1000 1000 1000
          1000 1000 1000 1000 1000 1000 1000 1000 1000 1000 1000 1000
          1000 1000 1000 1000 1000 1000 1000 1000 1000 1000 1000 1000
          1000 1000 1000 1000 1000 1000 1000 1000 1000 1000 1000 1000
          1000 1000 1000 1000 1000 1000 1000 1000 1000 1000 1000 1000
          1000 1000 1000 1000 1000 1000 1000 1000 1000 1000 1000 1000
          1000 1000 1000 1000 1000 1000 1000 1000 1000 1000 1000 1000
          1000 1000 1000 1000 1000 1000 1000 1000 1000 1000 1000 1000
          1000 1000 1000 1000 1000 1000 1000 1000 1000 1000 1000 1000
          1000 1000 1000 1000 1000 1000 1000 1000 1000 1000 1000 1000
          1000 1000 1000 1000 1000 1000 1000 1000 1000 1000 1000 1000
          1000 1000 1000 1000 1000 1000 1000 1000 1000 1000 1000 1000
          1000 1000 1000 1000 1000 1000 1000 1000 1000 1000 1000 1000
          1000 1000 1000 1000 1000 1000 1000 1000 1000 1000 1000 1000
          1000 1000 1000 1000 1000 1000 1000 1000 1000 1000 1000 1000
          1000 1000 1000 1000 1000 1000 1000 1000 1000 1000 1000 1000
          1000 1000 1000 1000 1000 1000 1000 1000 1000 1000 1000 1000
          1000 1000 1000 1000 1000 1000 1000 1000 1000 1000 1000 1000
          1000 1000 1000 1000 1000 1000 1000 1000 1000 1000 1000 1000
          1000 1000 1000 1000 1000 1000 1000 1000 1000 1000 1000 1000
          1000 1000 1000 1000 1000 1000 1000 1000 1000 1000 1000 1000
          1000 1000 1000 1000 1000 1000 1000 1000 1000 1000 1000 1000
          1000 1000 1000 1000 1000 1000 1000 1000 1000 1000 1000 1000
          1000 1000 1000 1000 1000 1000 1000 1000 1000 1000 1000 1000
          1000 1000 1000 1000 1000 1000 1000 1000 1000 1000 1000 1000
          1000 1000 1000 1000 1000 1000 1000 1000 1000 1000 1000 1000
          1000 1000 1000 1000 1000 1000 1000 1000 1000 1000 1000 1000
          1000 1000 1000 1000 1000 1000 1000 1000 1000 1000 1000 1000
          1000 1000 1000 1000 1000 1000 1000 1000 1000 1000 1000 1000
          1000 1000 1000 1000 1000 1000 1000 1000 1000 1000 1000 1000
          1000 1000 1000 1000 1000 1000 1000 1000 1000 1000 1000 1000
          1000 1000 1000 1000 1000 1000 1000 1000 1000 1000 1000 1000
          1000 1000 1000 1000 1000 1000 1000 1000 1000 1000 1000 1000
          1000 1000 1000 1000 1000 1000 1000 1000 1000 1000 1000 1000
          1000 1000 1000 1000 1000 1000 1000 1000 1000 1000 1000 1000
          1000 1000 1000 1000 1000 1000 1000 1000 1000 1000 1000 1000
          1000 1000 1000 1000 1000 1000 1000 1000 1000 1000 1000 1000
          1000 1000 1000 1000 1000 1000 1000 1000 1000 1000 1000 1000
          1000 1000 1000 1000 1000 1000 1000 1000 1000 1000 1000 1000
          1000 1000 1000 1000 1000 1000 1000 1000 1000 1000 1000 1000
          1000 1000 1000 1000 1000 1000 1000 1000 1000 1000 1000 1000
          1000 1000 1000 1000 1000 1000 1000 1000 1000 1000 1000 1000
          1000 1000 1000 1000 1000 1000 1000 1000 1000 1000 1000 1000
          1000 1000 1000 1000 1000 1000 1000 1000 1000 1000 1000 1000
          1000 1000 1000 1000 1000 1000 1000 1000 1000 1000 1000 1000
          1000 1000 1000 1000 1000 1000 1000 1000 1000 1000 1000 1000
          1000 1000 1000 1000 1000 1000 1000 1000 1000 1000 1000 1000
          1000 1000 1000 1000 1000 1000 1000 1000 1000 1000 1000 1000
          1000 1000 1000 1000 1000 1000 1000 1000 1000 1000 1000 1000
          1000 1000 1000 1000 1000 1000 1000 1000 1000 1000 1000 1000
          1000 1000 1000 1000 1000 1000 1000 1000 1000 1000 1000 1000
          1000 1000 1000 1000 1000 1000 1000 1000 1000 1000 1000 1000
          1000 1000 1000 1000 1000 1000 1000 1000 1000 1000 1000 1000
          1000 1000 1000 1000 1000 1000 1000 1000 1000 1000 1000 1000
          1000 1000 1000 1000 1000 1000 1000 1000 1000
        </DataArray>
        <DataArray type="Float32" Name="mob_aq" NumberOfComponents="1" format="ascii">
          1000 1000 1000 1000 1000 1000 1000 1000 1000 1000 1000 1000
          1000 1000 1000 1000 1000 1000 1000 1000 1000 1000 1000 1000
          1000 1000 1000 1000 1000 1000 1000 1000 1000 1000 1000 1000
          1000 1000 1000 1000 1000 1000 1000 1000 1000 1000 1000 1000
          1000 1000 1000 1000 1000 1000 1000 1000 1000 1000 1000 1000
          1000 1000 1000 1000 1000 1000 1000 1000 1000 1000 1000 1000
          1000 1000 1000 1000 1000 1000 1000 1000 1000 1000 1000 1000
          1000 1000 1000 1000 1000 1000 1000 1000 1000 1000 1000 1000
          1000 1000 1000 1000 1000 1000 1000 1000 1000 1000 1000 1000
          1000 1000 1000 1000 1000 1000 1000 1000 1000 1000 1000 1000
          1000 1000 1000 1000 1000 1000 1000 1000 1000 1000 1000 1000
          1000 1000 1000 1000 1000 1000 1000 1000 1000 1000 1000 1000
          1000 1000 1000 1000 1000 1000 1000 1000 1000 1000 1000 1000
          1000 1000 1000 1000 1000 1000 1000 1000 1000 1000 1000 1000
          1000 1000 1000 1000 1000 1000 1000 1000 1000 1000 1000 1000
          1000 1000 1000 1000 1000 1000 1000 1000 1000 1000 1000 1000
          1000 1000 1000 1000 1000 1000 1000 1000 1000 1000 1000 1000