<?xml version="1.0"?>
<VTKFile type="UnstructuredGrid" version="0.1" byte_order="LittleEndian">
  <UnstructuredGrid>
    <Piece NumberOfCells="10" NumberOfPoints="18">
      <PointData Scalars="S_liq" Vectors="velocity_liq (m/s)">
        <DataArray type="Float32" Name="S_liq" NumberOfComponents="1" format="ascii">
          0.298292 0.298292 0.285756 0.285756 0.298292 0.285756 0.259602 0.259602 0.259602 0.16859 0.16859 0.16859
          0.00477373 0.00477373 0.00477373 0.000259709 0.000259709 0.000259709
        </DataArray>
        <DataArray type="Float32" Name="p_liq" NumberOfComponents="1" format="ascii">
          91827 91827 91626.3 91626.3 91827 91626.3 90714.3 90714.3 90714.3 81513.7 81513.7 81513.7
          64889.8 64889.8 64889.8 64429.6 64429.6 64429.6
        </DataArray>
        <DataArray type="Float32" Name="rho_liq" NumberOfComponents="1" format="ascii">
          1012.51 1012.51 1012.77 1012.77 1012.51 1012.77 1016.33 1016.33 1016.33 1044.24 1044.24 1044.24
          1445.34 1445.34 1445.34 1621.25 1621.25 1621.25
        </DataArray>
        <DataArray type="Float32" Name="mob_liq" NumberOfComponents="1" format="ascii">
          0.580497 0.580497 0.260989 0.260989 0.580497 0.260989 0.00787483 0.00787483 0.00787483 0 0 0
          0 0 0 0 0 0
        </DataArray>
        <DataArray type="Float32" Name="S_gas" NumberOfComponents="1" format="ascii">
          0.701708 0.701708 0.714244 0.714244 0.701708 0.714244 0.740398 0.740398 0.740398 0.83141 0.83141 0.83141
          0.995226 0.995226 0.995226 0.99974 0.99974 0.99974
        </DataArray>
        <DataArray type="Float32" Name="p_gas" NumberOfComponents="1" format="ascii">
          100006 100006 100006 100006 100006 100006 100006 100006 100006 100005 100005 100005
          100003 100003 100003 100001 100001 100001
        </DataArray>
        <DataArray type="Float32" Name="rho_gas" NumberOfComponents="1" format="ascii">
          1.19497 1.19497 1.19496 1.19496 1.19497 1.19496 1.19495 1.19495 1.19495 1.19505 1.19505 1.19505
          1.19691 1.19691 1.19691 1.19804 1.19804 1.19804
        </DataArray>
        <DataArray type="Float32" Name="mob_gas" NumberOfComponents="1" format="ascii">
          49197.8 49197.8 51623.6 51623.6 49197.8 51623.6 55221.5 55221.5 55221.5 55574.8 55574.8 55574.8
          55574.5 55574.5 55574.5 55574.2 55574.2 55574.2
        </DataArray>
        <DataArray type="Float32" Name="pc" NumberOfComponents="1" format="ascii">
          8178.64 8178.64 8379.31 8379.31 8178.64 8379.31 9291.24 9291.24 9291.24 18491.7 18491.7 18491.7
          35113.2 35113.2 35113.2 35571.2 35571.2 35571.2
        </DataArray>
        <DataArray type="Float32" Name="porosity" NumberOfComponents="1" format="ascii">
          0.4 0.4 0.4 0.4 0.4 0.4 0.4 0.4 0.4 0.4 0.4 0.4
          0.396435 0.396435 0.396435 0.387245 0.387245 0.387245
        </DataArray>
        <DataArray type="Float32" Name="x^H2O_liq" NumberOfComponents="1" format="ascii">
          0.993708 0.993708 0.993588 0.993588 0.993708 0.993588 0.991938 0.991938 0.991938 0.978931 0.978931 0.978931
          0.754096 0.754096 0.754096 0.614943 0.614943 0.614943
        </DataArray>
        <DataArray type="Float32" Name="x^Air_liq" NumberOfComponents="1" format="ascii">
          1.58222e-05 1.58222e-05 1.58217e-05 1.58217e-05 1.58222e-05 1.58217e-05 1.58207e-05 1.58207e-05 1.58207e-05 1.58239e-05 1.58239e-05 1.58239e-05
          1.58903e-05 1.58903e-05 1.58903e-05 1.59309e-05 1.59309e-05 1.59309e-05
        </DataArray>
        <DataArray type="Float32" Name="x^NaCl_liq" NumberOfComponents="1" format="ascii">
          0.00627651 0.00627651 0.00639648 0.00639648 0.00627651 0.00639648 0.00804663 0.00804663 0.00804663 0.0210527 0.0210527 0.0210527
          0.245888 0.245888 0.245888 0.385041 0.385041 0.385041
        </DataArray>
        <DataArray type="Float32" Name="rhoMolar_liq" NumberOfComponents="1" format="ascii">
          55421.9 55421.9 55421.4 55421.4 55421.9 55421.4 55414.2 55414.2 55414.2 55348.7 55348.7 55348.7
          51700.5 51700.5 51700.5 48277.7 48277.7 48277.7
        </DataArray>
        <DataArray type="Float32" Name="x^H2O_gas" NumberOfComponents="1" format="ascii">
          0.0184431 0.0184431 0.0184427 0.0184427 0.0184431 0.0184427 0.0184175 0.0184175 0.0184175 0.0181781 0.0181781 0.0181781
          0.014005 0.014005 0.014005 0.0114224 0.0114224 0.0114224
        </DataArray>
        <DataArray type="Float32" Name="x^Air_gas" NumberOfComponents="1" format="ascii">
          0.981557 0.981557 0.981557 0.981557 0.981557 0.981557 0.981583 0.981583 0.981583 0.981822 0.981822 0.981822
          0.985995 0.985995 0.985995 0.988578 0.988578 0.988578
        </DataArray>
        <DataArray type="Float32" Name="x^NaCl_gas" NumberOfComponents="1" format="ascii">
          -0 -0 -0 -0 -0 -0 -0 -0 -0 -0 -0 -0
          -0 -0 -0 -0 -0 -0
        </DataArray>
        <DataArray type="Float32" Name="rhoMolar_gas" NumberOfComponents="1" format="ascii">
          41.5526 41.5526 41.5523 41.5523 41.5526 41.5523 41.5516 41.5516 41.5516 41.5513 41.5513 41.5513
          41.5497 41.5497 41.5497 41.5483 41.5483 41.5483
        </DataArray>
        <DataArray type="Float32" Name="phase presence" NumberOfComponents="1" format="ascii">
          3 3 3 3 3 3 3 3 3 3 3 3
          3 3 3 3 3 3
        </DataArray>
        <DataArray type="Float32" Name="precipitateVolumeFraction^NaCl" NumberOfComponents="1" format="ascii">
          0 0 0 0 0 0 0 0 0 0 0 0
          0.00356502 0.00356502 0.00356502 0.012755 0.012755 0.012755
        </DataArray>
        <DataArray type="Float32" Name="T" NumberOfComponents="1" format="ascii">
          289.468 289.468 289.47 289.47 289.468 289.47 289.475 289.475 289.475 289.476 289.476 289.476
          289.478 289.478 289.478 289.48 289.48 289.48
        </DataArray>
        <DataArray type="Float32" Name="velocity_liq (m/s)" NumberOfComponents="3" format="ascii">
          1.04156e-21 9.77175e-10 0 5.51189e-22 9.77175e-10 0 8.87947e-22 1.94556e-09 0 8.78642e-22 1.94556e-09 0
          6.08209e-23 9.77175e-10 0 8.69337e-22 1.94556e-09 0 4.94306e-22 3.28444e-09 0 5.50558e-22 3.28444e-09 0
          6.06809e-22 3.28444e-09 0 0 1.82747e-09 0 0 1.82747e-09 0 0 1.82747e-09 0
          0 0 0 0 0 0 0 0 0 0 0 0
          0 0 0 0 0 0
        </DataArray>
        <DataArray type="Float32" Name="velocity_gas (m/s)" NumberOfComponents="3" format="ascii">
          -2.93528e-18 -7.42303e-10 0 -3.93757e-19 -7.42303e-10 0 -6.46051e-18 9.84258e-10 0 -6.06612e-18 9.84258e-10 0
          2.14777e-18 -7.42303e-10 0 -5.67173e-18 9.84258e-10 0 4.82147e-19 1.17372e-07 0 -1.30582e-18 1.17372e-07 0
          -3.09378e-18 1.17372e-07 0 -7.53173e-19 4.01849e-06 0 -3.55103e-18 4.01849e-06 0 -6.34889e-18 4.01849e-06 0
          -1.0978e-18 7.96645e-06 0 -1.0978e-18 7.96645e-06 0 -1.0978e-18 7.96645e-06 0 -2.22718e-19 8.12795e-06 0
          -2.22718e-19 8.12795e-06 0 -2.22718e-19 8.12795e-06 0
        </DataArray>
        <DataArray type="Float32" Name="Permeability" NumberOfComponents="1" format="ascii">
          1e-13 1e-13 1e-13 1e-13 1e-13 1e-13 1e-13 1e-13 1e-13 9.90386e-14 9.90386e-14 9.90386e-14
          9.38248e-14 9.38248e-14 9.38248e-14 8.92229e-14 8.92229e-14 8.92229e-14
        </DataArray>
      </PointData>
      <CellData Scalars="process rank">
        <DataArray type="Float32" Name="process rank" NumberOfComponents="1" format="ascii">
          0 0 0 0 0 0 0 0 0 0
        </DataArray>
      </CellData>
      <Points>
        <DataArray type="Float32" Name="Coordinates" NumberOfComponents="3" format="ascii">
          0 0 0 0.01 0 0 0 0.0075 0 0.01 0.0075 0
          0.02 0 0 0.02 0.0075 0 0 0.015 0 0.01 0.015 0
          0.02 0.015 0 0 0.016978 0 0.01 0.016978 0 0.02 0.016978 0
          0 0.0186264 0 0.01 0.0186264 0 0.02 0.0186264 0 0 0.02 0
          0.01 0.02 0 0.02 0.02 0
        </DataArray>
      </Points>
      <Cells>
        <DataArray type="Int32" Name="connectivity" NumberOfComponents="1" format="ascii">
          0 1 3 2 1 4 5 3 2 3 7 6
          3 5 8 7 6 7 10 9 7 8 11 10
          9 10 13 12 10 11 14 13 12 13 16 15
          13 14 17 16
        </DataArray>
        <DataArray type="Int32" Name="offsets" NumberOfComponents="1" format="ascii">
          4 8 12 16 20 24 28 32 36 40
        </DataArray>
        <DataArray type="UInt8" Name="types" NumberOfComponents="1" format="ascii">
          9 9 9 9 9 9 9 9 9 9
        </DataArray>
      </Cells>
    </Piece>
  </UnstructuredGrid>
</VTKFile>
