<?xml version="1.0"?>
<VTKFile type="UnstructuredGrid" version="0.1" byte_order="LittleEndian">
  <UnstructuredGrid>
    <Piece NumberOfCells="1928" NumberOfPoints="5784">
      <PointData Scalars="S_aq">
        <DataArray type="Float32" Name="S_aq" NumberOfComponents="1" format="ascii">
          1 1 1 1 1 1 0.937264 0.999934 0.994387 1 1 1
          1 1 1 1 1 1 1 1 1 1 1 1
          1 1 1 1 1 1 1 1 1 1 1 1
          1 1 1 1 1 1 1 1 1 1 1 1
          1 1 1 1 1 1 1 1 1 1 1 1
          1 1 1 1 1 1 0.999982 1 1 1 1 1
          1 1 1 0.99065 0.969647 0.752274 1 1 1 1 1 1
          1 1 1 1 1 1 1 1 1 1 1 1
          1 1 1 0.999982 1 1 1 1 1 1 1 1
          1 1 1 1 1 1 1 1 1 1 1 1
          1 1 1 1 1 1 1 1 1 1 1 1
          1 1 1 1 1 1 1 1 1 1 1 1
          1 1 1 1 1 1 1 1 1 1 1 1
          1 1 1 1 1 1 0.994387 0.885195 0.788221 1 1 1
          1 1 1 1 1 1 1 1 1 0.999928 0.932407 0.999117
          1 1 1 1 1 1 1 1 1 1 1 1
          1 1 1 1 1 1 1 1 1 1 1 1
          0.788221 0.937264 0.994387 0.999998 0.969647 0.999997 1 1 1 1 1 1
          1 1 1 1 1 1 1 1 1 1 1 1
          1 1 1 1 1 1 1 1 1 1 1 1
          1 1 1 1 1 1 1 1 1 1 1 1
          1 1 1 1 1 1 1 1 1 1 1 1
          1 1 1 0.999999 0.975946 1 1 1 1 1 1 1
          0.752274 0.934082 0.99065 1 1 1 1 1 1 1 1 1
          1 1 1 1 1 1 1 1 1 1 1 1
          1 1 1 1 1 1 1 1 1 1 1 1
          1 1 1 1 1 1 1 1 1 1 1 1
          1 1 1 1 1 1 1 1 1 0.972748 0.999996 0.995996
          1 1 1 1 1 1 1 1 1 1 1 1
          1 1 1 1 1 1 1 1 1 1 1 1
          1 1 1 1 1 1 1 1 1 1 1 1
          1 1 1 1 1 1 0.666466 0.5 0.774189 1 1 1
          1 1 1 1 1 1 1 1 1 1 1 1
          0.995996 0.800604 0.972748 1 1 1 1 1 1 1 1 1
          1 1 1 1 1 1 1 1 1 0.986644 0.999945 0.926164
          1 1 1 1 1 1 0.999532 0.885195 0.994387 1 1 1
          1 1 1 1 1 1 0.961962 0.962194 0.711695 1 1 1
          1 1 1 1 1 1 1 1 1 1 1 1
          1 1 1 1 1 1 0.974313 0.743122 0.977873 1 1 1
          1 1 1 1 1 1 1 1 1 1 1 1
          1 1 1 1 1 1 0.999117 0.932407 0.871727 1 1 1
          1 1 1 1 1 1 1 1 1 1 1 1
          1 1 1 1 0.999179 0.999982 1 1 1 1 1 1
          1 1 1 1 1 1 1 1 1 1 1 1
          1 1 1 1 1 1 1 1 1 1 1 1
          1 1 1 1 1 1 1 1 1 1 1 1
          1 1 1 1 1 1 0.5 0.5 0.66211 1 1 1
          1 1 1 1 1 1 0.701839 0.969647 0.774189 1 1 1
          1 1 1 1 1 1 1 1 1 1 1 1
          1 1 1 1 1 1 0.999982 1 1 1 1 0.5
          1 1 1 1 1 1 1 1 1 1 1 1
          1 1 1 0.774189 0.5 0.701839 1 1 1 1 1 0.999999
          1 1 1 1 1 1 1 1 1 1 1 1
          1 1 1 1 1 1 1 1 1 1 1 1
          1 1 1 1 1 1 1 1 1 1 1 1
          1 1 1 1 1 1 1 1 0.999987 1 1 1
          1 1 1 1 1 1 1 1 1 1 1 1
          1 1 1 1 1 1 1 1 1 1 1 1
          0.662218 1 0.5 1 1 1 1 1 0.994284 1 1 1
          1 1 1 1 1 1 0.999996 1 0.998652 1 1 1
          1 1 1 1 1 1 1 1 1 1 1 1
          1 1 1 1 1 1 1 1 1 1 1 1
          1 1 1 1 1 1 1 1 1 1 1 1
          1 1 1 1 1 1 1 1 1 1 1 1
          1 1 1 1 1 1 1 1 1 1 1 1
          1 1 1 1 1 1 1 1 1 0.999982 0.962194 0.999982
          1 1 1 1 1 1 1 1 1 1 1 1
          1 1 1 1 1 1 0.977873 0.743122 0.764827 1 1 1
          1 1 1 1 1 1 1 1 1 1 1 1
          1 1 1 1 1 1 0.999982 1 0.999982 1 1 1
          1 1 1 1 1 1 1 1 1 1 1 1
          1 1 1 1 1 1 1 1 1 1 1 1
          1 1 1 1 1 1 1 1 1 1 1 1
          1 1 1 1 1 1 1 1 1 1 1 1
          1 1 1 1 1 1 1 1 1 1 1 1
          1 1 1 1 1 1 1 1 1 1 1 1
          1 1 1 0.994284 0.999998 1 1 1 1 0.999945 0.999906 0.926164
          1 1 1 1 1 1 1 1 1 1 1 1
          1 1 1 1 1 1 1 1 1 1 1 1
          1 1 1 1 1 1 1 1 1 1 1 1
          1 1 1 1 1 1 1 1 1 1 1 1
          1 1 1 0.618596 0.5 0.66211 0.999979 1 1 1 1 1
          1 1 1 1 1 1 1 1 1 1 1 1
          1 1 1 1 1 1 1 1 1 1 1 1
          1 1 0.662218 1 1 1 0.99877 0.915387 0.811613 1 1 1
          1 1 1 1 1 1 1 1 1 1 1 1
          1 1 1 0.866459 1 0.662218 1 1 1 1 0.999996 0.999979
          1 1 1 1 0.999906 0.999945 1 1 1 1 1 1
          1 1 1 1 1 1 1 1 1 1 1 1
          1 1 1 1 1 1 1 1 1 1 1 1
          1 1 1 1 1 1 1 1 1 1 1 1
          1 1 1 1 1 1 1 1 1 1 1 1
          1 1 1 1 1 1 1 1 1 1 1 1
          1 1 1 1 1 1 0.974313 0.999996 0.998652 1 1 1
          1 1 1 1 1 1 0.977873 0.932407 0.999928 1 1 1
          1 1 1 1 1 1 0.961962 0.711695 0.800587 1 0.999906 1
          1 1 1 1 1 1 1 1 1 1 1 1
          1 1 1 1 1 1 1 1 1 1 1 1
          1 1 1 1 1 1 1 1 1 1 1 1
          1 1 1 1 1 1 1 1 1 1 1 1
          1 1 1 1 1 1 1 1 1 1 1 1
          1 1 1 1 1 1 1 1 1 1 1 1
          1 1 1 1 1 1 1 1 1 0.994387 0.999934 1
          1 1 1 1 1 1 1 1 1 1 1 1
          1 1 1 1 1 1 1 1 1 0.999928 0.999996 0.977873
          1 1 1 1 1 1 1 1 1 1 1 1
          1 1 1 1 1 1 1 1 1 1 1 1
          1 1 1 1 1 1 1 1 1 1 1 1
          1 1 1 1 1 1 1 1 1 1 1 1
          1 1 1 1 1 1 1 1 1 1 1 1
          1 1 1 0.969307 0.800604 0.995996 1 1 1 1 1 1
          1 1 1 1 1 1 1 1 1 0.752274 0.969647 0.701839
          1 1 1 1 1 1 1 1 1 0.999997 0.969647 0.99065
          1 1 1 0.5 0.5 0.752274 1 1 1 1 1 1
          1 1 1 1 1 1 1 1 1 1 1 1
          1 1 1 1 1 1 1 1 1 1 1 1
          1 1 1 1 1 1 1 1 1 1 1 1
          1 1 1 1 1 1 1 1 1 1 1 1
          1 1 1 1 1 1 1 1 1 1 1 1
          1 1 1 1 1 1 0.66211 0.932407 0.764827 1 1 1
          1 1 1 1 1 1 1 1 1 1 1 1
          0.742748 0.5 0.670893 1 0.999998 0.999997 1 1 1 1 1 1
          1 1 1 1 1 1 1 1 1 1 1 1
          1 1 1 1 1 1 1 1 1 1 1 1
          1 1 1 1 1 1 1 1 1 1 1 1
          1 1 1 1 1 1 1 1 1 1 1 1
          1 1 1 1 1 1 1 1 0.999928 0.67908 0.969984 0.949033
          1 1 1 1 1 1 1 1 1 1 1 1
          1 1 1 1 1 1 1 1 1 1 1 1
          1 1 1 1 1 1 1 1 1 1 1 1
          1 1 1 1 1 1 1 1 1 1 1 1
          1 1 1 1 1 1 1 1 1 1 1 1
          1 1 1 0.774189 0.969647 0.984362 1 1 1 0.711695 0.962194 0.762401
          1 1 1 1 1 1 1 1 1 1 1 1
          1 1 1 1 1 1 1 1 1 1 1 1
          1 1 1 1 1 1 1 1 1 1 1 1
          1 1 1 1 1 1 0.984362 0.969647 0.999998 1 1 1
          1 1 1 1 1 1 1 1 1 1 1 1
          1 1 1 1 1 1 0.961962 1 0.999982 1 1 1
          1 1 1 1 1 1 1 1 1 1 1 1
          1 1 1 1 1 1 1 1 1 1 1 1
          1 1 1 0.871727 0.932407 0.66211 1 1 1 1 1 1
          1 1 1 1 1 1 1 1 1 0.999997 1 1
          1 1 1 1 1 1 1 1 1 1 1 1
          1 1 1 0.715024 0.5 0.800604 1 1 1 1 1 1
          1 1 1 1 1 1 1 1 1 1 1 1
          1 1 1 1 1 1 1 1 1 1 1 1
          1 1 1 1 1 1 1 1 1 1 1 1
          1 1 0.999999 1 1 1 1 1 1 1 1 1
          1 1 1 1 1 1 0.871727 0.66211 0.656153 1 1 1
          1 1 1 1 1 1 0.999999 1 1 1 1 1
          0.5 0.5 0.670893 1 1 0.998902 1 1 1 1 1 1
          1 1 1 0.997124 0.999117 0.871727 1 1 1 1 1 1
          1 1 1 1 1 1 1 1 1 1 1 1
          0.800604 0.5 0.719908 1 1 1 1 1 1 1 1 1
          1 1 1 1 1 1 1 1 1 1 1 1
          1 1 1 0.999982 1 1 0.66211 0.5 0.656153 1 1 1
          1 1 1 1 1 1 1 1 1 1 1 1
          1 1 1 1 1 1 1 1 1 1 1 1
          1 1 1 0.984362 0.999998 0.994284 1 1 1 1 1 1
          1 1 1 0.999117 1 1 0.986441 1 1 1 1 1
          1 1 1 1 1 1 0.984688 1 1 0.999997 1 1
          1 1 1 1 1 1 0.999982 0.962194 0.961962 1 1 1
          1 1 1 1 1 1 1 1 0.999945 1 1 1
          1 1 1 1 1 1 0.999999 1 1 1 1 1
          1 1 1 1 1 1 1 1 1 0.999945 0.999179 1
          1 1 1 0.662218 0.743122 0.866459 1 1 1 1 1 1
          1 1 1 1 1 1 1 1 1 1 1 1
          1 1 1 1 1 1 0.5 0.5 0.701839 0.677505 0.934082 0.752274
          1 1 1 1 1 1 1 1 1 1 1 1
          1 1 1 1 0.999532 0.994387 1 1 1 0.999928 0.999117 1
          1 1 1 1 1 1 1 1 1 1 1 1
          1 1 1 1 1 1 1 1 1 1 1 1
          1 1 1 1 1 1 1 0.999532 1 1 1 1
          1 1 1 1 1 1 0.999968 1 1 1 1 1
          1 1 1 1 1 1 1 1 1 1 1 1
          1 1 1 1 1 1 1 1 1 1 1 1
          1 1 1 0.620802 0.5 0.647249 1 1 1 1 1 1
          1 1 1 1 1 1 1 1 1 1 1 1
          1 1 1 1 1 1 1 1 1 0.999945 1 1
          1 1 1 1 1 1 1 1 1 1 1 1
          1 1 1 1 1 1 0.885195 0.5 0.681048 0.999997 0.975946 0.999999
          1 1 1 1 1 0.999999 1 1 1 1 1 1
          0.969984 0.999999 0.999985 1 1 1 1 1 1 0.662218 0.5 0.597779
          1 1 1 1 1 1 1 1 1 1 1 1
          1 1 1 1 1 1 1 1 1 1 1 1
          0.995996 0.999996 1 1 1 1 1 1 1 1 1 1
          1 1 1 1 1 1 1 1 1 1 1 1
          1 1 1 1 1 1 1 1 1 1 1 1
          1 1 1 1 1 1 1 1 1 0.5 0.5 0.666466
          0.969984 0.67908 0.984688 1 1 1 0.788221 0.885195 0.681048 1 1 1
          1 1 1 1 1 1 1 1 1 1 1 1
          1 1 1 1 1 1 1 1 1 1 1 1
          0.699535 0.949173 0.719908 1 1 1 1 1 1 0.949173 0.859394 0.999132
          1 1 1 1 1 1 1 1 1 1 1 1
          1 1 1 1 1 1 1 0.975946 1 1 1 1
          1 1 1 1 1 1 1 1 1 1 1 1
          1 1 1 1 1 1 1 1 1 0.871727 0.840545 0.997124
          1 1 1 0.5 0.5 0.597779 1 1 1 1 1 1
          0.997124 1 0.999117 1 1 1 1 1 1 1 1 1
          1 1 1 1 1 1 1 1 1 1 1 1
          1 1 1 1 1 1 1 1 1 1 1 1
          1 1 1 1 1 1 1 1 1 1 1 0.999982
          1 1 1 1 1 1 1 1 1 1 1 1
          1 1 1 1 1 1 0.999999 1 1 1 1 1
          1 1 1 1 1 1 1 1 1 1 1 1
          1 1 1 1 1 1 1 1 1 1 1 1
          1 1 1 1 1 1 1 1 1 1 1 1
          1 1 1 1 1 1 1 1 1 1 1 1
          1 1 1 1 1 1 1 1 1 0.5 0.5 0.656153
          1 1 0.999997 1 1 1 1 1 1 1 1 1
          1 1 1 1 1 1 1 1 1 1 1 1
          1 1 1 1 1 1 1 1 1 0.752274 0.5 0.677505
          1 1 1 1 1 1 1 1 0.999999 1 1 1
          1 1 1 1 1 1 1 1 1 1 1 1
          1 1 1 1 1 1 1 1 1 1 1 1
          1 1 1 0.999968 0.915387 0.99877 1 1 1 1 1 1
          1 1 1 1 1 1 1 1 0.986441 1 1 1
          0.957488 0.999179 0.866711 1 1 1 0.656153 0.840545 0.871727 1 1 1
          0.701839 0.5 0.752274 1 1 1 1 1 1 1 1 1
          1 1 1 1 1 1 1 1 1 1 1 1
          1 1 1 1 1 1 1 1 1 1 1 1
          1 1 1 1 1 1 1 1 1 1 1 1
          1 1 1 1 1 1 1 1 1 1 1 1
          1 1 1 0.618596 0.66211 0.764827 1 1 1 1 1 1
          1 1 1 1 1 1 1 1 1 1 1 1
          1 1 1 1 1 1 1 1 1 1 1 1
          1 1 1 1 1 1 1 1 1 0.999999 0.999906 1
          1 1 1 0.961962 1 1 0.866459 0.743122 0.974313 1 1 1
          1 1 1 1 1 1 1 1 1 1 1 1
          1 1 1 0.5 0.5 0.620802 1 1 1 0.986644 0.999179 0.999945
          1 1 1 1 1 1 1 1 1 1 1 1
          0.5 0.5 0.715024 1 1 1 1 1 1 1 1 1
          1 1 1 1 1 1 1 1 1 1 1 1
          1 1 1 1 1 1 1 1 1 1 1 1
          1 0.999532 1 1 1 1 1 1 1 1 1 1
          1 1 1 1 1 1 1 1 1 1 1 1
          1 1 1 1 1 1 1 1 1 1 1 1
          1 1 1 1 1 1 1 1 1 1 1 1
          1 1 1 1 1 1 1 1 1 1 1 1
          1 1 1 1 1 1 1 1 1 1 1 1
          1 1 1 1 1 1 1 1 1 1 1 1
          1 1 1 1 1 1 1 1 1 1 1 1
          1 1 1 1 1 1 1 1 1 1 1 1
          1 1 1 1 1 1 1 0.975946 1 1 1 1
          1 1 1 1 1 1 1 1 1 1 1 1
          1 1 1 1 1 1 1 1 1 1 1 1
          1 1 1 1 1 1 0.719908 0.5 0.699535 1 1 1
          1 1 1 1 1 1 1 1 1 1 1 1
          1 1 1 0.5 0.5 0.719908 1 1 1 1 1 1
          1 1 1 1 1 1 0.675533 0.5 0.742748 1 1 1
          1 1 1 1 1 1 1 1 1 0.656153 0.5 0.666466
          1 1 1 1 1 1 0.666466 0.840545 0.656153 1 1 1
          1 1 1 1 1 1 0.859394 0.998973 0.999132 0.980225 0.999934 0.937264
          1 1 1 1 1 1 1 1 1 1 1 1
          1 1 1 1 1 1 1 1 1 1 1 1
          0.699535 0.859394 0.949173 1 1 1 1 1 1 1 1 1
          1 1 1 0.99877 0.811613 0.949033 1 1 1 1 1 1
          1 1 1 0.99065 1 0.999997 1 1 1 0.5 0.5 0.618596
          1 1 1 0.5 0.5 0.593378 1 1 1 1 1 1
          1 1 1 1 1 1 1 1 1 1 1 1
          0.984688 0.67908 0.978864 1 1 1 1 1 1 1 0.99877 0.999985
          1 1 1 0.5 0.5 0.583365 1 1 1 1 1 1
          0.681048 0.5 0.5 1 1 1 1 1 1 1 1 1
          1 1 1 0.5 0.5 0.675533 1 1 1 1 1 1
          1 1 1 1 1 1 1 1 1 1 1 1
          1 1 1 1 1 1 1 1 1 1 1 1
          1 1 1 1 1 1 1 1 1 1 1 1
          0.5 0.5 0.699535 1 1 1 1 1 1 1 0.999996 1
          1 1 1 1 1 1 1 1 1 1 1 1
          1 1 1 1 1 1 1 1 1 1 1 1
          1 1 1 1 1 1 1 1 1 1 1 1
          1 1 0.999999 1 1 1 1 1 1 1 1 1
          1 1 1 1 1 1 1 1 1 1 1 1
          1 1 1 0.969984 0.999985 0.949033 1 1 1 1 1 1
          1 1 1 1 1 1 1 1 1 1 1 1
          0.764827 0.932407 0.977873 1 1 1 1 1 1 1 1 1
          1 1 1 1 1 1 1 1 1 1 1 1
          1 1 1 1 1 1 0.866711 0.999179 0.986644 1 1 1
          1 0.975946 0.999999 1 1 1 1 1 1 1 1 1
          1 1 1 0.957488 0.701502 0.762401 1 1 1 1 1 1
          1 1 1 1 1 1 1 1 1 1 1 1
          1 1 1 0.957488 0.962194 0.999982 1 1 1 1 1 1
          1 1 1 1 1 1 1 1 1 1 1 1
          1 0.999996 0.999928 1 1 1 1 1 1 1 1 1
          1 1 1 1 1 1 1 1 1 1 1 1
          1 1 1 1 1 1 1 1 1 1 1 1
          1 1 1 1 1 1 1 1 1 1 1 1
          1 1 1 1 1 1 1 1 1 1 1 1
          0.926164 0.742748 0.670893 1 1 1 1 1 1 1 1 1
          1 1 1 1 1 1 1 1 1 1 1 1
          1 1 1 1 1 1 1 1 1 1 1 1
          1 1 1 1 1 1 1 1 1 1 1 1
          0.926164 0.768259 0.986644 1 1 1 1 1 1 1 1 1
          0.5 1 0.669026 1 1 1 0.999968 0.986441 0.915387 1 1 1
          1 1 1 1 1 1 0.999987 0.986441 1 0.994284 0.774189 0.984362
          1 1 1 1 1 1 1 1 1 1 1 1
          1 1 1 1 1 1 1 1 1 1 1 0.984688
          1 1 1 1 1 1 1 1 1 1 1 1
          0.681048 0.5 0.788221 1 1 1 1 1 1 1 1 1
          1 1 1 1 1 1 1 1 1 1 1 1
          1 1 1 1 1 1 1 1 1 0.699535 0.5 0.859394
          1 1 1 1 1 1 1 1 1 1 1 1
          1 1 1 0.669026 1 1 1 1 1 1 1 1
          1 1 1 1 1 1 1 1 1 0.980225 0.742748 0.926164
          1 1 1 1 1 1 0.999999 1 1 1 1 1
          1 1 1 1 1 1 1 1 1 1 1 1
          1 1 1 1 1 1 1 1 1 1 1 1
          1 1 1 1 1 1 1 1 1 1 1 1
          1 1 1 1 1 1 0.762401 0.962194 0.957488 1 1 1
          1 0.975946 1 1 1 1 1 1 1 0.999999 0.999934 0.980225
          1 1 1 1 1 1 1 1 1 1 1 1
          1 1 1 1 1 1 1 1 1 1 1 1
          1 1 1 1 1 1 1 1 1 1 1 1
          1 1 1 1 1 1 1 1 1 1 1 1
          1 1 1 1 1 1 1 1 1 0.999999 1 1
          1 1 1 1 1 1 1 1 1 1 1 1
          1 1 1 1 1 1 1 1 1 1 1 1
          1 0.999996 1 0.997124 0.840545 0.894457 1 1 1 1 1 1
          1 1 1 1 1 1 0.800587 1 0.961962 1 1 1
          1 1 1 1 1 1 1 1 1 1 1 1
          1 1 1 1 1 1 1 1 1 1 1 1
          1 1 1 1 1 1 1 1 1 1 1 1
          1 1 1 1 1 1 1 1 1 0.788221 0.5 0.675533
          1 1 1 1 1 1 1 0.986441 0.999968 1 1 1
          1 1 1 1 1 1 0.977873 0.999996 0.974313 1 1 1
          0.5 0.5 0.677505 1 1 1 1 1 1 1 1 1
          1 1 1 0.998902 1 0.978864 1 1 1 1 1 1
          0.998973 1 1 1 1 1 1 1 1 1 1 1
          1 1 1 0.99877 1 0.999968 1 1 1 1 1 1
          1 1 1 0.994284 1 0.997124 1 1 1 1 1 1
          0.937264 0.742748 0.980225 1 1 1 1 1 1 1 1 1
          1 1 1 1 1 1 1 1 1 0.999985 0.99877 0.949033
          1 1 1 1 1 1 1 1 1 0.999982 0.999179 0.957488
          1 1 1 1 1 1 1 1 1 1 1 1
          1 1 1 1 1 1 1 1 1 1 1 1
          1 1 0.866459 1 1 1 1 1 1 1 1 1
          1 1 1 1 1 1 1 1 1 0.811613 0.915387 0.998902
          1 1 1 1 1 1 1 1 1 1 1 1
          1 1 1 1 1 1 1 1 1 1 1 1
          1 1 1 1 1 1 1 1 1 1 1 1
          1 1 1 1 1 1 1 1 1 1 1 1
          1 1 1 1 1 1 1 1 1 1 1 1
          1 1 1 1 1 1 1 1 1 1 1 1
          1 1 1 1 1 1 1 1 1 1 1 1
          1 1 1 1 1 1 1 1 1 1 1 1
          1 1 1 1 1 1 1 1 1 1 1 1
          1 1 1 1 1 1 1 1 1 1 1 1
          1 1 1 1 1 1 1 1 1 1 1 1
          1 1 1 1 1 1 1 1 1 1 1 1
          1 1 1 1 1 1 1 1 1 1 1 1
          1 1 1 1 1 1 1 1 1 1 1 1
          1 1 1 1 1 1 1 1 1 1 1 1
          1 1 1 1 1 1 1 1 1 1 1 1
          1 1 1 0.999999 1 1 1 1 1 1 1 1
          1 1 1 1 1 1 1 1 1 0.969307 0.934082 0.715024
          1 1 1 1 1 1 0.999999 1 0.999997 1 1 1
          1 1 1 1 1 1 1 1 1 1 1 1
          1 1 1 0.915387 0.986441 0.999987 1 1 1 1 1 1
          1 1 1 1 1 1 0.894457 0.994284 0.997124 1 1 1
          0.670893 0.768259 0.926164 1 1 1 1 1 1 1 1 1
          1 1 1 1 1 1 1 1 1 1 1 1
          0.999999 0.975946 0.999997 1 1 1 1 1 1 0.972748 0.949173 0.999979
          1 1 1 1 1 1 1 1 1 1 1 1
          1 1 1 1 1 1 0.719908 0.949173 0.972748 1 1 1
          1 1 1 1 1 1 1 1 1 1 1 1
          1 1 1 1 1 1 1 1 1 1 1 1
          1 1 1 1 1 1 1 1 1 0.999928 1 1
          1 1 1 1 1 1 1 1 1 1 1 1
          1 1 1 0.715024 0.934082 0.677505 1 1 1 0.978864 0.67908 0.811613
          1 1 1 1 1 1 1 1 1 1 1 1
          1 1 1 1 1 1 1 1 1 1 1 1
          1 1 1 1 1 1 1 1 1 1 1 1
          1 1 1 1 1 1 1 1 1 0.978864 1 0.984688
          1 1 1 1 1 1 1 1 1 1 1 1
          1 1 1 1 1 1 1 1 1 1 1 1
          1 1 1 1 1 1 1 1 1 1 1 1
          1 1 1 1 1 1 1 1 1 1 1 1
          1 1 1 1 1 1 1 1 1 1 1 1
          1 1 1 1 1 1 1 1 1 1 1 1
          1 1 1 1 1 1 1 1 1 1 1 1
          1 1 1 1 1 1 1 1 1 1 1 1
          1 1 1 1 1 1 1 1 1 1 1 1
          1 1 1 1 1 1 1 1 1 1 1 1
          1 1 1 1 1 1 1 1 1 1 1 1
          1 1 1 1 1 1 1 1 1 1 1 1
          1 1 1 0.800587 1 1 0.894457 0.774189 0.994284 1 1 1
          1 1 1 1 1 1 1 1 1 1 1 1
          1 1 1 1 1 1 1 1 1 1 1 1
          1 1 1 0.620802 0.768259 0.670893 1 1 1 1 1 1
          1 1 1 1 1 1 1 1 1 1 1 1
          1 1 1 1 1 1 1 1 1 1 1 1
          1 1 1 1 1 1 1 1 1 1 1 1
          0.764827 0.743122 0.618596 1 1 1 1 1 1 0.99065 0.934082 0.999946
          1 1 1 0.984688 1 0.999998 1 1 1 1 1 1
          1 1 1 1 1 1 1 1 1 1 1 1
          1 1 1 1 1 1 1 1 1 0.998652 1 0.866459
          0.999985 1 1 1 1 1 1 1 1 1 1 1
          1 1 1 1 1 1 1 1 1 1 1 1
          0.998902 0.915387 0.999987 1 1 1 1 1 1 1 1 1
          1 1 1 1 1 1 1 1 1 1 1 1
          1 1 1 1 1 1 1 1 1 1 0.999996 1
          1 1 1 1 1 1 1 1 0.999946 1 1 1
          1 1 1 1 1 1 1 1 1 1 1 1
          1 1 1 1 1 1 1 1 1 1 1 1
          0.894457 0.840545 0.666466 1 1 1 1 1 1 1 1 1
          1 1 1 1 1 1 1 1 1 1 1 1
          1 1 1 1 1 1 1 1 1 1 1 1
          1 1 1 1 1 1 1 1 1 1 1 1
          1 1 1 1 1 0.998652 0.597779 0.743122 0.662218 0.926164 0.999906 0.980225
          1 1 1 0.978864 0.811613 0.998902 1 1 1 1 1 1
          1 1 1 1 1 1 1 1 1 1 1 1
          1 1 1 1 1 1 1 1 1 1 1 1
          1 1 1 1 1 1 0.621619 0.5 0.583365 1 1 1
          1 1 1 1 1 1 0.647249 0.701502 0.866711 1 1 1
          1 1 1 1 1 1 0.999946 0.995996 1 1 1 1
          1 1 1 1 1 0.998652 1 0.999934 1 1 1 1
          1 1 1 1 1 1 1 1 1 1 1 1
          1 1 1 1 1 1 1 1 1 1 1 1
          1 1 1 1 1 1 0.999132 0.998973 1 1 1 1
          1 1 1 0.618596 0.743122 0.597779 0.972748 0.800604 0.719908 1 1 1
          1 0.994387 1 1 1 1 1 1 1 1 1 1
          1 1 1 0.999998 1 0.999999 0.999946 1 0.99065 1 1 1
          1 1 1 1 1 1 1 1 1 1 1 1
          0.999998 1 1 1 1 1 0.811613 0.67908 0.949033 1 1 1
          1 1 1 1 1 1 1 1 1 1 1 1
          1 1 1 1 1 1 1 1 1 1 1 1
          1 1 1 0.999979 0.999996 0.972748 1 1 1 1 1 1
          1 1 1 1 1 1 1 1 1 1 1 1
          1 1 1 1 1 1 0.597779 0.5 0.618596 0.670893 0.5 0.620802
          1 1 1 1 1 1 1 1 1 1 1 0.999132
          1 1 1 1 1 1 0.762401 0.701502 0.621619 1 1 0.999999
          1 1 1 1 1 1 1 1 1 0.866459 0.974313 0.998652
          1 1 1 0.980225 0.999906 0.999999 1 1 1 1 1 1
          1 1 1 0.866711 0.701502 0.957488 1 1 1 1 1 1
          1 1 1 1 1 1 1 1 1 1 1 1
          1 1 1 1 1 1 1 1 1 1 1 1
          1 1 1 1 1 1 1 1 1 1 1 1
          1 1 1 1 1 1 1 1 1 1 1 1
          1 1 1 1 1 1 1 1 1 1 1 1
          1 1 1 1 1 1 1 1 1 1 1 1
          0.937264 0.788221 0.675533 1 1 1 1 1 1 1 1 1
          1 1 1 1 1 1 1 1 1 1 1 1
          1 1 1 1 1 1 1 1 1 1 1 1
          1 1 1 0.866711 0.768259 0.647249 1 1 1 0.669026 1 0.800587
          1 1 1 1 1 1 1 1 0.99877 1 1 1
          1 0.999999 1 1 1 1 1 1 1 1 1 1
          0.621619 0.711695 0.762401 1 1 1 1 1 1 0.583365 0.711695 0.621619
          1 1 1 1 1 1 1 1 1 1 1 1
          1 1 1 1 1 1 1 1 1 1 0.995996 1
          1 1 1 0.675533 0.742748 0.937264 1 1 1 1 1 1
          1 1 1 1 1 1 1 1 1 1 1 1
          0.593378 0.701502 0.647249 1 1 1 1 1 1 1 0.999934 0.999999
          1 1 1 1 1 1 0.715024 0.800604 0.969307 1 1 1
          1 1 1 1 1 1 1 1 1 1 1 1
          1 1 1 1 1 1 1 1 1 1 1 1
          0.999987 1 0.998902 1 1 1 1 1 1 1 1 1
          1 1 1 1 1 1 1 1 1 1 1 1
          1 1 1 1 1 1 1 1 1 1 1 1
          0.999998 0.999999 0.969984 1 1 1 1 1 1 1 1 1
          1 1 1 1 1 1 1 1 1 0.666466 0.774189 0.894457
          1 1 1 1 1 1 1 1 0.999998 1 1 1
          1 1 1 1 1 1 0.800587 0.711695 0.669026 1 1 1
          1 1 1 1 1 1 1 1 1 0.999132 1 0.999979
          0.593378 0.5 0.621619 1 1 1 1 1 1 1 1 1
          1 1 1 1 1 1 1 1 1 1 1 1
          0.984688 0.999998 0.969984 1 1 1 1 1 1 1 1 1
          1 1 1 1 1 1 1 1 1 1 1 1
          1 1 1 1 1 1 1 1 1 1 0.999998 1
          0.621619 0.701502 0.593378 1 1 1 1 1 1 1 1 1
          1 1 1 1 1 1 1 1 1 1 1 1
          1 1 1 0.677505 0.5 0.715024 0.999946 0.934082 0.969307 0.647249 0.5 0.593378
          0.986644 0.768259 0.866711 1 1 1 1 1 1 1 1 1
          0.999997 1 0.999999 1 1 1 1 1 1 1 1 1
          0.969307 0.995996 0.999946 1 1 1 1 1 1 0.999979 0.949173 0.999132
          1 1 1 1 1 1 1 1 1 1 1 1
          1 1 1 1 1 1 1 1 1 1 1 1
          1 1 1 1 1 1 1 1 1 1 1 1
          1 1 1 1 1 1 1 1 1 1 1 1
          1 1 1 1 1 1 1 1 1 1 1 1
          0.583365 0.5 0.669026 0.647249 0.768259 0.620802 0.669026 0.711695 0.583365 1 1 1
          1 1 1 1 1 1 1 1 1 0.999999 1 0.999985
        </DataArray>
        <DataArray type="Float32" Name="p_aq" NumberOfComponents="1" format="ascii">
          163532 166080 163636 116759 124349 119650 186878 181176 181078 148133 150241 148582
          150241 150754 148582 166080 167150 163636 116759 123708 124349 161938 160200 164886
          160200 160240 164886 143237 142721 141403 107224 111964 112729 133841 130908 133480
          138962 140842 139307 162559 157870 157903 128162 129131 130001 162235 164916 162293
          104656 110076 109673 151489 149518 150984 149518 148770 150984 135486 136813 134275
          145751 144013 146036 169351 171945 169495 183762 182135 180293 146036 147594 145751
          139191 138211 140204 178248 180772 194839 166425 163636 169495 153571 151489 150984
          146036 144764 147494 136066 135212 133303 164135 165540 163026 148557 150134 147494
          166080 163380 166375 183762 180293 181588 135532 133826 133010 150984 153112 153571
          158718 160977 161505 124349 129846 130346 133303 135212 133046 152455 150754 152461
          140631 139725 142511 115293 121092 120041 152455 152461 154102 143147 145249 146286
          152934 154246 155264 121303 122153 124844 144762 143237 142230 141716 139501 139067
          162285 164135 163026 143050 140959 141287 150698 152036 149842 150199 150134 148557
          142471 141018 140275 148770 149500 150984 181078 187314 192055 157904 156590 158833
          139191 141474 139423 141287 140959 139390 137226 138211 139191 181857 186519 182178
          142471 142781 141018 147280 149500 148770 158986 158434 159939 161653 163636 166425
          129131 131095 130001 162293 160160 162235 174301 170192 170784 158986 156953 158434
          192055 186878 181078 177374 180772 174356 136166 134232 135784 156397 157787 155114
          158989 157787 156397 165006 168438 164916 157406 158718 159689 136813 135990 134275
          155647 155116 149703 166820 170192 168330 143237 144745 142721 162559 162323 157870
          141125 141474 139191 156397 158033 158989 115293 113458 107885 127147 123488 128451
          145986 144895 148652 158487 156474 156501 170433 172916 172774 133841 131859 130908
          160266 162775 160982 122132 125001 125501 143147 142903 145249 140842 141403 139307
          194839 183225 178248 138211 140455 140204 152882 156243 155063 155114 154102 156397
          175007 177394 177622 137796 139357 140178 162013 161804 164112 159689 158718 161505
          130908 127043 129132 154205 152882 150915 106997 109390 105640 169351 169495 167150
          161653 162559 157903 136346 139357 137796 136066 137953 138211 150915 151632 154205
          147099 145571 147280 147280 148770 147099 128451 123488 123692 179955 174303 175903
          152036 154246 152934 168334 170192 166820 171674 168501 168699 143297 144881 147315
          155647 149703 151657 145877 143237 144762 172885 170192 174301 160073 162235 160160
          154758 151362 152934 173321 176161 176371 165636 168501 166992 155114 153112 152455
          160960 160977 158487 155211 154102 152461 196422 200000 191326 165186 164078 167240
          130470 133010 131655 131095 131868 130001 143297 140631 142511 125569 124809 121871
          175903 188288 179955 163705 162013 164112 138211 137953 140455 158166 160447 158859
          169495 171945 173321 139936 137763 137336 122176 125688 121871 185948 182157 186854
          151632 154696 154205 135467 137005 134891 177618 187314 181078 123965 124595 126206
          152455 154102 155114 162235 165006 164916 188922 187662 194325 168438 167240 164916
          142471 144764 142781 143147 146286 145501 163101 163247 160960 130660 133149 131387
          136066 135917 137953 160291 160160 162293 186501 193270 185419 129533 127043 130908
          142905 144881 144475 147280 145571 144564 174301 176451 172885 124844 124504 121303
          135407 137211 136506 143370 145511 144822 182178 186519 188088 160982 163101 160960
          134080 134338 131804 146985 147319 145043 144564 146424 147280 161715 167107 162317
          135532 137264 137975 181588 184094 183762 158181 160073 160160 177622 177394 179484
          134516 134232 136166 155211 158033 156397 131502 131536 129132 139552 140959 142230
          138851 138634 141426 146036 147494 148382 134169 133303 131623 166730 165617 164681
          137901 139924 138167 147668 149842 148899 160982 162944 163101 160960 163247 160977
          147567 149981 150628 170783 170433 172774 200000 200000 196713 158487 160977 158718
          129924 128603 127430 128671 131522 130951 197084 180772 191326 137975 137211 135532
          156397 154102 155211 160982 162775 162944 147315 145058 143297 157406 158044 154758
          169508 166772 166992 137953 135917 136823 185113 187160 184273 195547 200000 200000
          139924 140329 138167 148652 144895 145122 141966 144013 143842 142906 142175 145122
          130660 132779 133149 191326 200000 197084 169813 167358 167240 107412 111917 106547
          156474 158718 157406 131623 128945 130256 107885 113458 106997 145122 142175 142478
          137613 136022 138167 148652 148862 145986 124809 120015 121871 119439 117697 116361
          135754 139357 136346 144475 142369 142905 168361 166772 169508 157039 157787 159198
          122378 120132 117113 149792 146748 147642 122038 119439 120170 144564 145571 143185
          143360 141231 141018 132150 133010 130470 140842 139552 142230 180142 181715 179279
          148951 147319 146985 114003 109401 115106 138332 138762 140402 124595 126572 126206
          195293 195547 200000 142139 141243 139978 176371 179294 181909 178242 176157 174742
          167381 161938 164886 158487 158718 156474 183209 183087 185653 170334 164562 169426
          122038 122153 119439 166375 163380 165020 117697 114873 114174 112948 106997 113458
          134752 137036 136823 127430 126572 125094 159198 157787 159874 157471 160073 158181
          164636 162775 163995 100000 100000 107885 155751 156590 157904 114873 109673 110076
          143185 142040 144564 129132 127043 124614 137953 136823 139031 137798 137005 135467
          166677 168501 165636 167240 168438 170876 163532 163380 166080 150628 148116 147567
          142605 140635 137731 168438 172623 170876 109401 112545 115106 183762 187662 185113
          170876 173410 169813 133149 134891 135386 115293 115719 121092 132779 134891 133149
          117697 118991 114873 124338 125443 123144 185419 193270 192762 164681 165617 163995
          135532 133010 134126 131623 132840 134169 147494 144764 146178 153515 155211 152461
          135407 136506 135241 126454 128098 124155 185113 182135 183762 129650 127437 130470
          138634 136501 138295 152970 151362 154758 127430 128603 126572 128603 129924 130660
          168699 171225 171674 176161 179294 176371 126206 127437 124477 126895 129178 127430
          141960 144013 141966 152997 152036 150698 161715 155116 155647 129178 129924 127430
          127036 127437 129650 140058 137558 138405 135407 133826 135532 123708 129846 124349
          107224 106205 111964 142721 144745 144398 133413 134837 131851 133826 134080 131352
          121886 115719 119576 144822 145511 146777 170783 169984 168467 119552 122378 117113
          124155 128098 124756 181909 177374 176371 139501 139924 137901 182157 182227 186854
          138631 139067 136813 129650 129279 127036 143973 141231 143360 139978 137558 140058
          118991 119576 114873 107885 100000 110319 166992 168501 169508 130256 132840 131623
          141125 139191 140204 140842 143237 141403 169508 170232 168361 146777 147668 148899
          129132 129422 131502 135784 137540 136166 150698 150134 152076 143050 143014 145043
          131352 134080 131804 198026 200000 196713 174899 170334 169426 172039 170232 169508
          167240 167358 165186 130951 129169 128671 112948 109390 106997 156501 156474 154871
          145122 144895 142906 131804 134338 132910 149138 150134 150698 124477 127437 124844
          190772 195547 195293 168221 167070 165617 116965 119817 118272 144475 144564 142847
          162409 162215 164548 165617 167070 164636 160772 162775 160266 139978 141243 139121
          147494 150134 148382 189574 190772 195293 150698 149842 148884 169426 174303 174899
          169495 163636 167150 179165 182227 182157 175492 176904 174571 139978 141966 142139
          145768 149704 148398 157903 153653 155809 152340 152882 155063 169338 172692 167581
          144398 142217 142721 156501 154132 155906 149703 145058 147315 123144 121806 124338
          176371 172889 173321 144475 146424 144564 120041 121092 123299 157571 155548 152643
          164681 166772 166730 136830 138762 138332 169984 172265 171355 180142 179279 177886
          124477 122153 122038 154871 154132 156501 170784 173410 174301 119576 115719 114873
          158166 160291 160447 126693 126361 122991 186501 183209 185653 170738 172916 170433
          157262 153259 156707 135349 135724 133256 185419 186519 181857 149518 150199 148557
          175936 172677 174536 170784 170192 168334 188922 194325 193888 178242 182227 179165