<?xml version="1.0"?>
<VTKFile type="UnstructuredGrid" version="0.1" byte_order="LittleEndian">
  <UnstructuredGrid>
    <Piece NumberOfCells="10" NumberOfPoints="18">
      <PointData Scalars="S_liq" Vectors="velocity_liq (m/s)">
        <DataArray type="Float32" Name="S_liq" NumberOfComponents="1" format="ascii">
          0.371979 0.371979 0.354839 0.354839 0.371979 0.354839 0.328172 0.328172 0.328172 0.315209 0.315209 0.315209
          0.300496 0.300496 0.300496 0.284004 0.284004 0.284004
        </DataArray>
        <DataArray type="Float32" Name="p_liq" NumberOfComponents="1" format="ascii">
          92441.7 92441.7 92339 92339 92441.7 92339 92142.8 92142.8 92142.8 92022.4 92022.4 92022.4
          91852.6 91852.6 91852.6 91588.2 91588.2 91588.2
        </DataArray>
        <DataArray type="Float32" Name="rho_liq" NumberOfComponents="1" format="ascii">
          1012.93 1012.93 1012.93 1012.93 1012.93 1012.93 1012.94 1012.94 1012.94 1013.27 1013.27 1013.27
          1021.12 1021.12 1021.12 1201.64 1201.64 1201.64
        </DataArray>
        <DataArray type="Float32" Name="mob_liq" NumberOfComponents="1" format="ascii">
          6.3655 6.3655 4.25168 4.25168 6.3655 4.25168 1.94605 1.94605 1.94605 1.20036 1.20036 1.20036
          0.597685 0.597685 0.597685 0.112327 0.112327 0.112327
        </DataArray>
        <DataArray type="Float32" Name="S_gas" NumberOfComponents="1" format="ascii">
          0.628021 0.628021 0.645161 0.645161 0.628021 0.645161 0.671828 0.671828 0.671828 0.684791 0.684791 0.684791
          0.699504 0.699504 0.699504 0.715996 0.715996 0.715996
        </DataArray>
        <DataArray type="Float32" Name="p_gas" NumberOfComponents="1" format="ascii">
          100002 100002 100002 100002 100002 100002 100002 100002 100002 100002 100002 100002
          100002 100002 100002 100001 100001 100001
        </DataArray>
        <DataArray type="Float32" Name="rho_gas" NumberOfComponents="1" format="ascii">
          1.21011 1.21011 1.21011 1.21011 1.21011 1.21011 1.2101 1.2101 1.2101 1.21009 1.21009 1.21009
          1.21011 1.21011 1.21011 1.21071 1.21071 1.21071
        </DataArray>
        <DataArray type="Float32" Name="mob_gas" NumberOfComponents="1" format="ascii">
          38092.5 38092.5 40506.3 40506.3 38092.5 40506.3 44380.6 44380.6 44380.6 45060.3 45060.3 45060.3
          46766.5 46766.5 46766.5 50480.3 50480.3 50480.3
        </DataArray>
        <DataArray type="Float32" Name="pc" NumberOfComponents="1" format="ascii">
          7560.15 7560.15 7662.69 7662.69 7560.15 7662.69 7858.89 7858.89 7858.89 7979.27 7979.27 7979.27
          8148.97 8148.97 8148.97 8413.05 8413.05 8413.05
        </DataArray>
        <DataArray type="Float32" Name="porosity" NumberOfComponents="1" format="ascii">
          0.4 0.4 0.4 0.4 0.4 0.4 0.4 0.4 0.4 0.4 0.4 0.4
          0.4 0.4 0.4 0.399881 0.399881 0.399881
        </DataArray>
        <DataArray type="Float32" Name="x^H2O_liq" NumberOfComponents="1" format="ascii">
          0.993731 0.993731 0.993731 0.993731 0.993731 0.993731 0.993726 0.993726 0.993726 0.993572 0.993572 0.993572
          0.989938 0.989938 0.989938 0.901551 0.901551 0.901551
        </DataArray>
        <DataArray type="Float32" Name="x^Air_liq" NumberOfComponents="1" format="ascii">
          1.69649e-05 1.69649e-05 1.69646e-05 1.69646e-05 1.69649e-05 1.69646e-05 1.69637e-05 1.69637e-05 1.69637e-05 1.69634e-05 1.69634e-05 1.69634e-05
          1.6964e-05 1.6964e-05 1.6964e-05 1.69866e-05 1.69866e-05 1.69866e-05
        </DataArray>
        <DataArray type="Float32" Name="x^NaCl_liq" NumberOfComponents="1" format="ascii">
          0.00625221 0.00625221 0.00625235 0.00625235 0.00625221 0.00625235 0.00625695 0.00625695 0.00625695 0.00641114 0.00641114 0.00641114
          0.0100447 0.0100447 0.0100447 0.0984324 0.0984324 0.0984324
        </DataArray>
        <DataArray type="Float32" Name="rhoMolar_liq" NumberOfComponents="1" format="ascii">
          55447.9 55447.9 55447.8 55447.8 55447.9 55447.8 55447.8 55447.8 55447.8 55447.1 55447.1 55447.1
          55430.8 55430.8 55430.8 54633 54633 54633
        </DataArray>
        <DataArray type="Float32" Name="x^H2O_gas" NumberOfComponents="1" format="ascii">
          0.0149482 0.0149482 0.014949 0.014949 0.0149482 0.014949 0.0149512 0.0149512 0.0149512 0.0149498 0.0149498 0.0149498
          0.0148959 0.0148959 0.0148959 0.0135666 0.0135666 0.0135666
        </DataArray>
        <DataArray type="Float32" Name="x^Air_gas" NumberOfComponents="1" format="ascii">
          0.985052 0.985052 0.985051 0.985051 0.985052 0.985051 0.985049 0.985049 0.985049 0.98505 0.98505 0.98505
          0.985104 0.985104 0.985104 0.986433 0.986433 0.986433
        </DataArray>
        <DataArray type="Float32" Name="x^NaCl_gas" NumberOfComponents="1" format="ascii">
          -0 -0 -0 -0 -0 -0 -0 -0 -0 -0 -0 -0
          -0 -0 -0 -0 -0 -0
        </DataArray>
        <DataArray type="Float32" Name="rhoMolar_gas" NumberOfComponents="1" format="ascii">
          42.0233 42.0233 42.0231 42.0231 42.0233 42.0231 42.0227 42.0227 42.0227 42.0226 42.0226 42.0226
          42.0225 42.0225 42.0225 42.0221 42.0221 42.0221
        </DataArray>
        <DataArray type="Float32" Name="phase presence" NumberOfComponents="1" format="ascii">
          3 3 3 3 3 3 3 3 3 3 3 3
          3 3 3 3 3 3
        </DataArray>
        <DataArray type="Float32" Name="precipitateVolumeFraction^NaCl" NumberOfComponents="1" format="ascii">
          0 0 0 0 0 0 0 0 0 0 0 0
          0 0 0 0.000118521 0.000118521 0.000118521
        </DataArray>
        <DataArray type="Float32" Name="T" NumberOfComponents="1" format="ascii">
          286.213 286.213 286.214 286.214 286.213 286.214 286.216 286.216 286.216 286.217 286.217 286.217
          286.218 286.218 286.218 286.219 286.219 286.219
        </DataArray>
        <DataArray type="Float32" Name="velocity_liq (m/s)" NumberOfComponents="3" format="ascii">
          1.03746e-21 2.38488e-09 0 -1.98423e-35 2.38488e-09 0 5.87766e-23 4.64329e-09 0 -7.88844e-23 4.64329e-09 0
          -1.03746e-21 2.38488e-09 0 -2.16545e-22 4.64329e-09 0 1.41594e-24 8.40668e-09 0 -9.69917e-23 8.40668e-09 0
          -1.95399e-22 8.40668e-09 0 -1.24239e-22 1.05371e-08 0 -7.926e-23 1.05371e-08 0 -3.42811e-23 1.05371e-08 0
          -1.27138e-22 1.10058e-08 0 -8.93125e-23 1.10058e-08 0 -5.1487e-23 1.10058e-08 0 -5.47481e-23 1.08492e-08 0
          -2.24962e-23 1.08492e-08 0 9.75563e-24 1.08492e-08 0
        </DataArray>
        <DataArray type="Float32" Name="velocity_gas (m/s)" NumberOfComponents="3" format="ascii">
          2.7716e-18 -2.41272e-09 0 9.97775e-19 -2.41272e-09 0 1.41467e-18 -4.70992e-09 0 1.03153e-19 -4.70992e-09 0
          -7.76047e-19 -2.41272e-09 0 -1.20836e-18 -4.70992e-09 0 1.13019e-18 -7.87055e-09 0 -1.6307e-18 -7.87055e-09 0
          -4.3916e-18 -7.87055e-09 0 4.70043e-20 1.09611e-08 0 -8.87387e-19 1.09611e-08 0 -1.82178e-18 1.09611e-08 0
          6.01666e-18 6.71225e-07 0 5.05275e-19 6.71225e-07 0 -5.00611e-18 6.71225e-07 0 5.76436e-18 1.31179e-06 0
          -1.6845e-18 1.31179e-06 0 -9.13336e-18 1.31179e-06 0
        </DataArray>
        <DataArray type="Float32" Name="Permeability" NumberOfComponents="1" format="ascii">
          1e-13 1e-13 1e-13 1e-13 1e-13 1e-13 1e-13 1e-13 1e-13 1e-13 1e-13 1e-13
          9.99679e-14 9.99679e-14 9.99679e-14 9.99037e-14 9.99037e-14 9.99037e-14
        </DataArray>
      </PointData>
      <CellData Scalars="process rank">
        <DataArray type="Float32" Name="process rank" NumberOfComponents="1" format="ascii">
          0 0 0 0 0 0 0 0 0 0
        </DataArray>
      </CellData>
      <Points>
        <DataArray type="Float32" Name="Coordinates" NumberOfComponents="3" format="ascii">
          0 0 0 0.01 0 0 0 0.0075 0 0.01 0.0075 0
          0.02 0 0 0.02 0.0075 0 0 0.015 0 0.01 0.015 0
          0.02 0.015 0 0 0.016978 0 0.01 0.016978 0 0.02 0.016978 0
          0 0.0186264 0 0.01 0.0186264 0 0.02 0.0186264 0 0 0.02 0
          0.01 0.02 0 0.02 0.02 0
        </DataArray>
      </Points>
      <Cells>
        <DataArray type="Int32" Name="connectivity" NumberOfComponents="1" format="ascii">
          0 1 3 2 1 4 5 3 2 3 7 6
          3 5 8 7 6 7 10 9 7 8 11 10
          9 10 13 12 10 11 14 13 12 13 16 15
          13 14 17 16
        </DataArray>
        <DataArray type="Int32" Name="offsets" NumberOfComponents="1" format="ascii">
          4 8 12 16 20 24 28 32 36 40
        </DataArray>
        <DataArray type="UInt8" Name="types" NumberOfComponents="1" format="ascii">
          9 9 9 9 9 9 9 9 9 9
        </DataArray>
      </Cells>
    </Piece>
  </UnstructuredGrid>
</VTKFile>
