<?xml version="1.0"?>
<VTKFile type="UnstructuredGrid" version="0.1" byte_order="LittleEndian">
  <UnstructuredGrid>
    <Piece NumberOfCells="944" NumberOfPoints="513">
      <CellData Scalars="p">
        <DataArray type="Float32" Name="p" NumberOfComponents="1" format="ascii">
          1.02886 1.0122 1.07648 1.05535 1.02633 1.01413 1.05282 1.0671 1.10168 1.12517 1.15017 1.11024
          1.09486 1.14207 1.15854 1.03061 1.05709 1.07638 1.01648 1.03043 1.07644 1.05697 1.10179 1.1253
          1.1502 1.10059 1.12403 1.14893 1.17495 1.19995 1.22494 1.24993 1.19163 1.20828 1.2416 1.27493
          1.32491 1.29992 1.25826 1.29159 1.30776 1.17496 1.19996 1.22494 1.17495 1.19994 1.22494 1.24993
          1.27492 1.29943 1.32442 1.24993 1.27492 1.29992 1.32491 1.01396 1.02824 1.06742 1.05517 1.01429
          1.06944 1.09409 1.10545 1.1498 1.09306 1.10902 1.12939 1.13164 1.15229 1.02866 1.01437 1.05689
          1.07386 1.02845 1.01408 1.05971 1.0719 1.10237 1.12413 1.15142 1.1229 1.17582 1.19994 1.22494
          1.17606 1.20018 1.22493 1.24993 1.27492 1.29991 1.3249 1.24993 1.27492 1.29991 1.3249 1.20022
          1.17523 1.17499 1.22497 1.22497 1.24993 1.29991 1.27492 1.27492 1.3249 1.3249 1.35122 1.37621
          1.40194 1.3571 1.33863 1.40601 1.38616 1.42562 1.45086 1.47512 1.45277 1.4316 1.47776 1.34696
          1.37244 1.39318 1.34988 1.37488 1.39976 1.43637 1.4178 1.46169 1.48192 1.42195 1.44629 1.46746
          1.49528 1.52487 1.50012 1.57486 1.54987 1.50085 1.5256 1.54987 1.57486 1.6242 1.59921 1.6492
          1.5992 1.62027 1.64527 1.66289 1.5256 1.505 1.5724 1.5474 1.53907 1.5126 1.55706 1.6167
          1.59317 1.65601 1.63481 1.58617 1.60625 1.63137 1.65226 1.34988 1.37485 1.39974 1.34989 1.37487
          1.39986 1.42475 1.44911 1.47422 1.49921 1.42486 1.44987 1.47487 1.34989 1.39988 1.37489 1.37489
          1.44987 1.42488 1.42487 1.47486 1.47486 1.52486 1.55119 1.57618 1.49986 1.52486 1.54985 1.57485
          1.60214 1.6258 1.6508 1.59984 1.62484 1.64983 1.49986 1.54985 1.52485 1.52485 1.57484 1.57483
          1.59983 1.64982 1.62483 1.62482 1.02851 1.05507 1.07197 1.01443 1.02939 1.06037 1.09948 1.0992
          1.14995 1.14995 1.12262 1.12304 1.01496 1.03178 1.07378 1.05961 1.01682 1.07901 1.07918 1.10089
          1.10427 1.15037 1.15044 1.12649 1.1271 1.19998 1.19994 1.17495 1.17494 1.22493 1.22493 1.24992
          1.24992 1.29991 1.29991 1.27491 1.27491 1.3249 1.3249 1.19994 1.19995 1.17502 1.17522 1.22494
          1.22494 1.24992 1.24992 1.2999 1.2999 1.27491 1.27491 1.32489 1.32489 1.0303 1.01349 1.05831
          1.0646 1.02667 1.01319 1.04978 1.06275 1.10505 1.10603 1.15125 1.15125 1.08645 1.08489 1.12807
          1.12743 1.02751 1.05396 1.07173 1.01432 1.02875 1.0597 1.10383 1.09945 1.1504 1.15032 1.12296
          1.20014 1.20014 1.17521 1.17501 1.22493 1.22493 1.24992 1.24991 1.2999 1.2999 1.2749 1.2749
          1.32489 1.32489 1.19994 1.19993 1.17492 1.22492 1.24991 1.24991 1.29989 1.29989 1.2749 1.32488
          1.34989 1.34989 1.39988 1.39988 1.37488 1.37488 1.44987 1.44986 1.42487 1.42487 1.47485 1.47485
          1.34989 1.34989 1.39987 1.39987 1.37488 1.37487 1.44986 1.44985 1.42486 1.42486 1.47484 1.47484
          1.49985 1.49985 1.54984 1.54983 1.52484 1.52483 1.57482 1.57482 1.59982 1.59982 1.64981 1.64981
          1.62481 1.6248 1.49984 1.49984 1.54983 1.54982 1.52483 1.52482 1.57481 1.57481 1.59981 1.5998
          1.64979 1.64979 1.62479 1.62479 1.34988 1.34988 1.39986 1.39986 1.37487 1.37487 1.44985 1.44984
          1.42485 1.42485 1.47483 1.47483 1.34988 1.34987 1.39986 1.39986 1.37486 1.44984 1.44984 1.42484
          1.47482 1.49983 1.49983 1.54981 1.54981 1.52482 1.52481 1.5748 1.57479 1.59979 1.59979 1.64978
          1.64977 1.62478 1.62477 1.49982 1.49982 1.5498 1.5498 1.5248 1.57478 1.59978 1.59978 1.64976
          1.64975 1.62476 1.67485 1.69985 1.72485 1.7497 1.70818 1.69182 1.74136 1.77471 1.82553 1.80038
          1.75772 1.78673 1.80438 1.8299 1.6766 1.70014 1.72482 1.74951 1.67629 1.69981 1.72479 1.74969
          1.77262 1.79332 1.83292 1.81399 1.77283 1.81611 1.79564 1.87488 1.85054 1.89924 1.8509 1.89913
          1.87513 1.92426 1.9454 1.97107 1.98775 1.94671 1.92545 1.97237 1.98457 1.85391 1.87512 1.89975
          1.8569 1.83803 1.90102 1.87938 1.92608 1.9484 1.97341 1.94892 1.92787 1.98875 1.97392 1.67482
          1.69981 1.72481 1.7497 1.67482 1.69982 1.72482 1.77408 1.79688 1.81843 1.74981 1.77418 1.82027
          1.69981 1.67482 1.67481 1.72481 1.7248 1.7498 1.79882 1.79938 1.77474 1.77473 1.82349 1.82383
          1.83911 1.86059 1.88199 1.90427 1.86203 1.88355 1.90439 1.92852 1.94979 1.98503 1.97414 1.94801
          1.98893 1.97235 1.84238 1.84504 1.88924 1.87038 1.87346 1.92686 1.91785 1.9832 1.93524 1.92468
          1.96857 1.98511 1.6998 1.69979 1.6748 1.67479 1.72478 1.72477 1.74979 1.74978 1.79972 1.79976
          1.77477 1.77476 1.82475 1.82473 1.69978 1.69977 1.67478 1.67477 1.72476 1.72475 1.74976 1.74975
          1.79973 1.79971 1.77473 1.77472 1.82461 1.82461 1.84846 1.84933 1.89722 1.89947 1.87658 1.87699
          1.94356 1.92711 1.97066 1.98527 1.93925 1.9703 1.84971 1.84962 1.89933 1.8964 1.87397 1.87345
          1.92603 1.94053 1.98472 1.96816 1.92151 1.92112 1.9831 1.97176 1.69976 1.69975 1.67476 1.67475
          1.72474 1.72473 1.74974 1.74973 1.7997 1.79971 1.77472 1.77471 1.82469 1.82468 1.69974 1.69973
          1.67474 1.72472 1.74972 1.74971 1.79969 1.79968 1.77469 1.82467 1.84911 1.84918 1.8955 1.89578
          1.8738 1.87429 1.94376 1.94549 1.98829 1.92313 1.97349 1.98481 1.84967 1.84966 1.89815 1.87353
          1.89739 1.92501 1.9471 1.97321 1.98799 1.91725 1.94009 1.91767 1.95381 1.97559 1.01443 1.03007
          1.0723 1.05699 1.01564 1.07548 1.07297 1.09937 1.12242 1.14975 1.10134 1.1244 1.14976 1.02661
          1.01097 1.05102 1.02577 1.0148 1.05019 1.07197 1.09834 1.12391 1.14919 1.09817 1.12361 1.14906
          1.17489 1.1999 1.22492 1.17491 1.1999 1.22492 1.24991 1.2749 1.29989 1.32488 1.24991 1.2749
          1.29989 1.32488 1.17483 1.19982 1.22492 1.2499 1.17468 1.1998 1.22489 1.2499 1.2749 1.29989
          1.32488 1.27489 1.29988 1.32487 1.02576 1.01096 1.07246 1.05067 1.02605 1.05095 1.07321 1.12422
          1.09927 1.14975 1.09974 1.12484 1.1499 1.01509 1.02729 1.07381 1.05279 1.0122 1.02886 1.05436
          1.07548 1.10051 1.12501 1.1501 1.10061 1.15008 1.12509 1.17476 1.19987 1.22489 1.2499 1.19989
          1.17493 1.2499 1.22491 1.27489 1.32487 1.29988 1.27489 1.29988 1.32487 1.17495 1.19992 1.22491
          1.2499 1.19992 1.17493 1.2499 1.22491 1.27489 1.32487 1.29988 1.27489 1.29988 1.32487 1.34987
          1.37486 1.39985 1.34987 1.37486 1.39985 1.42484 1.44983 1.47482 1.42484 1.44983 1.47482 1.34987
          1.37486 1.39985 1.34986 1.37485 1.39984 1.42484 1.44982 1.47482 1.42483 1.44982 1.47481 1.49981
          1.5248 1.54979 1.57478 1.49981 1.5248 1.54979 1.57477 1.59977 1.62476 1.64975 1.59976 1.62475
          1.64974 1.4998 1.52479 1.54978 1.57477 1.4998 1.52479 1.54978 1.57477 1.59976 1.62475 1.64973
          1.59976 1.62474 1.64973 1.37485 1.34986 1.39984 1.34986 1.37485 1.39984 1.42483 1.44982 1.47481
          1.44982 1.42483 1.47481 1.37485 1.34986 1.39984 1.34986 1.39984 1.37485 1.42483 1.44982 1.47481
          1.44982 1.42483 1.47481 1.52479 1.4998 1.57476 1.54978 1.4998 1.52479 1.54977 1.57476 1.62474
          1.59975 1.64973 1.59975 1.62474 1.64972 1.52478 1.4998 1.57476 1.54977 1.4998 1.52478 1.54977
          1.57476 1.62474 1.59975 1.64972 1.59975 1.64972 1.62473 1.67474 1.69972 1.72471 1.67473 1.69972
          1.7247 1.7497 1.77469 1.79967 1.82466 1.74969 1.77468 1.79967 1.82465 1.67472 1.69971 1.7247
          1.74968 1.67472 1.6997 1.72468 1.74967 1.77467 1.79944 1.82443 1.77462 1.7994 1.82413 1.84965
          1.87353 1.89782 1.84965 1.87757 1.90187 1.93971 1.94775 1.98717 1.97342 1.92976 1.94084 1.9858
          1.84881 1.87696 1.89977 1.84855 1.87363 1.8967 1.92742 1.9712 1.98494 1.94168 1.92283 1.96883
          1.98341 1.67471 1.6997 1.72468 1.74966 1.6997 1.67471 1.74966 1.72468 1.77461 1.82428 1.79954
          1.77464 1.79957 1.82452 1.67471 1.69969 1.72468 1.74967 1.69969 1.67471 1.74967 1.72468 1.77464
          1.82458 1.79963 1.77465 1.79964 1.82462 1.87411 1.84919 1.89917 1.84941 1.87432 1.89916 1.92482
          1.947 1.97217 1.98827 1.94776 1.92557 1.97292 1.87432 1.84946 1.8987 1.8495 1.87448 1.89882
          1.9251 1.94634 1.98416 1.97197 1.94503 1.92391 1.98731 1.97065
        </DataArray>
        <DataArray type="Float32" Name="process rank" NumberOfComponents="1" format="ascii">
          0 0 0 0 0 0 0 0 0 0 0 0
          0 0 0 0 0 0 0 0 0 0 0 0
          0 0 0 0 0 0 0 0 0 0 0 0
          0 0 0 0 0 0 0 0 0 0 0 0
          0 0 0 0 0 0 0 0 0 0 0 0
          0 0 0 0 0 0 0 0 0 0 0 0
          0 0 0 0 0 0 0 0 0 0 0 0
          0 0 0 0 0 0 0 0 0 0 0 0
          0 0 0 0 0 0 0 0 0 0 0 0
          0 0 0 0 0 0 0 0 0 0 0 0
          0 0 0 0 0 0 0 0 0 0 0 0
          0 0 0 0 0 0 0 0 0 0 0 0
          0 0 0 0 0 0 0 0 0 0 0 0
          0 0 0 0 0 0 0 0 0 0 0 0
          0 0 0 0 0 0 0 0 0 0 0 0
          0 0 0 0 0 0 0 0 0 0 0 0
          0 0 0 0 0 0 0 0 0 0 0 0
          0 0 0 0 0 0 0 0 0 0 0 0
          0 0 0 0 0 0 0 0 0 0 0 0
          0 0 0 0 0 0 0 0 0 0 0 0
          0 0 0 0 0 0 0 0 0 0 0 0
          0 0 0 0 0 0 0 0 0 0 0 0
          0 0 0 0 0 0 0 0 0 0 0 0
          0 0 0 0 0 0 0 0 0 0 0 0
          0 0 0 0 0 0 0 0 0 0 0 0
          0 0 0 0 0 0 0 0 0 0 0 0
          0 0 0 0 0 0 0 0 0 0 0 0
          0 0 0 0 0 0 0 0 0 0 0 0
          0 0 0 0 0 0 0 0 0 0 0 0
          0 0 0 0 0 0 0 0 0 0 0 0
          0 0 0 0 0 0 0 0 0 0 0 0
          0 0 0 0 0 0 0 0 0 0 0 0
          0 0 0 0 0 0 0 0 0 0 0 0
          0 0 0 0 0 0 0 0 0 0 0 0
          0 0 0 0 0 0 0 0 0 0 0 0
          0 0 0 0 0 0 0 0 0 0 0 0
          0 0 0 0 0 0 0 0 0 0 0 0
          0 0 0 0 0 0 0 0 0 0 0 0
          0 0 0 0 0 0 0 0 0 0 0 0
          0 0 0 0 0 0 0 0 0 0 0 0
          0 0 0 0 0 0 0 0 0 0 0 0
          0 0 0 0 0 0 0 0 0 0 0 0
          0 0 0 0 0 0 0 0 0 0 0 0
          0 0 0 0 0 0 0 0 0 0 0 0
          0 0 0 0 0 0 0 0 0 0 0 0
          0 0 0 0 0 0 0 0 0 0 0 0
          0 0 0 0 0 0 0 0 0 0 0 0
          0 0 0 0 0 0 0 0 0 0 0 0
          0 0 0 0 0 0 0 0 0 0 0 0
          0 0 0 0 0 0 0 0 0 0 0 0
          0 0 0 0 0 0 0 0 0 0 0 0
          0 0 0 0 0 0 0 0 0 0 0 0
          0 0 0 0 0 0 0 0 0 0 0 0
          0 0 0 0 0 0 0 0 0 0 0 0
          0 0 0 0 0 0 0 0 0 0 0 0
          0 0 0 0 0 0 0 0 0 0 0 0
          0 0 0 0 0 0 0 0 0 0 0 0
          0 0 0 0 0 0 0 0 0 0 0 0
          0 0 0 0 0 0 0 0 0 0 0 0
          0 0 0 0 0 0 0 0 0 0 0 0
          0 0 0 0 0 0 0 0 0 0 0 0
          0 0 0 0 0 0 0 0 0 0 0 0
          0 0 0 0 0 0 0 0 0 0 0 0
          0 0 0 0 0 0 0 0 0 0 0 0
          0 0 0 0 0 0 0 0 0 0 0 0
          0 0 0 0 0 0 0 0 0 0 0 0
          0 0 0 0 0 0 0 0 0 0 0 0
          0 0 0 0 0 0 0 0 0 0 0 0
          0 0 0 0 0 0 0 0 0 0 0 0
          0 0 0 0 0 0 0 0 0 0 0 0
          0 0 0 0 0 0 0 0 0 0 0 0
          0 0 0 0 0 0 0 0 0 0 0 0
          0 0 0 0 0 0 0 0 0 0 0 0
          0 0 0 0 0 0 0 0 0 0 0 0
          0 0 0 0 0 0 0 0 0 0 0 0
          0 0 0 0 0 0 0 0 0 0 0 0
          0 0 0 0 0 0 0 0 0 0 0 0
          0 0 0 0 0 0 0 0 0 0 0 0
          0 0 0 0 0 0 0 0
        </DataArray>
      </CellData>
      <Points>
        <DataArray type="Float32" Name="Coordinates" NumberOfComponents="3" format="ascii">
          0.0366025 0.0366025 0 0.05 0 0 0 0 0 0 0.05 0
          0.0794937 0.0453515 0 0.1 0 0 0.0424082 0.0749186 0 0 0.1 0
          0.0794671 0.093288 0 0.125627 0.0343677 0 0.15 0 0 0.175 0.0433013 0
          0.1257 0.0866651 0 0.175036 0.0935773 0 0.0494432 0.127829 0 0.10029 0.131676 0
          0 0.15 0 0.0418822 0.178035 0 0.0796372 0.165525 0 0.15 0.134249 0
          0.121917 0.179959 0 0.175 0.177276 0 0.2 0 0 0.225 0.0401417 0
          0.25 0 0 0.275 0.0418902 0 0.225 0.0906733 0 0.3 0 0
          0.35 0 0 0.325 0.0433013 0 0.275 0.0906733 0 0.323526 0.0985982 0
          0.2 0.13421 0 0.25 0.134014 0 0.225 0.177276 0 0.299998 0.134257 0
          0.349991 0.134215 0 0.275 0.177282 0 0.324997 0.1773 0 0 0.2 0
          0.0428741 0.225457 0 0.0807928 0.204009 0 0 0.25 0 0.0847219 0.249653 0
          0.113746 0.223845 0 0.152614 0.222318 0 0.128685 0.263286 0 0.17572 0.264294 0
          0.043127 0.275 0 0 0.3 0 0.0938046 0.303433 0 0.0422553 0.325 0
          0 0.35 0 0.0797125 0.350019 0 0.15 0.30718 0 0.125 0.350481 0
          0.2 0.220577 0 0.25 0.220577 0 0.225 0.263878 0 0.3 0.220577 0
          0.349992 0.220582 0 0.275 0.263878 0 0.325 0.263878 0 0.20012 0.307249 0
          0.175 0.350481 0 0.25 0.30718 0 0.225 0.350481 0 0.3 0.30718 0
          0.275 0.350481 0 0.35 0.30718 0 0.325 0.350481 0 0.378933 0.0448231 0
          0.4 0 0 0.4272 0.044645 0 0.367642 0.0905439 0 0.412225 0.0920609 0
          0.45 0 0 0.475733 0.0435075 0 0.5 0 0 0.45572 0.0898033 0
          0.5022 0.0879071 0 0.4 0.133975 0 0.374945 0.177307 0 0.424672 0.177465 0
          0.441517 0.135553 0 0.488198 0.140788 0 0.473033 0.178411 0 0.525 0.177276 0
          0.525 0.0433013 0 0.55 0 0 0.575 0.0433013 0 0.6 0 0
          0.55 0.0863674 0 0.6 0.0866025 0 0.65 0 0 0.623033 0.0421657 0
          0.675 0.0433013 0 0.638198 0.0797889 0 0.675913 0.0930305 0 0.525 0.128493 0
          0.567617 0.130019 0 0.578987 0.175708 0 0.612327 0.125403 0 0.654359 0.13061 0
          0.627888 0.175171 0 0.674988 0.177322 0 0.399936 0.220614 0 0.374989 0.263885 0
          0.425 0.263878 0 0.45 0.220577 0 0.5 0.220577 0 0.475 0.263878 0
          0.4 0.30718 0 0.375 0.350481 0 0.45 0.30718 0 0.425 0.350481 0
          0.5 0.30718 0 0.475 0.350481 0 0.55 0.220852 0 0.6 0.220812 0
          0.525 0.263878 0 0.575 0.263878 0 0.649996 0.220626 0 0.625 0.263878 0
          0.675 0.263878 0 0.55 0.30718 0 0.525 0.350481 0 0.6 0.30718 0
          0.575 0.350481 0 0.65 0.30718 0 0.625 0.350481 0 0.0433013 0.375 0
          0.0929721 0.396222 0 0 0.4 0 0.0448912 0.423314 0 0.15 0.393782 0
          0.126268 0.437816 0 0 0.45 0 0.0504666 0.477188 0 0.0835399 0.442879 0
          0 0.5 0 0.103102 0.479855 0 0.084056 0.518458 0 0.175 0.437083 0
          0.150211 0.480507 0 0.128101 0.521985 0 0.2 0.393782 0 0.25 0.393782 0
          0.225006 0.437087 0 0.3 0.393782 0 0.275 0.437083 0 0.35 0.393782 0
          0.325 0.437083 0 0.200035 0.480405 0 0.175596 0.523404 0 0.250007 0.480389 0
          0.225 0.523686 0 0.3 0.480385 0 0.275 0.523686 0 0.35 0.480385 0
          0.325 0.523686 0 0.0404718 0.528686 0 0 0.55 0 0.0693341 0.553448 0
          0.0395714 0.576095 0 0 0.6 0 0.0793968 0.596222 0 0.106042 0.562533 0
          0.150196 0.566874 0 0.126174 0.609611 0 0.042974 0.626573 0 0.0928824 0.652147 0
          0 0.65 0 0.0433013 0.675 0 0.175 0.610289 0 0.149955 0.653616 0
          0.200033 0.566968 0 0.25 0.566987 0 0.225 0.610289 0 0.3 0.566987 0
          0.275 0.610289 0 0.35 0.566987 0 0.325 0.610289 0 0.2 0.65359 0
          0.25 0.65359 0 0.3 0.65359 0 0.35 0.65359 0 0.4 0.393782 0
          0.375 0.437083 0 0.45 0.393782 0 0.425 0.437083 0 0.5 0.393782 0
          0.475 0.437083 0 0.4 0.480385 0 0.375 0.523686 0 0.45 0.480385 0
          0.425 0.523686 0 0.5 0.480385 0 0.475 0.523686 0 0.55 0.393782 0
          0.525 0.437083 0 0.6 0.393782 0 0.575 0.437083 0 0.675 0.350481 0
          0.65 0.393782 0 0.625 0.437083 0 0.55 0.480385 0 0.525 0.523686 0
          0.6 0.480385 0 0.575 0.523686 0 0.675 0.437083 0 0.65 0.480385 0
          0.625 0.523686 0 0.4 0.566987 0 0.375 0.610289 0 0.45 0.566987 0
          0.425 0.610289 0 0.5 0.566987 0 0.475 0.610289 0 0.4 0.65359 0
          0.45 0.65359 0 0.5 0.65359 0 0.55 0.566987 0 0.525 0.610289 0
          0.6 0.566987 0 0.575 0.610289 0 0.675 0.523686 0 0.65 0.566987 0
          0.625 0.610289 0 0.55 0.65359 0 0.6 0.65359 0 0.675 0.610289 0
          0.65 0.65359 0 0.7 0 0 0.724977 0.0402453 0 0.75 0 0
          0.774556 0.0438812 0 0.725 0.0906733 0 0.8 0 0 0.827002 0.0419101 0
          0.85 0 0 0.774049 0.0926302 0 0.812013 0.0796668 0 0.851115 0.0859323 0
          0.699981 0.134221 0 0.749938 0.13401 0 0.724947 0.177306 0 0.774682 0.177459 0
          0.794348 0.130276 0 0.836069 0.125931 0 0.818392 0.174923 0 0.9 0 0
          0.875 0.0433013 0 0.923066 0.0421848 0 0.899678 0.0864165 0 0.95 0 0
          0.963397 0.0366025 0 1 0 0 1 0.05 0 0.95395 0.081444 0
          1 0.1 0 0.875 0.129904 0 0.925 0.129904 0 0.860114 0.171945 0
          0.903517 0.172644 0 0.96661 0.125567 0 0.955573 0.17454 0 1 0.15 0
          0.699989 0.22059 0 0.75 0.220577 0 0.725 0.263878 0 0.798092 0.221679 0
          0.839351 0.225137 0 0.775 0.263878 0 0.823938 0.264491 0 0.7 0.30718 0
          0.75 0.30718 0 0.725 0.350481 0 0.799823 0.307282 0 0.775 0.350481 0
          0.847355 0.308608 0 0.825 0.350481 0 0.882852 0.219719 0 0.926977 0.220995 0
          0.864464 0.268768 0 0.903936 0.259889 0 0.967372 0.225 0 1 0.2 0
          0.950309 0.269983 0 1 0.25 0 0.899992 0.306698 0 0.873737 0.350618 0
          1 0.3 0 0.956129 0.325515 0 0.918672 0.350723 0 1 0.35 0
          0.7 0.393782 0 0.75 0.393782 0 0.725 0.437083 0 0.8 0.393782 0
          0.775 0.437083 0 0.85 0.393782 0 0.824951 0.437055 0 0.7 0.480385 0
          0.75 0.480385 0 0.725 0.523686 0 0.799958 0.480361 0 0.775 0.523686 0
          0.849748 0.48024 0 0.825 0.523686 0 0.906805 0.395786 0 0.875 0.437083 0
          0.956699 0.375 0 1 0.4 0 0.955132 0.422543 0 0.917068 0.442207 0
          0.898046 0.479178 0 0.873491 0.522815 0 0.95036 0.476444 0 1 0.45 0
          0.915944 0.518458 0 1 0.5 0 0.966008 0.52345 0 0.7 0.566987 0
          0.75 0.566987 0 0.725 0.610289 0 0.8 0.566987 0 0.775 0.610289 0
          0.85 0.566987 0 0.825 0.610289 0 0.7 0.65359 0 0.75 0.65359 0
          0.8 0.65359 0 0.85 0.65359 0 0.898907 0.56746 0 0.875 0.610289 0
          0.955621 0.572764 0 1 0.55 0 1 0.6 0 0.921613 0.612416 0
          0.896668 0.652783 0 0.965224 0.625 0 1 0.65 0 0.934606 0.648359 0
          0.922918 0.690367 0 0.962822 0.674273 0 0 0.7 0 0.0469426 0.730731 0
          0.080797 0.698519 0 0 0.75 0 0.0987857 0.737639 0 0.07326 0.77892 0
          0.124541 0.696507 0 0.174916 0.696831 0 0.15 0.740192 0 0.032926 0.777022 0
          0 0.8 0 0.0444272 0.82546 0 0 0.85 0 0.098295 0.826482 0
          0.12307 0.782379 0 0.174678 0.783308 0 0.149616 0.826573 0 0.225 0.696891 0
          0.2 0.740192 0 0.25 0.740192 0 0.275 0.696891 0 0.325 0.696891 0
          0.3 0.740192 0 0.35 0.740192 0 0.225 0.783494 0 0.274998 0.783493 0
          0.199946 0.826764 0 0.249991 0.82679 0 0.325 0.783493 0 0.299998 0.826794 0
          0.349999 0.826795 0 0.0328902 0.873484 0 0 0.9 0 0.0747387 0.871554 0
          0.0452849 0.920409 0 0.0997022 0.914848 0 0.124898 0.870307 0 0.174919 0.870095 0
          0.150068 0.913437 0 0 0.95 0 0.0366025 0.963397 0 0.0765337 0.958936 0
          0 1 0 0.05 1 0 0.1 1 0 0.125409 0.956935 0
          0.175 0.956699 0 0.15 1 0 0.22499 0.87009 0 0.274997 0.870094 0
          0.199998 0.913396 0 0.249998 0.913396 0 0.324999 0.870096 0 0.299999 0.913397 0
          0.35 0.913397 0 0.225 0.956699 0 0.274999 0.956698 0 0.2 1 0
          0.25 1 0 0.325 0.956699 0 0.3 1 0 0.35 1 0
          0.375 0.696891 0 0.425 0.696891 0 0.4 0.740192 0 0.475 0.696891 0
          0.45 0.740192 0 0.5 0.740192 0 0.375 0.783494 0 0.425 0.783494 0
          0.4 0.826795 0 0.475 0.783494 0 0.45 0.826795 0 0.5 0.826795 0
          0.525 0.696891 0 0.575 0.696891 0 0.55 0.740192 0 0.6 0.740192 0
          0.625 0.696891 0 0.675 0.696891 0 0.65 0.740192 0 0.525 0.783494 0
          0.575 0.783494 0 0.55 0.826795 0 0.6 0.826795 0 0.625 0.783494 0
          0.674999 0.783493 0 0.649999 0.826794 0 0.375 0.870096 0 0.425 0.870096 0
          0.4 0.913397 0 0.475 0.870096 0 0.45 0.913397 0 0.5 0.913397 0
          0.375 0.956699 0 0.425 0.956699 0 0.4 1 0 0.475 0.956699 0
          0.45 1 0 0.5 1 0 0.525 0.870096 0 0.575 0.870096 0
          0.55 0.913397 0 0.6 0.913397 0 0.625 0.870096 0 0.674998 0.870095 0
          0.65 0.913397 0 0.525 0.956699 0 0.575 0.956699 0 0.55 1 0
          0.6 1 0 0.625 0.956699 0 0.675 0.956699 0 0.65 1 0
          0.725 0.696891 0 0.7 0.740192 0 0.75 0.740192 0 0.775 0.696891 0
          0.825 0.696891 0 0.8 0.740192 0 0.85 0.740192 0 0.724996 0.783491 0
          0.775 0.783494 0 0.699996 0.826793 0 0.749982 0.826785 0 0.824359 0.783124 0
          0.799893 0.826733 0 0.849234 0.828258 0 0.875022 0.698297 0 0.908849 0.746328 0
          0.958756 0.724879 0 1 0.7 0 0.956201 0.775773 0 1 0.75 0
          0.873195 0.784972 0 0.918482 0.795007 0 0.89964 0.836311 0 1 0.8 0
          0.951658 0.82976 0 1 0.85 0 0.724994 0.870092 0 0.774979 0.870084 0
          0.699998 0.913396 0 0.749995 0.913395 0 0.824828 0.87034 0 0.799976 0.913406 0
          0.849884 0.913465 0 0.724999 0.956698 0 0.774999 0.956698 0 0.7 1 0
          0.75 1 0 0.825 0.956699 0 0.8 1 0 0.85 1 0
          0.874671 0.873019 0 0.924455 0.87421 0 0.899624 0.913615 0 0.966254 0.874748 0
          1 0.9 0 0.953942 0.918561 0 0.874678 0.956885 0 0.923066 0.957815 0
          0.9 1 0 0.963397 0.963397 0 1 0.95 0 0.95 1 0
          1 1 0
        </DataArray>
      </Points>
      <Cells>
        <DataArray type="Int32" Name="connectivity" NumberOfComponents="1" format="ascii">
          0 1 2 2 3 0 4 5 1 1 0 4
          6 0 3 7 6 3 4 0 6 4 6 8
          4 9 5 5 9 10 11 10 9 12 9 4
          4 8 12 11 9 12 12 13 11 14 6 7
          14 8 6 15 8 14 7 16 14 16 17 14
          14 18 15 17 18 14 12 8 15 12 15 19
          19 13 12 15 18 20 19 15 20 20 21 19
          10 11 22 23 22 11 22 23 24 25 24 23
          11 13 26 26 23 11 25 23 26 24 25 27
          28 27 29 29 27 25 26 30 25 29 25 30
          30 31 29 32 13 19 26 13 32 32 33 26
          19 21 32 34 32 21 32 34 33 30 26 33
          30 33 35 35 31 30 36 31 35 37 33 34
          33 37 35 38 35 37 35 38 36 16 39 17
          40 17 39 41 18 17 40 41 17 42 40 39
          43 41 40 20 18 41 41 44 20 20 45 21
          43 44 41 46 44 43 20 44 45 45 44 46
          45 46 47 48 40 42 49 48 42 48 43 40
          50 43 48 48 49 51 52 51 49 48 51 50
          51 53 50 50 46 43 54 46 50 47 46 54
          55 54 50 45 56 21 21 56 34 56 57 34
          56 45 47 47 58 56 58 57 56 34 57 37
          59 37 57 37 59 38 60 38 59 57 58 61
          61 59 57 59 61 62 62 60 59 58 47 63
          63 47 54 54 64 63 63 65 58 65 63 66
          58 65 61 67 62 61 61 65 67 68 67 65
          62 67 69 70 69 67 71 28 29 71 72 28
          72 71 73 74 71 29 29 31 74 75 73 71
          71 74 75 73 76 72 76 73 77 77 78 76
          79 77 73 73 75 79 77 79 80 74 31 36
          74 36 81 81 75 74 82 36 38 81 36 82
          82 83 81 84 79 75 75 81 84 79 84 85
          85 80 79 83 84 81 84 83 86 86 85 84
          87 85 86 78 88 89 78 77 88 89 90 91
          90 89 88 80 88 77 80 92 88 88 92 90
          93 90 92 94 91 95 90 95 91 96 94 95
          95 90 93 93 97 95 95 97 96 97 98 96
          92 80 99 85 99 80 93 92 100 99 100 92
          100 99 87 87 99 85 87 101 100 97 93 102
          100 102 93 103 98 97 97 102 103 102 100 101
          101 104 102 104 103 102 104 105 103 60 82 38
          82 60 106 106 83 82 60 62 107 107 106 60
          108 106 107 109 83 106 109 86 83 86 109 110
          86 110 87 106 108 109 109 108 111 109 111 110
          69 107 62 107 112 108 107 69 112 113 112 69
          114 111 108 108 112 114 115 114 112 111 114 116
          116 114 117 87 110 118 87 118 101 118 119 101
          110 111 120 110 120 118 121 118 120 118 121 119
          104 101 119 119 122 104 122 105 104 123 119 121
          119 123 122 124 122 123 111 116 120 120 125 121
          120 116 125 116 126 125 121 125 127 125 128 127
          127 123 121 123 129 124 123 127 129 130 129 127
          51 52 131 131 53 51 132 53 131 52 133 131
          134 131 133 132 131 134 50 53 55 55 53 132
          64 54 55 135 64 55 135 55 132 132 136 135
          134 133 137 138 134 137 134 139 132 138 139 134
          137 140 138 141 139 138 142 141 138 132 139 136
          136 139 141 136 143 135 143 136 144 136 141 144
          145 144 141 64 66 63 66 64 146 135 146 64
          146 135 143 146 147 66 148 147 146 66 68 65
          68 66 147 68 70 67 149 70 68 147 149 68
          147 150 149 149 151 70 151 149 152 148 146 143
          153 148 143 143 144 153 154 153 144 148 153 155
          155 153 156 148 150 147 155 150 148 150 152 149
          150 157 152 155 157 150 157 155 158 152 157 159
          157 160 159 140 161 138 162 161 140 138 161 142
          161 163 142 161 162 164 165 164 162 164 163 161
          166 163 164 141 142 145 167 145 142 144 145 154
          154 145 168 142 163 167 166 167 163 145 167 168
          169 168 167 164 165 170 170 166 164 166 170 171
          165 172 170 173 170 172 170 173 171 167 166 169
          171 169 166 168 169 174 174 169 175 175 169 171
          153 154 156 156 154 176 168 176 154 176 168 174
          156 176 177 178 177 176 156 158 155 156 177 158
          157 158 160 158 179 160 158 177 179 177 180 179
          181 160 179 179 182 181 174 178 176 178 174 183
          183 174 175 178 183 184 178 180 177 178 184 180
          182 179 180 180 185 182 185 180 184 186 182 185
          69 70 113 151 113 70 112 113 115 187 115 113
          113 151 187 188 187 151 115 117 114 117 115 189
          115 187 189 190 189 187 117 189 191 191 189 192
          152 188 151 159 188 152 187 188 190 193 190 188
          159 193 188 159 194 193 190 192 189 192 190 195
          193 195 190 193 196 195 195 197 192 195 198 197
          116 117 126 117 191 126 125 126 128 126 199 128
          199 126 191 191 200 199 199 201 128 201 199 202
          130 127 128 128 201 130 129 130 203 203 130 204
          201 204 130 201 205 204 192 200 191 192 197 200
          200 202 199 202 200 206 197 206 200 207 206 197
          206 208 202 208 206 209 202 205 201 202 208 205
          210 204 205 205 211 210 208 211 205 208 212 211
          194 159 160 160 181 194 196 193 194 194 213 196
          213 194 181 181 214 213 195 196 198 215 198 196
          215 196 213 213 216 215 198 215 217 217 215 218
          214 181 182 182 186 214 213 214 216 214 219 216
          219 214 186 215 216 218 218 216 220 220 216 219
          218 220 221 198 207 197 217 207 198 207 209 206
          222 209 207 207 217 222 223 222 217 209 222 224
          224 222 225 209 212 208 212 209 224 226 211 212
          226 212 227 212 224 227 227 224 228 217 218 223
          223 218 221 222 223 225 229 225 223 223 221 229
          225 229 230 224 225 228 228 225 230 227 228 231
          231 228 232 228 230 232 96 233 94 234 233 96
          233 234 235 235 234 236 237 234 96 96 98 237
          236 234 237 238 235 236 238 239 240 239 238 236
          237 241 236 236 241 242 236 242 239 239 242 243
          98 103 244 237 98 244 244 245 237 245 241 237
          105 244 103 246 244 105 245 244 246 245 246 247
          245 248 241 242 241 248 249 243 242 248 249 242
          248 245 247 249 248 250 247 250 248 251 240 252
          240 239 252 252 253 251 243 252 239 253 252 254
          252 243 254 255 251 253 253 256 255 257 255 256
          256 258 257 259 256 253 259 253 254 258 256 259
          259 260 258 243 249 261 261 254 243 254 261 262
          263 261 249 250 263 249 264 262 261 261 263 264
          259 254 262 262 265 259 259 265 260 266 265 262
          262 264 266 260 265 267 267 265 266 122 268 105
          268 246 105 269 246 268 269 247 246 122 124 268
          270 268 124 268 270 269 247 269 271 250 247 271
          250 271 272 269 270 273 273 271 269 274 272 271
          124 275 270 275 124 129 275 129 203 276 270 275
          275 277 276 270 276 273 271 273 274 278 274 273
          273 276 278 279 278 276 274 278 280 281 280 278
          263 250 272 272 282 263 282 264 263 264 282 283
          282 272 284 284 285 282 285 283 282 266 264 283
          283 286 266 287 267 266 286 287 266 288 286 283
          287 286 289 289 286 288 272 274 284 280 284 274
          290 285 284 290 284 280 280 291 290 283 285 288
          288 285 290 292 289 288 290 293 288 290 294 293
          288 293 292 293 295 292 277 275 203 203 296 277
          296 203 204 204 210 296 297 277 296 296 298 297
          277 279 276 277 297 279 278 279 281 281 279 299
          297 299 279 299 297 300 299 301 281 301 299 302
          298 296 210 210 303 298 303 210 211 211 226 303
          303 304 298 303 305 304 298 300 297 300 298 304
          300 302 299 302 300 306 304 306 300 306 304 307
          306 308 302 309 308 306 280 281 291 301 291 281
          291 294 290 310 294 291 310 291 301 301 311 310
          293 294 312 312 294 310 293 312 295 312 313 295
          314 312 310 313 312 314 311 301 302 302 308 311
          311 315 310 316 315 311 308 316 311 316 308 317
          310 315 314 314 315 318 319 313 314 319 314 318
          318 315 316 318 316 320 318 321 319 318 322 321
          305 303 226 323 305 226 227 323 226 323 227 231
          324 305 323 324 323 325 307 304 305 305 324 307
          306 307 309 307 326 309 326 307 324 326 324 327
          328 309 326 328 326 329 323 231 325 325 231 330
          231 232 330 325 330 331 325 327 324 327 325 331
          326 327 329 329 327 332 327 331 332 329 332 333
          309 317 308 317 309 328 317 320 316 320 317 334
          317 328 334 335 334 328 320 322 318 336 322 320
          321 322 337 320 334 336 336 337 322 338 337 336
          335 328 329 335 329 333 334 335 339 333 340 335
          340 339 335 334 339 336 336 339 341 341 338 336
          338 341 342 340 343 339 339 343 341 344 343 340
          341 343 345 345 342 341 346 173 172 347 173 346
          173 348 171 347 348 173 346 349 347 350 348 347
          351 350 347 171 348 352 171 352 175 353 175 352