<?xml version="1.0"?>
<VTKFile type="UnstructuredGrid" version="0.1" byte_order="LittleEndian">
  <UnstructuredGrid>
    <Piece NumberOfCells="400" NumberOfPoints="441">
      <PointData Scalars="S_liq" Vectors="velocity_liq (m/s)">
        <DataArray type="Float32" Name="S_liq" NumberOfComponents="1" format="ascii">
          0.5 0.5 0.499013 0.499013 0.5 0.499013 0.5 0.499013 0.5 0.499013 0.5 0.499013
          0.5 0.499013 0.5 0.499013 0.5 0.499013 0.5 0.499013 0.5 0.499013 0.5 0.499013
          0.5 0.499013 0.5 0.499013 0.5 0.499013 0.5 0.499013 0.5 0.499013 0.5 0.499013
          0.5 0.499013 0.5 0.499013 0.5 0.499013 0.498031 0.498031 0.498031 0.498031 0.498031 0.498031
          0.498031 0.498031 0.498031 0.498031 0.498031 0.498031 0.498031 0.498031 0.498031 0.498031 0.498031 0.498031
          0.498031 0.498031 0.498031 0.497056 0.497056 0.497056 0.497056 0.497056 0.497056 0.497056 0.497056 0.497056
          0.497056 0.497056 0.497056 0.497056 0.497056 0.497056 0.497056 0.497056 0.497056 0.497056 0.497056 0.497056
          0.496088 0.496088 0.496088 0.496088 0.496088 0.496088 0.496088 0.496088 0.496088 0.496088 0.496088 0.496088
          0.496088 0.496088 0.496088 0.496088 0.496088 0.496088 0.496088 0.496088 0.496088 0.495125 0.495125 0.495125
          0.495125 0.495125 0.495125 0.495125 0.495125 0.495125 0.495125 0.495125 0.495125 0.495125 0.495125 0.495125
          0.495125 0.495125 0.495125 0.495125 0.495125 0.495125 0.494169 0.494169 0.494169 0.494169 0.494169 0.494169
          0.494169 0.494169 0.494169 0.494169 0.494169 0.494169 0.494169 0.494169 0.494169 0.494169 0.494169 0.494169
          0.494169 0.494169 0.494169 0.493218 0.493218 0.493218 0.493218 0.493218 0.493218 0.493218 0.493218 0.493218
          0.493218 0.493218 0.493218 0.493218 0.493218 0.493218 0.493218 0.493218 0.493218 0.493218 0.493218 0.493218
          0.492274 0.492274 0.492274 0.492274 0.492274 0.492274 0.492274 0.492274 0.492274 0.492274 0.492274 0.492274
          0.492274 0.492274 0.492274 0.492274 0.492274 0.492274 0.492274 0.492274 0.492274 0.491335 0.491335 0.491335
          0.491335 0.491335 0.491335 0.491335 0.491335 0.491335 0.491335 0.491335 0.491335 0.491335 0.491335 0.491335
          0.491335 0.491335 0.491335 0.491335 0.491335 0.491335 0.490402 0.490402 0.490402 0.490402 0.490402 0.490402
          0.490402 0.490402 0.490402 0.490402 0.490402 0.490402 0.490402 0.490402 0.490402 0.490402 0.490402 0.490402
          0.490402 0.490402 0.490402 0.489476 0.489476 0.489476 0.489476 0.489476 0.489476 0.489476 0.489476 0.489476
          0.489476 0.489476 0.489476 0.489476 0.489476 0.489476 0.489476 0.489476 0.489476 0.489476 0.489476 0.489476
          0.488554 0.488554 0.488554 0.488554 0.488554 0.488554 0.488554 0.488554 0.488554 0.488554 0.488554 0.488554
          0.488554 0.488554 0.488554 0.488554 0.488554 0.488554 0.488554 0.488554 0.488554 0.487639 0.487639 0.487639
          0.487639 0.487639 0.487639 0.487639 0.487639 0.487639 0.487639 0.487639 0.487639 0.487639 0.487639 0.487639
          0.487639 0.487639 0.487639 0.487639 0.487639 0.487639 0.486729 0.486729 0.486729 0.486729 0.486729 0.486729
          0.486729 0.486729 0.486729 0.486729 0.486729 0.486729 0.486729 0.486729 0.486729 0.486729 0.486729 0.486729
          0.486729 0.486729 0.486729 0.485824 0.485824 0.485824 0.485824 0.485824 0.485824 0.485824 0.485824 0.485824
          0.485824 0.485824 0.485824 0.485824 0.485824 0.485824 0.485824 0.485824 0.485824 0.485824 0.485824 0.485824
          0.484926 0.484926 0.484926 0.484926 0.484926 0.484926 0.484926 0.484926 0.484926 0.484926 0.484926 0.484926
          0.484926 0.484926 0.484926 0.484926 0.484926 0.484926 0.484926 0.484926 0.484926 0.484032 0.484032 0.484032
          0.484032 0.484032 0.484032 0.484032 0.484032 0.484032 0.484032 0.484032 0.484032 0.484032 0.484032 0.484032
          0.484032 0.484032 0.484032 0.484032 0.484032 0.484032 0.483144 0.483144 0.483144 0.483144 0.483144 0.483144
          0.483144 0.483144 0.483144 0.483144 0.483144 0.483144 0.483144 0.483144 0.483144 0.483144 0.483144 0.483144
          0.483144 0.483144 0.483144 0.482262 0.482262 0.482262 0.482262 0.482262 0.482262 0.482262 0.482262 0.482262
          0.482262 0.482262 0.482262 0.482262 0.482262 0.482262 0.482262 0.482262 0.482262 0.482262 0.482262 0.482262
          0.481384 0.481384 0.481384 0.481384 0.481384 0.481384 0.481384 0.481384 0.481384 0.481384 0.481384 0.481384
          0.481384 0.481384 0.481384 0.481384 0.481384 0.481384 0.481384 0.481384 0.481384
        </DataArray>
        <DataArray type="Float32" Name="p_liq" NumberOfComponents="1" format="ascii">
          98395 98395 98395.1 98395.1 98395 98395.1 98395 98395.1 98395 98395.1 98395 98395.1
          98395 98395.1 98395 98395.1 98395 98395.1 98395 98395.1 98395 98395.1 98395 98395.1
          98395 98395.1 98395 98395.1 98395 98395.1 98395 98395.1 98395 98395.1 98395 98395.1
          98395 98395.1 98395 98395.1 98395 98395.1 98395.2 98395.2 98395.2 98395.2 98395.2 98395.2
          98395.2 98395.2 98395.2 98395.2 98395.2 98395.2 98395.2 98395.2 98395.2 98395.2 98395.2 98395.2
          98395.2 98395.2 98395.2 98395.3 98395.3 98395.3 98395.3 98395.3 98395.3 98395.3 98395.3 98395.3
          98395.3 98395.3 98395.3 98395.3 98395.3 98395.3 98395.3 98395.3 98395.3 98395.3 98395.3 98395.3
          98395.5 98395.5 98395.5 98395.5 98395.5 98395.5 98395.5 98395.5 98395.5 98395.5 98395.5 98395.5
          98395.5 98395.5 98395.5 98395.5 98395.5 98395.5 98395.5 98395.5 98395.5 98395.6 98395.6 98395.6
          98395.6 98395.6 98395.6 98395.6 98395.6 98395.6 98395.6 98395.6 98395.6 98395.6 98395.6 98395.6
          98395.6 98395.6 98395.6 98395.6 98395.6 98395.6 98395.7 98395.7 98395.7 98395.7 98395.7 98395.7
          98395.7 98395.7 98395.7 98395.7 98395.7 98395.7 98395.7 98395.7 98395.7 98395.7 98395.7 98395.7
          98395.7 98395.7 98395.7 98395.9 98395.9 98395.9 98395.9 98395.9 98395.9 98395.9 98395.9 98395.9
          98395.9 98395.9 98395.9 98395.9 98395.9 98395.9 98395.9 98395.9 98395.9 98395.9 98395.9 98395.9
          98396 98396 98396 98396 98396 98396 98396 98396 98396 98396 98396 98396
          98396 98396 98396 98396 98396 98396 98396 98396 98396 98396.1 98396.1 98396.1
          98396.1 98396.1 98396.1 98396.1 98396.1 98396.1 98396.1 98396.1 98396.1 98396.1 98396.1 98396.1
          98396.1 98396.1 98396.1 98396.1 98396.1 98396.1 98396.2 98396.2 98396.2 98396.2 98396.2 98396.2
          98396.2 98396.2 98396.2 98396.2 98396.2 98396.2 98396.2 98396.2 98396.2 98396.2 98396.2 98396.2
          98396.2 98396.2 98396.2 98396.4 98396.4 98396.4 98396.4 98396.4 98396.4 98396.4 98396.4 98396.4
          98396.4 98396.4 98396.4 98396.4 98396.4 98396.4 98396.4 98396.4 98396.4 98396.4 98396.4 98396.4
          98396.5 98396.5 98396.5 98396.5 98396.5 98396.5 98396.5 98396.5 98396.5 98396.5 98396.5 98396.5
          98396.5 98396.5 98396.5 98396.5 98396.5 98396.5 98396.5 98396.5 98396.5 98396.6 98396.6 98396.6
          98396.6 98396.6 98396.6 98396.6 98396.6 98396.6 98396.6 98396.6 98396.6 98396.6 98396.6 98396.6
          98396.6 98396.6 98396.6 98396.6 98396.6 98396.6 98396.8 98396.8 98396.8 98396.8 98396.8 98396.8
          98396.8 98396.8 98396.8 98396.8 98396.8 98396.8 98396.8 98396.8 98396.8 98396.8 98396.8 98396.8
          98396.8 98396.8 98396.8 98396.9 98396.9 98396.9 98396.9 98396.9 98396.9 98396.9 98396.9 98396.9
          98396.9 98396.9 98396.9 98396.9 98396.9 98396.9 98396.9 98396.9 98396.9 98396.9 98396.9 98396.9
          98397.1 98397.1 98397.1 98397.1 98397.1 98397.1 98397.1 98397.1 98397.1 98397.1 98397.1 98397.1
          98397.1 98397.1 98397.1 98397.1 98397.1 98397.1 98397.1 98397.1 98397.1 98397.2 98397.2 98397.2
          98397.2 98397.2 98397.2 98397.2 98397.2 98397.2 98397.2 98397.2 98397.2 98397.2 98397.2 98397.2
          98397.2 98397.2 98397.2 98397.2 98397.2 98397.2 98397.3 98397.3 98397.3 98397.3 98397.3 98397.3
          98397.3 98397.3 98397.3 98397.3 98397.3 98397.3 98397.3 98397.3 98397.3 98397.3 98397.3 98397.3
          98397.3 98397.3 98397.3 98397.5 98397.5 98397.5 98397.5 98397.5 98397.5 98397.5 98397.5 98397.5
          98397.5 98397.5 98397.5 98397.5 98397.5 98397.5 98397.5 98397.5 98397.5 98397.5 98397.5 98397.5
          98397.6 98397.6 98397.6 98397.6 98397.6 98397.6 98397.6 98397.6 98397.6 98397.6 98397.6 98397.6
          98397.6 98397.6 98397.6 98397.6 98397.6 98397.6 98397.6 98397.6 98397.6
        </DataArray>
        <DataArray type="Float32" Name="rho_liq" NumberOfComponents="1" format="ascii">
          1000 1000 1000 1000 1000 1000 1000 1000 1000 1000 1000 1000
          1000 1000 1000 1000 1000 1000 1000 1000 1000 1000 1000 1000
          1000 1000 1000 1000 1000 1000 1000 1000 1000 1000 1000 1000
          1000 1000 1000 1000 1000 1000 1000 1000 1000 1000 1000 1000
          1000 1000 1000 1000 1000 1000 1000 1000 1000 1000 1000 1000
          1000 1000 1000 1000 1000 1000 1000 1000 1000 1000 1000 1000
          1000 1000 1000 1000 1000 1000 1000 1000 1000 1000 1000 1000
          1000 1000 1000 1000 1000 1000 1000 1000 1000 1000 1000 1000
          1000 1000 1000 1000 1000 1000 1000 1000 1000 1000 1000 1000
          1000 1000 1000 1000 1000 1000 1000 1000 1000 1000 1000 1000
          1000 1000 1000 1000 1000 1000 1000 1000 1000 1000 1000 1000
          1000 1000 1000 1000 1000 1000 1000 1000 1000 1000 1000 1000
          1000 1000 1000 1000 1000 1000 1000 1000 1000 1000 1000 1000
          1000 1000 1000 1000 1000 1000 1000 1000 1000 1000 1000 1000
          1000 1000 1000 1000 1000 1000 1000 1000 1000 1000 1000 1000
          1000 1000 1000 1000 1000 1000 1000 1000 1000 1000 1000 1000
          1000 1000 1000 1000 1000 1000 1000 1000 1000 1000 1000 1000
          1000 1000 1000 1000 1000 1000 1000 1000 1000 1000 1000 1000
          1000 1000 1000 1000 1000 1000 1000 1000 1000 1000 1000 1000
          1000 1000 1000 1000 1000 1000 1000 1000 1000 1000 1000 1000
[...]
      <CellData Scalars="process rank">
        <DataArray type="Float32" Name="process rank" NumberOfComponents="1" format="ascii">
          0 0 0 0 0 0 0 0 0 0 0 0
          0 0 0 0 0 0 0 0 0 0 0 0
          0 0 0 0 0 0 0 0 0 0 0 0
          0 0 0 0 0 0 0 0 0 0 0 0
          0 0 0 0 0 0 0 0 0 0 0 0
          0 0 0 0 0 0 0 0 0 0 0 0
          0 0 0 0 0 0 0 0 0 0 0 0
          0 0 0 0 0 0 0 0 0 0 0 0
          0 0 0 0 0 0 0 0 0 0 0 0
          0 0 0 0 0 0 0 0 0 0 0 0
          0 0 0 0 0 0 0 0 0 0 0 0
          0 0 0 0 0 0 0 0 0 0 0 0
          0 0 0 0 0 0 0 0 0 0 0 0
          0 0 0 0 0 0 0 0 0 0 0 0
          0 0 0 0 0 0 0 0 0 0 0 0
          0 0 0 0 0 0 0 0 0 0 0 0
          0 0 0 0 0 0 0 0 0 0 0 0
          0 0 0 0 0 0 0 0 0 0 0 0
          0 0 0 0 0 0 0 0 0 0 0 0
          0 0 0 0 0 0 0 0 0 0 0 0
          0 0 0 0 0 0 0 0 0 0 0 0
          0 0 0 0 0 0 0 0 0 0 0 0
          0 0 0 0 0 0 0 0 0 0 0 0
          0 0 0 0 0 0 0 0 0 0 0 0
          0 0 0 0 0 0 0 0 0 0 0 0
          0 0 0 0 0 0 0 0 0 0 0 0
          0 0 0 0 0 0 0 0 0 0 0 0
          0 0 0 0 0 0 0 0 0 0 0 0
          0 0 0 0 0 0 0 0 0 0 0 0
          0 0 0 0 0 0 0 0 0 0 0 0
          0 0 0 0 0 0 0 0 0 0 0 0
          0 0 0 0 0 0 0 0 0 0 0 0
          0 0 0 0 0 0 0 0 0 0 0 0
          0 0 0 0
        </DataArray>
      </CellData>
      <Points>
        <DataArray type="Float32" Name="Coordinates" NumberOfComponents="3" format="ascii">
          0 0 0 0.005 0 0 0 0.005 0 0.005 0.005 0
          0.01 0 0 0.01 0.005 0 0.015 0 0 0.015 0.005 0
          0.02 0 0 0.02 0.005 0 0.025 0 0 0.025 0.005 0
          0.03 0 0 0.03 0.005 0 0.035 0 0 0.035 0.005 0
          0.04 0 0 0.04 0.005 0 0.045 0 0 0.045 0.005 0
          0.05 0 0 0.05 0.005 0 0.055 0 0 0.055 0.005 0
          0.06 0 0 0.06 0.005 0 0.065 0 0 0.065 0.005 0
          0.07 0 0 0.07 0.005 0 0.075 0 0 0.075 0.005 0
          0.08 0 0 0.08 0.005 0 0.085 0 0 0.085 0.005 0
          0.09 0 0 0.09 0.005 0 0.095 0 0 0.095 0.005 0
          0.1 0 0 0.1 0.005 0 0 0.01 0 0.005 0.01 0
          0.01 0.01 0 0.015 0.01 0 0.02 0.01 0 0.025 0.01 0
          0.03 0.01 0 0.035 0.01 0 0.04 0.01 0 0.045 0.01 0
          0.05 0.01 0 0.055 0.01 0 0.06 0.01 0 0.065 0.01 0
          0.07 0.01 0 0.075 0.01 0 0.08 0.01 0 0.085 0.01 0
          0.09 0.01 0 0.095 0.01 0 0.1 0.01 0 0 0.015 0
          0.005 0.015 0 0.01 0.015 0 0.015 0.015 0 0.02 0.015 0
          0.025 0.015 0 0.03 0.015 0 0.035 0.015 0 0.04 0.015 0
          0.045 0.015 0 0.05 0.015 0 0.055 0.015 0 0.06 0.015 0
          0.065 0.015 0 0.07 0.015 0 0.075 0.015 0 0.08 0.015 0
          0.085 0.015 0 0.09 0.015 0 0.095 0.015 0 0.1 0.015 0
          0 0.02 0 0.005 0.02 0 0.01 0.02 0 0.015 0.02 0
          0.02 0.02 0 0.025 0.02 0 0.03 0.02 0 0.035 0.02 0
          0.04 0.02 0 0.045 0.02 0 0.05 0.02 0 0.055 0.02 0
          0.06 0.02 0 0.065 0.02 0 0.07 0.02 0 0.075 0.02 0
          0.08 0.02 0 0.085 0.02 0 0.09 0.02 0 0.095 0.02 0
          0.1 0.02 0 0 0.025 0 0.005 0.025 0 0.01 0.025 0
          0.015 0.025 0 0.02 0.025 0 0.025 0.025 0 0.03 0.025 0
          0.035 0.025 0 0.04 0.025 0 0.045 0.025 0 0.05 0.025 0
          0.055 0.025 0 0.06 0.025 0 0.065 0.025 0 0.07 0.025 0
          0.075 0.025 0 0.08 0.025 0 0.085 0.025 0 0.09 0.025 0
          0.095 0.025 0 0.1 0.025 0 0 0.03 0 0.005 0.03 0
          0.01 0.03 0 0.015 0.03 0 0.02 0.03 0 0.025 0.03 0
          0.03 0.03 0 0.035 0.03 0 0.04 0.03 0 0.045 0.03 0
          0.05 0.03 0 0.055 0.03 0 0.06 0.03 0 0.065 0.03 0
          0.07 0.03 0 0.075 0.03 0 0.08 0.03 0 0.085 0.03 0
          0.09 0.03 0 0.095 0.03 0 0.1 0.03 0 0 0.035 0
          0.005 0.035 0 0.01 0.035 0 0.015 0.035 0 0.02 0.035 0
          0.025 0.035 0 0.03 0.035 0 0.035 0.035 0 0.04 0.035 0
          0.045 0.035 0 0.05 0.035 0 0.055 0.035 0 0.06 0.035 0
          0.065 0.035 0 0.07 0.035 0 0.075 0.035 0 0.08 0.035 0
          0.085 0.035 0 0.09 0.035 0 0.095 0.035 0 0.1 0.035 0
          0 0.04 0 0.005 0.04 0 0.01 0.04 0 0.015 0.04 0
          0.02 0.04 0 0.025 0.04 0 0.03 0.04 0 0.035 0.04 0
          0.04 0.04 0 0.045 0.04 0 0.05 0.04 0 0.055 0.04 0
          0.06 0.04 0 0.065 0.04 0 0.07 0.04 0 0.075 0.04 0
          0.08 0.04 0 0.085 0.04 0 0.09 0.04 0 0.095 0.04 0
          0.1 0.04 0 0 0.045 0 0.005 0.045 0 0.01 0.045 0
          0.015 0.045 0 0.02 0.045 0 0.025 0.045 0 0.03 0.045 0
          0.035 0.045 0 0.04 0.045 0 0.045 0.045 0 0.05 0.045 0
          0.055 0.045 0 0.06 0.045 0 0.065 0.045 0 0.07 0.045 0
          0.075 0.045 0 0.08 0.045 0 0.085 0.045 0 0.09 0.045 0
          0.095 0.045 0 0.1 0.045 0 0 0.05 0 0.005 0.05 0
          0.01 0.05 0 0.015 0.05 0 0.02 0.05 0 0.025 0.05 0
          0.03 0.05 0 0.035 0.05 0 0.04 0.05 0 0.045 0.05 0
          0.05 0.05 0 0.055 0.05 0 0.06 0.05 0 0.065 0.05 0
          0.07 0.05 0 0.075 0.05 0 0.08 0.05 0 0.085 0.05 0
          0.09 0.05 0 0.095 0.05 0 0.1 0.05 0 0 0.055 0
          0.005 0.055 0 0.01 0.055 0 0.015 0.055 0 0.02 0.055 0
          0.025 0.055 0 0.03 0.055 0 0.035 0.055 0 0.04 0.055 0
          0.045 0.055 0 0.05 0.055 0 0.055 0.055 0 0.06 0.055 0
          0.065 0.055 0 0.07 0.055 0 0.075 0.055 0 0.08 0.055 0
          0.085 0.055 0 0.09 0.055 0 0.095 0.055 0 0.1 0.055 0
          0 0.06 0 0.005 0.06 0 0.01 0.06 0 0.015 0.06 0
          0.02 0.06 0 0.025 0.06 0 0.03 0.06 0 0.035 0.06 0
          0.04 0.06 0 0.045 0.06 0 0.05 0.06 0 0.055 0.06 0
          0.06 0.06 0 0.065 0.06 0 0.07 0.06 0 0.075 0.06 0
          0.08 0.06 0 0.085 0.06 0 0.09 0.06 0 0.095 0.06 0
          0.1 0.06 0 0 0.065 0 0.005 0.065 0 0.01 0.065 0
          0.015 0.065 0 0.02 0.065 0 0.025 0.065 0 0.03 0.065 0
          0.035 0.065 0 0.04 0.065 0 0.045 0.065 0 0.05 0.065 0
          0.055 0.065 0 0.06 0.065 0 0.065 0.065 0 0.07 0.065 0
          0.075 0.065 0 0.08 0.065 0 0.085 0.065 0 0.09 0.065 0
          0.095 0.065 0 0.1 0.065 0 0 0.07 0 0.005 0.07 0
          0.01 0.07 0 0.015 0.07 0 0.02 0.07 0 0.025 0.07 0
          0.03 0.07 0 0.035 0.07 0 0.04 0.07 0 0.045 0.07 0
          0.05 0.07 0 0.055 0.07 0 0.06 0.07 0 0.065 0.07 0
          0.07 0.07 0 0.075 0.07 0 0.08 0.07 0 0.085 0.07 0
          0.09 0.07 0 0.095 0.07 0 0.1 0.07 0 0 0.075 0
          0.005 0.075 0 0.01 0.075 0 0.015 0.075 0 0.02 0.075 0
          0.025 0.075 0 0.03 0.075 0 0.035 0.075 0 0.04 0.075 0
          0.045 0.075 0 0.05 0.075 0 0.055 0.075 0 0.06 0.075 0
          0.065 0.075 0 0.07 0.075 0 0.075 0.075 0 0.08 0.075 0
          0.085 0.075 0 0.09 0.075 0 0.095 0.075 0 0.1 0.075 0
          0 0.08 0 0.005 0.08 0 0.01 0.08 0 0.015 0.08 0
          0.02 0.08 0 0.025 0.08 0 0.03 0.08 0 0.035 0.08 0
          0.04 0.08 0 0.045 0.08 0 0.05 0.08 0 0.055 0.08 0
          0.06 0.08 0 0.065 0.08 0 0.07 0.08 0 0.075 0.08 0
          0.08 0.08 0 0.085 0.08 0 0.09 0.08 0 0.095 0.08 0
          0.1 0.08 0 0 0.085 0 0.005 0.085 0 0.01 0.085 0
          0.015 0.085 0 0.02 0.085 0 0.025 0.085 0 0.03 0.085 0
          0.035 0.085 0 0.04 0.085 0 0.045 0.085 0 0.05 0.085 0
          0.055 0.085 0 0.06 0.085 0 0.065 0.085 0 0.07 0.085 0
          0.075 0.085 0 0.08 0.085 0 0.085 0.085 0 0.09 0.085 0
          0.095 0.085 0 0.1 0.085 0 0 0.09 0 0.005 0.09 0
          0.01 0.09 0 0.015 0.09 0 0.02 0.09 0 0.025 0.09 0
          0.03 0.09 0 0.035 0.09 0 0.04 0.09 0 0.045 0.09 0
          0.05 0.09 0 0.055 0.09 0 0.06 0.09 0 0.065 0.09 0
          0.07 0.09 0 0.075 0.09 0 0.08 0.09 0 0.085 0.09 0
          0.09 0.09 0 0.095 0.09 0 0.1 0.09 0 0 0.095 0
          0.005 0.095 0 0.01 0.095 0 0.015 0.095 0 0.02 0.095 0
          0.025 0.095 0 0.03 0.095 0 0.035 0.095 0 0.04 0.095 0
          0.045 0.095 0 0.05 0.095 0 0.055 0.095 0 0.06 0.095 0
          0.065 0.095 0 0.07 0.095 0 0.075 0.095 0 0.08 0.095 0
          0.085 0.095 0 0.09 0.095 0 0.095 0.095 0 0.1 0.095 0
          0 0.1 0 0.005 0.1 0 0.01 0.1 0 0.015 0.1 0
          0.02 0.1 0 0.025 0.1 0 0.03 0.1 0 0.035 0.1 0
          0.04 0.1 0 0.045 0.1 0 0.05 0.1 0 0.055 0.1 0
          0.06 0.1 0 0.065 0.1 0 0.07 0.1 0 0.075 0.1 0
          0.08 0.1 0 0.085 0.1 0 0.09 0.1 0 0.095 0.1 0
          0.1 0.1 0
        </DataArray>
      </Points>
      <Cells>
        <DataArray type="Int32" Name="connectivity" NumberOfComponents="1" format="ascii">
          0 1 3 2 1 4 5 3 4 6 7 5
          6 8 9 7 8 10 11 9 10 12 13 11
          12 14 15 13 14 16 17 15 16 18 19 17
          18 20 21 19 20 22 23 21 22 24 25 23
          24 26 27 25 26 28 29 27 28 30 31 29
          30 32 33 31 32 34 35 33 34 36 37 35
          36 38 39 37 38 40 41 39 2 3 43 42
          3 5 44 43 5 7 45 44 7 9 46 45
          9 11 47 46 11 13 48 47 13 15 49 48
          15 17 50 49 17 19 51 50 19 21 52 51
          21 23 53 52 23 25 54 53 25 27 55 54
          27 29 56 55 29 31 57 56 31 33 58 57
          33 35 59 58 35 37 60 59 37 39 61 60
          39 41 62 61 42 43 64 63 43 44 65 64
          44 45 66 65 45 46 67 66 46 47 68 67
          47 48 69 68 48 49 70 69 49 50 71 70
          50 51 72 71 51 52 73 72 52 53 74 73
          53 54 75 74 54 55 76 75 55 56 77 76
          56 57 78 77 57 58 79 78 58 59 80 79
          59 60 81 80 60 61 82 81 61 62 83 82
          63 64 85 84 64 65 86 85 65 66 87 86
          66 67 88 87 67 68 89 88 68 69 90 89
          69 70 91 90 70 71 92 91 71 72 93 92
          72 73 94 93 73 74 95 94 74 75 96 95
          75 76 97 96 76 77 98 97 77 78 99 98
          78 79 100 99 79 80 101 100 80 81 102 101
          81 82 103 102 82 83 104 103 84 85 106 105
          85 86 107 106 86 87 108 107 87 88 109 108
          88 89 110 109 89 90 111 110 90 91 112 111
          91 92 113 112 92 93 114 113 93 94 115 114
          94 95 116 115 95 96 117 116 96 97 118 117
          97 98 119 118 98 99 120 119 99 100 121 120
          100 101 122 121 101 102 123 122 102 103 124 123
          103 104 125 124 105 106 127 126 106 107 128 127
          107 108 129 128 108 109 130 129 109 110 131 130
          110 111 132 131 111 112 133 132 112 113 134 133
          113 114 135 134 114 115 136 135 115 116 137 136
          116 117 138 137 117 118 139 138 118 119 140 139
          119 120 141 140 120 121 142 141 121 122 143 142
          122 123 144 143 123 124 145 144 124 125 146 145
          126 127 148 147 127 128 149 148 128 129 150 149
          129 130 151 150 130 131 152 151 131 132 153 152
          132 133 154 153 133 134 155 154 134 135 156 155
          135 136 157 156 136 137 158 157 137 138 159 158
          138 139 160 159 139 140 161 160 140 141 162 161
          141 142 163 162 142 143 164 163 143 144 165 164
          144 145 166 165 145 146 167 166 147 148 169 168
          148 149 170 169 149 150 171 170 150 151 172 171
          151 152 173 172 152 153 174 173 153 154 175 174
          154 155 176 175 155 156 177 176 156 157 178 177
          157 158 179 178 158 159 180 179 159 160 181 180
          160 161 182 181 161 162 183 182 162 163 184 183
          163 164 185 184 164 165 186 185 165 166 187 186
          166 167 188 187 168 169 190 189 169 170 191 190
          170 171 192 191 171 172 193 192 172 173 194 193
          173 174 195 194 174 175 196 195 175 176 197 196
          176 177 198 197 177 178 199 198 178 179 200 199
          179 180 201 200 180 181 202 201 181 182 203 202
          182 183 204 203 183 184 205 204 184 185 206 205
          185 186 207 206 186 187 208 207 187 188 209 208
          189 190 211 210 190 191 212 211 191 192 213 212
          192 193 214 213 193 194 215 214 194 195 216 215
          195 196 217 216 196 197 218 217 197 198 219 218
          198 199 220 219 199 200 221 220 200 201 222 221
          201 202 223 222 202 203 224 223 203 204 225 224
          204 205 226 225 205 206 227 226 206 207 228 227
          207 208 229 228 208 209 230 229 210 211 232 231
          211 212 233 232 212 213 234 233 213 214 235 234
          214 215 236 235 215 216 237 236 216 217 238 237
          217 218 239 238 218 219 240 239 219 220 241 240
          220 221 242 241 221 222 243 242 222 223 244 243
          223 224 245 244 224 225 246 245 225 226 247 246
          226 227 248 247 227 228 249 248 228 229 250 249
          229 230 251 250 231 232 253 252 232 233 254 253
          233 234 255 254 234 235 256 255 235 236 257 256
          236 237 258 257 237 238 259 258 238 239 260 259
          239 240 261 260 240 241 262 261 241 242 263 262
          242 243 264 263 243 244 265 264 244 245 266 265
          245 246 267 266 246 247 268 267 247 248 269 268
          248 249 270 269 249 250 271 270 250 251 272 271
          252 253 274 273 253 254 275 274 254 255 276 275
          255 256 277 276 256 257 278 277 257 258 279 278
          258 259 280 279 259 260 281 280 260 261 282 281
          261 262 283 282 262 263 284 283 263 264 285 284
          264 265 286 285 265 266 287 286 266 267 288 287
          267 268 289 288 268 269 290 289 269 270 291 290
          270 271 292 291 271 272 293 292 273 274 295 294
          274 275 296 295 275 276 297 296 276 277 298 297
          277 278 299 298 278 279 300 299 279 280 301 300
          280 281 302 301 281 282 303 302 282 283 304 303
          283 284 305 304 284 285 306 305 285 286 307 306
          286 287 308 307 287 288 309 308 288 289 310 309
          289 290 311 310 290 291 312 311 291 292 313 312
          292 293 314 313 294 295 316 315 295 296 317 316
          296 297 318 317 297 298 319 318 298 299 320 319
          299 300 321 320 300 301 322 321 301 302 323 322
          302 303 324 323 303 304 325 324 304 305 326 325
          305 306 327 326 306 307 328 327 307 308 329 328
          308 309 330 329 309 310 331 330 310 311 332 331
          311 312 333 332 312 313 334 333 313 314 335 334
          315 316 337 336 316 317 338 337 317 318 339 338
          318 319 340 339 319 320 341 340 320 321 342 341
          321 322 343 342 322 323 344 343 323 324 345 344
          324 325 346 345 325 326 347 346 326 327 348 347
          327 328 349 348 328 329 350 349 329 330 351 350
          330 331 352 351 331 332 353 352 332 333 354 353
          333 334 355 354 334 335 356 355 336 337 358 357
          337 338 359 358 338 339 360 359 339 340 361 360
          340 341 362 361 341 342 363 362 342 343 364 363
          343 344 365 364 344 345 366 365 345 346 367 366
          346 347 368 367 347 348 369 368 348 349 370 369
          349 350 371 370 350 351 372 371 351 352 373 372
          352 353 374 373 353 354 375 374 354 355 376 375
          355 356 377 376 357 358 379 378 358 359 380 379
          359 360 381 380 360 361 382 381 361 362 383 382
          362 363 384 383 363 364 385 384 364 365 386 385
          365 366 387 386 366 367 388 387 367 368 389 388
          368 369 390 389 369 370 391 390 370 371 392 391
          371 372 393 392 372 373 394 393 373 374 395 394
          374 375 396 395 375 376 397 396 376 377 398 397
          378 379 400 399 379 380 401 400 380 381 402 401
          381 382 403 402 382 383 404 403 383 384 405 404
          384 385 406 405 385 386 407 406 386 387 408 407
          387 388 409 408 388 389 410 409 389 390 411 410
          390 391 412 411 391 392 413 412 392 393 414 413
          393 394 415 414 394 395 416 415 395 396 417 416
          396 397 418 417 397 398 419 418 399 400 421 420
          400 401 422 421 401 402 423 422 402 403 424 423
          403 404 425 424 404 405 426 425 405 406 427 426
          406 407 428 427 407 408 429 428 408 409 430 429
          409 410 431 430 410 411 432 431 411 412 433 432
          412 413 434 433 413 414 435 434 414 415 436 435
          415 416 437 436 416 417 438 437 417 418 439 438
          418 419 440 439
        </DataArray>
        <DataArray type="Int32" Name="offsets" NumberOfComponents="1" format="ascii">
          4 8 12 16 20 24 28 32 36 40 44 48
          52 56 60 64 68 72 76 80 84 88 92 96
          100 104 108 112 116 120 124 128 132 136 140 144
          148 152 156 160 164 168 172 176 180 184 188 192
          196 200 204 208 212 216 220 224 228 232 236 240
          244 248 252 256 260 264 268 272 276 280 284 288
          292 296 300 304 308 312 316 320 324 328 332 336
          340 344 348 352 356 360 364 368 372 376 380 384
          388 392 396 400 404 408 412 416 420 424 428 432
          436 440 444 448 452 456 460 464 468 472 476 480
          484 488 492 496 500 504 508 512 516 520 524 528
          532 536 540 544 548 552 556 560 564 568 572 576
          580 584 588 592 596 600 604 608 612 616 620 624
          628 632 636 640 644 648 652 656 660 664 668 672
          676 680 684 688 692 696 700 704 708 712 716 720
          724 728 732 736 740 744 748 752 756 760 764 768
          772 776 780 784 788 792 796 800 804 808 812 816
          820 824 828 832 836 840 844 848 852 856 860 864
          868 872 876 880 884 888 892 896 900 904 908 912
          916 920 924 928 932 936 940 944 948 952 956 960
          964 968 972 976 980 984 988 992 996 1000 1004 1008
          1012 1016 1020 1024 1028 1032 1036 1040 1044 1048 1052 1056
          1060 1064 1068 1072 1076 1080 1084 1088 1092 1096 1100 1104
          1108 1112 1116 1120 1124 1128 1132 1136 1140 1144 1148 1152
          1156 1160 1164 1168 1172 1176 1180 1184 1188 1192 1196 1200
          1204 1208 1212 1216 1220 1224 1228 1232 1236 1240 1244 1248
          1252 1256 1260 1264 1268 1272 1276 1280 1284 1288 1292 1296
          1300 1304 1308 1312 1316 1320 1324 1328 1332 1336 1340 1344
          1348 1352 1356 1360 1364 1368 1372 1376 1380 1384 1388 1392
          1396 1400 1404 1408 1412 1416 1420 1424 1428 1432 1436 1440
          1444 1448 1452 1456 1460 1464 1468 1472 1476 1480 1484 1488
          1492 1496 1500 1504 1508 1512 1516 1520 1524 1528 1532 1536
          1540 1544 1548 1552 1556 1560 1564 1568 1572 1576 1580 1584
          1588 1592 1596 1600
        </DataArray>
        <DataArray type="UInt8" Name="types" NumberOfComponents="1" format="ascii">
          9 9 9 9 9 9 9 9 9 9 9 9
          9 9 9 9 9 9 9 9 9 9 9 9
          9 9 9 9 9 9 9 9 9 9 9 9
          9 9 9 9 9 9 9 9 9 9 9 9
          9 9 9 9 9 9 9 9 9 9 9 9
          9 9 9 9 9 9 9 9 9 9 9 9
          9 9 9 9 9 9 9 9 9 9 9 9
          9 9 9 9 9 9 9 9 9 9 9 9
          9 9 9 9 9 9 9 9 9 9 9 9
          9 9 9 9 9 9 9 9 9 9 9 9
          9 9 9 9 9 9 9 9 9 9 9 9
          9 9 9 9 9 9 9 9 9 9 9 9
          9 9 9 9 9 9 9 9 9 9 9 9
          9 9 9 9 9 9 9 9 9 9 9 9
          9 9 9 9 9 9 9 9 9 9 9 9
          9 9 9 9 9 9 9 9 9 9 9 9
          9 9 9 9 9 9 9 9 9 9 9 9
          9 9 9 9 9 9 9 9 9 9 9 9
          9 9 9 9 9 9 9 9 9 9 9 9
          9 9 9 9 9 9 9 9 9 9 9 9
          9 9 9 9 9 9 9 9 9 9 9 9
          9 9 9 9 9 9 9 9 9 9 9 9
          9 9 9 9 9 9 9 9 9 9 9 9
          9 9 9 9 9 9 9 9 9 9 9 9
          9 9 9 9 9 9 9 9 9 9 9 9
          9 9 9 9 9 9 9 9 9 9 9 9
          9 9 9 9 9 9 9 9 9 9 9 9
          9 9 9 9 9 9 9 9 9 9 9 9
          9 9 9 9 9 9 9 9 9 9 9 9
          9 9 9 9 9 9 9 9 9 9 9 9
          9 9 9 9 9 9 9 9 9 9 9 9
          9 9 9 9 9 9 9 9 9 9 9 9
          9 9 9 9 9 9 9 9 9 9 9 9
          9 9 9 9
        </DataArray>
      </Cells>
    </Piece>
  </UnstructuredGrid>
</VTKFile>
