<?xml version="1.0"?>
<VTKFile type="UnstructuredGrid" version="0.1" byte_order="LittleEndian">
  <UnstructuredGrid>
    <Piece NumberOfCells="494" NumberOfPoints="162">
      <PointData Vectors="d">
        <DataArray type="Float64" Name="d" NumberOfComponents="3" format="ascii">
          -3.77277289286892 -3.74973884963622 0 -3.94238398442075 -3.93303547277429 0 -3.74300349686116 -3.78651788338921 0.185650442376483 -3.80217615000452 -3.73796217925716 0.178711108062758
          -3.92567478981079 -3.9935261799553 0 -3.60601907223987 -4.15488542816376 -0.109829320667923 -4.00113380435175 -3.9131175122818 0 -4.46326007745944 -3.73388789568002 0
          -3.82796345080952 -3.81444683238161 -0.395893589357039 -3.51639691498949 -3.50467762756235 0.611618883642593 -3.38304598428043 -3.36859544491586 0.312330570759399 -3.68507458541792 -4.54912440041247 0
          -3.39669890068217 -4.74078850246456 0 -2.72439712473874 -4.92003361885347 -0.52970158552898 -4.19413517872091 -3.54478753160683 -0.164243854774531 -4.73240577916928 -3.39215710049178 0
          -5.06235052567284 -2.6975356254328 -0.412461089113737 -5.47928516589022 -2.405341809448 -1.66189058008203 -4.23091441772185 -4.24211529438488 -1.97146397962679 -4.29131729016853 -4.30054556218677 0
          -1.90221003799972 -5.86597515699665 -1.51326243185381 -3.33742831256564 -3.35477095140685 0.323429649229241 -2.71364718878663 -2.73810641909278 1.22031057739606 -2.34040061316827 -2.31959092421448 0.558857511608642
          -3.19483484763573 -3.21759766682892 -1.01103461218357 -2.75468284058307 -3.49145590349139 -0.327824472317196 -1.99424802595792 -5.05821628105256 -2.65627916050498 -3.41243713856876 -2.79807945644722 -0.238067731038311
          -4.47454837895053 -2.72152321497197 -0.593668035739891 -3.9215148859578 -3.94004708534054 -3.71823480219878 -3.63792639415512 -2.28195249653441 -2.35857896606654 -2.85153935572889 -5.4816292460835 0
          -2.00751151353893 -5.52065535392827 0 -1.2855864334676 -6.15791031088266 0 -1.32580973045602 -5.60773173128087 -0.574457517311544 0 -5.84992412368442 0
          0 -6.23133681397022 -0.735741407389926 0 -6.37964772084765 0 0 -6.33439086258403 -1.36009344133128 0 -5.6431248032887 -0.827473543294092
          0 -6.0482470610475 -2.19829442273351 -1.30228310762353 -6.13501102260061 0 -3.11987824673911 -5.1085277034644 -1.74861506605032 -2.56085275337287 -5.34313996560465 0
          0 -5.80050067128013 0 -1.54281074534585 -5.66049267653302 -1.7847127967109 -2.21028281866849 -5.5053863541113 -4.282691377623 0 -5.8740105492991 -3.1687246908403
          -1.36369635631102 -5.11818458167732 -1.03335293439093 -2.00991627306322 -4.22228430956768 -0.911013916687187 -0.969388973694089 -3.8047164469458 -1.26796790810714 0 -4.78474778730921 -1.31577510334757
          0 -5.86325063652996 -6.08236270878356 -5.47146167095231 -2.85475543566544 0 -5.51485796964127 -2.01764699735884 0 -6.14914251044945 -1.28772853789268 0
          -5.56346191707261 -1.45832343494844 -0.581882208604857 -5.09393798227981 -3.12633534068109 -1.75315643115905 -6.12002161913208 -1.30363066764259 0 -5.32793226381366 -2.56599249975661 0
          -5.48586326964324 -2.19610524165983 -4.26446716072536 -5.65126849060128 -1.5491128456782 -1.79938708739964 -5.83896866873186 0 0 -6.22080087062319 0 -0.729754247886568
          -6.3698257288534 0 0 -6.33228956812869 0 -1.35582372917395 -5.62984693206516 0 -0.828480549144429 -6.03888624967012 0 -2.20749583987694
          -5.79236740954028 0 0 -5.85753811002199 0 -3.1757896016131 -5.03629272239645 -1.60059013390301 -0.998581691295349 -3.5241842804558 -1.93852428553739 -0.842581682689362
          -3.64803129109889 -0.968239568854356 -1.27852281432481 -4.91251997648348 -2.44434499976738 -6.41137996604301 -5.04200764325612 0 -3.89501975897182 -4.76293387519854 0 -1.32668724616566
          -5.84258343893585 0 -6.06859184185374 -3.74390297818295 -3.75567104878601 0 -1.76565077840404 -4.66108391271913 0 -3.26898743386208 -3.28046914682116 -4.12227224418204
          0 -4.81560583480143 -2.37124903236678 -2.49888412730012 -2.50845482551692 0 0 -3.6457772180794 0 0 -2.83169668509821 -3.27501528094629
          0 -4.30587348860306 -6.8099432636834 -4.8137109197195 -1.55712245722755 0 -4.80705995680919 0 -2.38587420205546 -3.63690364468547 0 0
          -2.82626002999414 0 -3.26934001726493 -4.30047614972695 0 -6.82775208270826 0 0 0 0 0 -5.37088090353243
          -2.47531940801478 -4.90904130118924 -6.34974457688552 0 -3.54123794509817 -12.5370870025807 -3.08756807176013 -3.08030000218503 -13.0046200834864 0 0 -10.9903658617794
          -2.30522270650612 -2.35654710072551 0.518717206545343 -1.43203752372016 -1.44304229667708 1.63647069496248 -1.11740324293034 -1.16492428669814 0.685491745667981 -1.15616457602329 -1.13163119084334 0.697157125555427
          -1.3607816149551 -1.56389049645659 -0.0786873452702552 -1.75608141203201 -1.78711963598 -1.0444400869286 -2.03660019592617 -3.20534754823614 -2.17965858105477 -1.21586643287869 -2.38378428352302 -0.913376632569663
          -1.69930414670741 -1.43506579782825 -0.190474901756222 -2.90957656301943 -2.93343167141379 -5.16753718816998 0 0 1.53682978489156 0 0 -0.568234473088942
          0 0 0.229225184129072 0 0 0.229556904795851 0 0 -2.00719917374416 0 0 -0.840210520143706
          0 0 -2.05465994220741 -1.92301873383377 -0.933175183034936 -1.03678202678172 0 0 -0.862757548976874 0 0 -7.08304769777403
          -0.487314303467722 -1.98850301685974 -1.44146203487479 -0.952797102717517 -3.45692971392236 -3.62152907059009 0 -5.06977184491251 -3.95755751706664 0 -2.7811789035747 -1.49695977210422
          0 -2.3432705985681 -3.49592112986188 -1.64485325379214 -2.8665579340465 -7.54563999210391 0 -4.82612419048137 -8.38833554802974 0 -2.73396335668619 -5.92298561636331
          -0.901819993507429 -3.74050216510511 -8.64233806651493 0 0 -3.57092118710169 0 0 -1.61907247952129 0 0 -1.93753136436347
          0 0 -3.38139785901344 0 0 -5.83359299005221 0 0 -4.99765080494589 0 0 -10.9616569243053
          0 0 -11.9214541380435 -3.44831494098737 -0.963492412193855 -3.64115397485905 -2.9807243193284 -1.66938803652983 -7.57609587890206 -2.77969064932813 0 -1.49653655683432
          -2.35290876908668 0 -3.48589308280123 -4.82396876656846 0 -8.39105900580309 -3.74407576872144 -0.881197460487496 -8.66632576271508 -2.72899426267081 0 -5.84583228945659
          0 0 -4.33584130427372 0 0 -1.61383221783302 0 0 -3.81050800925971 0 0 -6.66962801436574
          0 0 -11.0327846970176 -1.98416188399362 -0.472315747177572 -1.43463786394479 0 0 -1.9379731756349 0 0 -5.0030785217659
          0 0 -11.9045337863984 0 -3.7002970772473 -14.5127344603906 -3.62156869093772 0 -12.4087506657094 -3.71029514944559 0 -14.4776944597323
          0 -1.64729749897787 -17.8483136847789 0 0 -16.5960781186227 -1.71402127929131 0 -17.742342758542 0 0 -15.4184464590559
          0 0 -16.0954837287931 0 0 -18.7831273529325 0 0 -18.2250235177892 0 0 -15.8401855036626
          0 0 -18.2229282217772 0 0 -20.0175090720214
        </DataArray>
      </PointData>
      <Points>
        <DataArray type="Float64" Name="Coordinates" NumberOfComponents="3" format="ascii">
          0 0 0 9.15063509461097 9.15063509461097 0 0 9.15063509461097 9.15063509461097 9.15063509461097 0 9.15063509461097
          12.5 0 0 18.564805308746 0 10.8399503473798 0 12.5 0 10.8253175473055 18.75 0
          12.2611867289557 12.2611867289557 12.2611867289557 0 0 12.5 10.5521160909797 0 18.7666870847195 19.7634562135346 10.7741715197112 0
          25 0 0 30.7300186668325 0 12.7243498955327 0 19.7118428708023 11.5229856756278 0 25 0
          0 31.5603168700022 9.07522534482113 12.6686100020872 33.3564250522491 15.05969956912 25 25 12.5 25 25 0
          37.4774400713674 12.4610621137055 12.5541055144457 0 10.5462038051897 19.2334391824352 0 0 25 9.8960502362793 0 31.0783588395034
          13.8750892086513 13.6062279360367 25.1170782141643 21.5404515707433 0 25.2825136349831 34.2738435586247 12.8899096766954 25.1205761529295 0 20.2379423227292 25.1534131888759
          0 28.403303335049 18.8684423535874 25 25 25 12.8113217932809 25.6567313332827 31.4154984853225 31.25 14.1746824526945 0
          37.5 0 0 41.7818541730122 9.17102853954144 0 41.7587453001055 0 8.90030975083847 50 0 0
          50 7.22477581008567 7.24765167154513 50 12.5 0 50 15.8289714604586 8.21814582698781 50 0 12.5
          50 10.8253175473055 18.75 42.7523483284549 17.7752241899143 0 34.1710285395414 25 8.21814582698781 37.5 25 0
          50 25 0 42.7752241899143 25 7.24765167154513 39.1746824526945 25 18.75 50 25 12.5
          40.5637078336949 0 19.2771988586596 32.787269244575 0 25.1793170420662 40.4025480729979 0 31.218447697824 50 0 25
          50 25 25 14.1746824526945 31.25 0 0 37.5 0 9.17102853954144 41.7818541730122 0
          0 40.9246033637076 9.07539663629243 25 34.1710285395414 8.21814582698781 17.7752241899143 42.7523483284549 0 25 37.5 0
          25 39.1746824526945 18.75 25 42.7752241899143 7.24765167154513 0 50 0 7.22477581008567 50 7.24765167154513
          12.5 50 0 15.8289714604586 50 8.21814582698781 0 50 12.5 10.8253175473055 50 18.75
          25 50 0 25 50 12.5 0 38.7147612836296 19.1454131055742 0 30.002022252007 29.6820591602128
          0 40.267773295031 32.0488348685641 25 36.2210317125748 31.25 13.7789682874252 50 31.25 0 50 25
          25 50 25 34.375 34.375 0 42.96875 32.03125 0 37.8662109375 37.8662109375 12.1175508646362
          50 32.2247758100857 7.24765167154513 41.357421875 41.357421875 0 50 37.5 0 50 40.8289714604586 8.21814582698781
          50 35.8253175473055 18.75 31.25 43.75 0 32.2247758100857 50 7.24765167154513 37.5 50 0
          40.8289714604586 50 8.21814582698781 35.8253175473055 50 18.75 50 50 0 50 50 12.5
          35.8253175473055 25 31.25 50 39.1746824526945 31.25 37.8535787178004 37.8788431571996 37.5614318865174 50 50 25
          0 10.5676975905232 31.2263962940009 0 0 37.5 0 9.15063509461097 40.849364905389 9.15063509461097 0 40.849364905389
          18.2046606441616 0 39.3384391611356 12.3561847156931 12.1442180040711 37.8557819959289 24.5564999672012 11.7652831315038 33.6453385435586 30.699620078606 0 37.3940751233317
          0 19.6514569581538 38.8235782365804 25 25 37.5 0 0 50 9.15063509461097 9.15063509461097 50
          12.5 0 50 0 12.5 50 10.8253175473055 18.75 50 25 0 50
          19.3629763209582 10.4714155033934 50 0 32.0404913291601 40.1161720402084 0 25 50 25 25 50
          40.849364905389 0 40.849364905389 37.7332995153615 12.6351696488295 37.6237916256875 50 14.1746824526945 31.25 50 0 37.5
          50 9.17102853954144 41.7818541730122 32.2247758100857 25 42.7523483284549 50 25 37.5 50 17.7752241899143 42.7523483284549
          40.8289714604586 25 41.7818541730122 31.25 10.8253175473055 50 37.5 0 50 50 0 50
          42.7523483284549 7.22477581008567 50 41.7818541730122 15.8289714604586 50 50 12.5 50 37.5 25 50
          50 25 50 12.6457874913929 37.7553948231082 37.7092470748389 25 32.4317788461884 42.5872694809116 0 50 37.5
          9.08486529211737 50 41.8005071851226 25 50 37.5 25 40.9151347078826 41.8005071851226 17.5682211538115 50 42.5872694809116
          14.1746824526945 31.25 50 0 37.5 50 9.17102853954144 41.7818541730122 50 17.7752241899143 42.7523483284549 50
          25 37.5 50 0 40.849364905389 40.849364905389 0 50 50 12.5 50 50
          25 50 50 50 34.1710285395414 41.7818541730122 38.7789682874252 50 31.25 34.0848652921174 50 41.8005071851226
          50 42.7752241899143 42.7523483284549 50 50 37.5 42.5682211538116 50 42.5872694809116 34.375 34.375 50
          42.96875 32.03125 50 41.357421875 41.357421875 50 50 37.5 50 31.25 43.75 50
          37.5 50 50 50 50 50
        </DataArray>
      </Points>
      <Cells>
        <DataArray type="Int32" Name="connectivity" NumberOfComponents="1" format="ascii">
          0 1 2 3 0 1 3 4 4 1 3 5
          2 1 0 6 2 1 6 7 1 7 2 8
          2 9 0 3 3 2 9 10 1 3 5 8
          10 3 2 8 1 2 3 8 5 4 1 11
          12 4 5 11 11 5 12 13 11 1 5 8
          5 13 11 8 6 14 2 7 7 6 14 15
          14 7 15 16 14 2 7 8 14 7 17 8
          11 7 1 8 7 11 18 8 11 19 7 18
          11 20 18 8 18 17 7 8 10 2 9 21
          21 10 2 8 9 22 10 21 21 22 10 23
          23 10 21 24 21 24 10 8 10 5 3 8
          25 5 10 8 25 13 5 8 25 10 24 8
          25 26 13 8 25 24 26 8 14 21 2 8
          21 14 27 8 14 17 28 8 14 28 27 8
          28 17 24 8 21 27 24 8 28 24 27 8
          18 26 24 8 24 17 18 8 29 17 24 30
          18 24 29 17 18 29 24 26 31 11 12 13
          32 31 12 13 32 33 31 20 32 13 34 20
          31 11 13 20 13 20 11 8 13 32 31 20
          35 32 34 33 32 34 33 20 36 35 34 33
          36 37 35 33 36 38 37 33 34 39 35 36
          40 39 34 36 36 33 34 20 36 38 33 20
          34 40 36 20 38 36 40 20 18 11 19 31
          41 42 31 20 42 18 19 31 42 41 31 43
          31 19 42 43 31 18 11 20 31 42 18 20
          41 31 33 20 41 33 38 20 41 37 38 33
          44 41 37 38 45 44 41 43 45 41 42 43
          44 41 38 45 38 45 41 20 41 45 42 20
          42 45 46 20 38 47 44 45 45 38 47 20
          13 26 20 8 13 48 20 26 49 13 25 26
          13 49 48 26 48 34 13 20 40 34 48 20
          48 40 39 34 48 50 40 26 40 51 48 39
          50 51 48 40 48 40 20 26 18 20 26 8
          18 42 46 20 46 18 20 26 46 29 18 26
          20 47 40 38 20 40 47 46 45 47 46 20
          46 20 40 26 46 40 52 26 46 47 52 40
          16 7 15 53 7 53 16 17 15 54 16 53
          54 16 53 55 55 16 53 17 14 7 16 17
          55 56 16 17 53 7 19 18 18 19 53 57
          55 53 58 17 53 57 58 17 59 53 19 57
          53 59 58 57 7 18 53 17 53 18 57 17
          60 61 57 17 55 62 54 56 54 16 55 56
          56 55 62 63 55 64 62 63 65 64 55 63
          56 55 63 17 62 56 63 66 56 63 66 67
          65 63 55 17 63 65 67 17 55 58 65 17
          58 59 68 61 61 58 59 57 58 65 64 55
          68 58 65 64 68 58 61 65 58 61 65 17
          58 57 61 17 60 65 61 17 65 61 68 69
          65 61 69 60 28 14 16 17 70 28 16 17
          16 56 70 17 24 17 28 30 28 17 71 30
          28 70 71 17 72 71 70 17 18 29 60 17
          18 60 57 17 73 60 29 17 67 70 56 17
          63 67 56 17 70 56 66 67 17 72 67 70
          67 72 17 74 66 70 67 75 75 70 67 72
          67 65 60 17 69 67 65 60 60 74 67 17
          74 60 73 17 74 60 67 76 60 69 67 76
          57 19 77 42 42 19 77 43 78 42 77 43
          77 59 19 57 61 59 77 57 77 42 78 79
          18 19 57 42 57 18 42 79 77 61 57 79
          57 42 77 79 78 44 45 43 45 42 78 43
          80 78 44 45 81 77 78 79 44 78 80 82
          80 78 83 82 42 45 78 79 45 42 46 79
          44 47 80 45 47 80 45 79 80 78 45 79
          78 80 83 79 83 80 84 79 61 59 85 77
          61 59 68 85 81 85 77 79 85 61 77 79
          81 86 85 79 86 61 68 85 86 87 81 85
          68 87 86 85 60 57 61 79 85 86 61 79
          69 61 68 86 61 86 69 79 86 88 89 79
          78 83 81 79 78 81 83 82 90 83 81 82
          81 88 90 87 87 81 88 86 83 88 90 81
          81 83 88 79 86 81 88 79 88 90 91 83
          88 83 91 79 42 18 46 79 57 60 18 79
          60 46 18 79 29 18 60 46 60 92 29 46
          73 92 60 79 92 46 60 79 45 46 47 79
          47 46 84 79 47 84 80 79 79 84 92 46
          52 84 47 46 84 52 92 46 79 93 92 84
          61 69 60 79 89 60 69 79 89 69 86 79
          79 73 89 60 73 89 94 79 76 60 69 89
          73 60 76 89 84 89 91 79 84 91 83 79
          88 91 89 79 84 93 89 79 93 94 89 79
          95 84 89 91 84 93 95 89 22 21 96 23
          97 22 96 23 21 96 23 24 96 98 97 23
          23 99 100 101 98 23 96 101 23 24 96 101
          25 10 23 24 25 24 23 102 25 24 102 26
          25 23 100 102 23 100 102 101 100 103 25 102
          23 102 24 101 21 27 96 24 96 24 27 101
          24 30 27 101 27 24 28 30 96 27 104 101
          104 98 96 101 71 104 27 30 27 30 104 101
          24 29 102 26 29 30 24 102 24 102 30 101
          105 30 102 101 29 105 30 102 98 99 97 23
          97 106 99 98 99 23 98 101 107 100 99 101
          107 99 98 101 99 106 107 98 107 99 100 108
          99 107 106 108 106 109 107 98 107 109 110 98
          98 110 107 101 111 103 100 102 111 100 112 102
          112 102 100 101 108 100 107 112 112 108 100 111
          107 112 100 101 104 110 98 101 104 113 110 30
          110 104 30 101 109 104 110 98 113 114 104 110
          104 114 109 110 105 102 112 101 105 110 30 101
          105 112 110 101 110 112 107 101 110 105 115 112
          49 25 102 26 25 103 49 102 103 49 102 26
          48 49 50 26 103 50 49 26 50 103 116 117
          103 102 117 26 103 117 50 26 118 50 51 119
          118 40 50 26 51 50 118 40 118 50 119 120
          118 50 117 26 118 50 120 117 92 102 29 26
          92 29 46 26 117 102 92 26 102 92 121 117
          105 29 92 102 102 121 92 105 52 40 118 26
          92 46 52 26 118 92 52 26 92 118 117 26
          122 118 123 117 118 122 92 117 122 124 92 117
          52 122 92 118 102 125 111 103 125 116 103 117
          125 117 103 102 125 126 111 103 125 126 103 116
          102 111 125 112 50 116 120 117 50 119 120 116
          120 119 127 116 120 116 128 117 116 126 127 128
          125 126 116 128 127 120 116 128 128 116 125 117
          120 128 129 117 128 125 129 117 128 127 120 130
          120 128 130 129 125 112 105 102 105 121 125 102
          121 117 125 102 92 124 121 117 112 105 115 125
          129 125 121 117 121 115 105 125 131 115 121 125
          121 131 125 129 129 124 123 117 118 120 123 117
          129 123 120 117 129 121 124 117 122 123 124 117
          132 122 123 124 123 120 130 129 123 130 132 129
          121 131 129 124 129 131 132 124 132 123 129 124
          27 28 71 30 17 133 71 30 72 71 17 133
          71 113 104 30 113 71 72 133 71 133 113 30
          73 17 29 30 73 133 17 30 105 73 29 30
          30 73 134 105 30 134 73 133 74 72 17 133
          67 74 75 72 74 75 72 135 135 72 74 136
          136 72 74 133 74 17 73 133 74 60 76 73
          137 74 73 133 137 73 138 133 74 137 139 133
          76 137 74 73 140 110 113 30 140 113 133 30
          114 113 140 110 140 141 113 114 142 140 141 113
          140 113 142 133 105 110 140 30 140 134 105 30
          140 133 134 30 138 73 134 133 115 105 140 134
          140 105 115 110 143 134 140 133 144 115 140 134
          144 140 143 134 113 72 145 133 136 145 72 133
          142 113 145 133 142 145 136 133 136 135 72 145
          136 146 135 145 139 142 136 133 141 145 142 113
          146 145 142 141 145 136 146 142 147 142 136 139
          142 136 146 147 138 143 139 133 138 134 143 133
          136 74 139 133 139 137 138 133 138 139 148 137
          139 143 142 133 142 143 140 133 143 138 144 134
          143 138 148 144 139 147 142 143 139 148 147 143
          148 139 138 143 60 92 73 29 92 73 94 79
          73 92 105 29 134 92 105 73 92 73 134 94
          79 92 93 94 93 52 92 84 122 92 124 94
          92 122 52 93 122 93 92 94 149 93 122 94
          73 94 89 150 73 76 150 89 138 73 137 94
          150 137 73 94 150 137 76 73 150 151 137 94
          150 95 93 89 93 89 94 150 152 153 93 94
          154 150 153 94 95 93 153 150 153 150 93 94
          92 105 121 134 121 105 115 134 92 134 121 94
          124 92 121 94 121 155 124 94 134 73 138 94
          155 134 138 94 134 155 121 94 134 115 121 155
          121 131 124 155 131 121 115 155 134 138 144 155
          134 144 115 155 124 149 122 94 149 122 132 124
          149 124 156 94 124 131 132 156 156 124 131 155
          124 132 149 156 124 155 156 94 156 157 149 94
          155 157 156 94 132 158 149 156 158 149 156 157
          159 138 151 94 138 137 151 94 151 138 148 137
          155 138 144 159 138 148 144 159 159 155 138 94
          151 157 159 94 159 157 155 94 159 138 148 151
          159 151 160 157 148 159 151 160 152 157 154 94
          152 93 149 94 152 149 157 94 151 150 154 94
          151 154 157 94 152 154 153 94 161 152 154 153
          158 149 157 152 157 161 158 152 151 160 157 154
          157 160 161 154 152 157 161 154
        </DataArray>
        <DataArray type="Int32" Name="offsets" NumberOfComponents="1" format="ascii">
          4 8 12 16 20 24 28 32 36 40 44 48
          52 56 60 64 68 72 76 80 84 88 92 96
          100 104 108 112 116 120 124 128 132 136 140 144
          148 152 156 160 164 168 172 176 180 184 188 192
          196 200 204 208 212 216 220 224 228 232 236 240
          244 248 252 256 260 264 268 272 276 280 284 288
          292 296 300 304 308 312 316 320 324 328 332 336
          340 344 348 352 356 360 364 368 372 376 380 384
          388 392 396 400 404 408 412 416 420 424 428 432
          436 440 444 448 452 456 460 464 468 472 476 480
          484 488 492 496 500 504 508 512 516 520 524 528
          532 536 540 544 548 552 556 560 564 568 572 576
          580 584 588 592 596 600 604 608 612 616 620 624
          628 632 636 640 644 648 652 656 660 664 668 672
          676 680 684 688 692 696 700 704 708 712 716 720
          724 728 732 736 740 744 748 752 756 760 764 768
          772 776 780 784 788 792 796 800 804 808 812 816
          820 824 828 832 836 840 844 848 852 856 860 864
          868 872 876 880 884 888 892 896 900 904 908 912
          916 920 924 928 932 936 940 944 948 952 956 960
          964 968 972 976 980 984 988 992 996 1000 1004 1008
          1012 1016 1020 1024 1028 1032 1036 1040 1044 1048 1052 1056
          1060 1064 1068 1072 1076 1080 1084 1088 1092 1096 1100 1104
          1108 1112 1116 1120 1124 1128 1132 1136 1140 1144 1148 1152
          1156 1160 1164 1168 1172 1176 1180 1184 1188 1192 1196 1200
          1204 1208 1212 1216 1220 1224 1228 1232 1236 1240 1244 1248
          1252 1256 1260 1264 1268 1272 1276 1280 1284 1288 1292 1296
          1300 1304 1308 1312 1316 1320 1324 1328 1332 1336 1340 1344
          1348 1352 1356 1360 1364 1368 1372 1376 1380 1384 1388 1392
          1396 1400 1404 1408 1412 1416 1420 1424 1428 1432 1436 1440
          1444 1448 1452 1456 1460 1464 1468 1472 1476 1480 1484 1488
          1492 1496 1500 1504 1508 1512 1516 1520 1524 1528 1532 1536
          1540 1544 1548 1552 1556 1560 1564 1568 1572 1576 1580 1584
          1588 1592 1596 1600 1604 1608 1612 1616 1620 1624 1628 1632
          1636 1640 1644 1648 1652 1656 1660 1664 1668 1672 1676 1680
          1684 1688 1692 1696 1700 1704 1708 1712 1716 1720 1724 1728
          1732 1736 1740 1744 1748 1752 1756 1760 1764 1768 1772 1776
          1780 1784 1788 1792 1796 1800 1804 1808 1812 1816 1820 1824
          1828 1832 1836 1840 1844 1848 1852 1856 1860 1864 1868 1872
          1876 1880 1884 1888 1892 1896 1900 1904 1908 1912 1916 1920
          1924 1928 1932 1936 1940 1944 1948 1952 1956 1960 1964 1968
          1972 1976
        </DataArray>
        <DataArray type="UInt8" Name="types" NumberOfComponents="1" format="ascii">
          10 10 10 10 10 10 10 10 10 10 10 10
          10 10 10 10 10 10 10 10 10 10 10 10
          10 10 10 10 10 10 10 10 10 10 10 10
          10 10 10 10 10 10 10 10 10 10 10 10
          10 10 10 10 10 10 10 10 10 10 10 10
          10 10 10 10 10 10 10 10 10 10 10 10
          10 10 10 10 10 10 10 10 10 10 10 10
          10 10 10 10 10 10 10 10 10 10 10 10
          10 10 10 10 10 10 10 10 10 10 10 10
          10 10 10 10 10 10 10 10 10 10 10 10
          10 10 10 10 10 10 10 10 10 10 10 10
          10 10 10 10 10 10 10 10 10 10 10 10
          10 10 10 10 10 10 10 10 10 10 10 10
          10 10 10 10 10 10 10 10 10 10 10 10
          10 10 10 10 10 10 10 10 10 10 10 10
          10 10 10 10 10 10 10 10 10 10 10 10
          10 10 10 10 10 10 10 10 10 10 10 10
          10 10 10 10 10 10 10 10 10 10 10 10
          10 10 10 10 10 10 10 10 10 10 10 10
          10 10 10 10 10 10 10 10 10 10 10 10
          10 10 10 10 10 10 10 10 10 10 10 10
          10 10 10 10 10 10 10 10 10 10 10 10
          10 10 10 10 10 10 10 10 10 10 10 10
          10 10 10 10 10 10 10 10 10 10 10 10
          10 10 10 10 10 10 10 10 10 10 10 10
          10 10 10 10 10 10 10 10 10 10 10 10
          10 10 10 10 10 10 10 10 10 10 10 10
          10 10 10 10 10 10 10 10 10 10 10 10
          10 10 10 10 10 10 10 10 10 10 10 10
          10 10 10 10 10 10 10 10 10 10 10 10
          10 10 10 10 10 10 10 10 10 10 10 10
          10 10 10 10 10 10 10 10 10 10 10 10
          10 10 10 10 10 10 10 10 10 10 10 10
          10 10 10 10 10 10 10 10 10 10 10 10
          10 10 10 10 10 10 10 10 10 10 10 10
          10 10 10 10 10 10 10 10 10 10 10 10
          10 10 10 10 10 10 10 10 10 10 10 10
          10 10 10 10 10 10 10 10 10 10 10 10
          10 10 10 10 10 10 10 10 10 10 10 10
          10 10 10 10 10 10 10 10 10 10 10 10
          10 10 10 10 10 10 10 10 10 10 10 10
          10 10
        </DataArray>
      </Cells>
    </Piece>
  </UnstructuredGrid>
</VTKFile>
