<?xml version="1.0"?>
<VTKFile type="UnstructuredGrid" version="0.1" byte_order="LittleEndian">
  <UnstructuredGrid>
    <Piece NumberOfCells="126" NumberOfPoints="154">
      <PointData Scalars="S_liq">
        <DataArray type="Float32" Name="S_liq" NumberOfComponents="1" format="ascii">
          0.300022 0.300022 0.300018 0.300018 0.300022 0.300018 0.300022 0.300018 0.300022 0.300018 0.300022 0.300018
          0.300022 0.300018 0.300022 0.300018 0.300022 0.300018 0.300022 0.300018 0.300022 0.300018 0.300022 0.300018
          0.300022 0.300018 0.300022 0.300018 0.300022 0.300018 0.300022 0.300018 0.300022 0.300018 0.300022 0.300018
          0.300022 0.300018 0.300022 0.300018 0.300022 0.300018 0.300022 0.300018 0.300015 0.300015 0.300015 0.300015
          0.300015 0.300015 0.300015 0.300015 0.300015 0.300015 0.300015 0.300015 0.300015 0.300015 0.300015 0.300015
          0.300015 0.300015 0.300015 0.300015 0.300015 0.300015 0.300011 0.300011 0.300011 0.300011 0.300011 0.300011
          0.300011 0.300011 0.300011 0.300011 0.300011 0.300011 0.300011 0.300011 0.300011 0.300011 0.300011 0.300011
          0.300011 0.300011 0.300011 0.300011 0.300007 0.300007 0.300007 0.300007 0.300007 0.300007 0.300007 0.300007
          0.300007 0.300007 0.300007 0.300007 0.300007 0.300007 0.300007 0.300007 0.300007 0.300007 0.300007 0.300007
          0.300007 0.300007 0.300004 0.300004 0.300004 0.300004 0.300004 0.300004 0.300004 0.300004 0.300004 0.300004
          0.300004 0.300004 0.300004 0.300004 0.300004 0.300004 0.300004 0.300004 0.300004 0.300004 0.300004 0.300004
          0.3 0.3 0.3 0.3 0.3 0.3 0.3 0.3 0.3 0.3 0.3 0.3
          0.3 0.3 0.3 0.3 0.3 0.3 0.3 0.3 0.3 0.3
        </DataArray>
        <DataArray type="Float32" Name="p_liq" NumberOfComponents="1" format="ascii">
          114005 114005 114005 114005 114005 114005 114005 114005 114005 114005 114005 114005
          114005 114005 114005 114005 114005 114005 114005 114005 114005 114005 114005 114005
          114005 114005 114005 114005 114005 114005 114005 114005 114005 114005 114005 114005
          114005 114005 114005 114005 114005 114005 114005 114005 114005 114005 114005 114005
          114005 114005 114005 114005 114005 114005 114005 114005 114005 114005 114005 114005
          114005 114005 114005 114005 114005 114005 114005 114005 114005 114005 114005 114005
          114005 114005 114005 114005 114005 114005 114005 114005 114005 114005 114005 114005
          114005 114005 114005 114005 114005 114005 114005 114005 114005 114005 114005 114005
          114005 114005 114005 114005 114005 114005 114005 114005 114005 114005 114005 114005
          114005 114005 114005 114005 114005 114005 114005 114005 114005 114005 114005 114005
          114005 114005 114005 114005 114005 114005 114005 114005 114005 114005 114005 114005
          114005 114005 114005 114005 114005 114005 114005 114005 114005 114005 114005 114005
          114005 114005 114005 114005 114005 114005 114005 114005 114005 114005
        </DataArray>
        <DataArray type="Float32" Name="rho_liq" NumberOfComponents="1" format="ascii">
          993.403 993.403 993.403 993.403 993.403 993.403 993.403 993.403 993.403 993.403 993.403 993.403
          993.403 993.403 993.403 993.403 993.403 993.403 993.403 993.403 993.403 993.403 993.403 993.403
          993.403 993.403 993.403 993.403 993.403 993.403 993.403 993.403 993.403 993.403 993.403 993.403
          993.403 993.403 993.403 993.403 993.403 993.403 993.403 993.403 993.403 993.403 993.403 993.403
          993.403 993.403 993.403 993.403 993.403 993.403 993.403 993.403 993.403 993.403 993.403 993.403
          993.403 993.403 993.403 993.403 993.403 993.403 993.404 993.404 993.404 993.404 993.404 993.404
          993.404 993.404 993.404 993.404 993.404 993.404 993.404 993.404 993.404 993.404 993.404 993.404
          993.404 993.404 993.404 993.404 993.404 993.404 993.404 993.404 993.404 993.404 993.404 993.404
          993.404 993.404 993.404 993.404 993.404 993.404 993.404 993.404 993.404 993.404 993.404 993.404
          993.404 993.404 993.404 993.404 993.404 993.404 993.404 993.404 993.404 993.404 993.404 993.404
          993.404 993.404 993.404 993.404 993.404 993.404 993.404 993.404 993.404 993.404 993.404 993.404
          993.404 993.404 993.404 993.404 993.404 993.404 993.404 993.404 993.404 993.404 993.404 993.404
          993.404 993.404 993.404 993.404 993.404 993.404 993.404 993.404 993.404 993.404
        </DataArray>
        <DataArray type="Float32" Name="mob_liq" NumberOfComponents="1" format="ascii">
          252.917 252.917 252.911 252.911 252.917 252.911 252.917 252.911 252.917 252.911 252.917 252.911
          252.917 252.911 252.917 252.911 252.917 252.911 252.917 252.911 252.917 252.911 252.917 252.911
          252.917 252.911 252.917 252.911 252.917 252.911 252.917 252.911 252.917 252.911 252.917 252.911
          252.917 252.911 252.917 252.911 252.917 252.911 252.917 252.911 252.905 252.905 252.905 252.905
          252.905 252.905 252.905 252.905 252.905 252.905 252.905 252.905 252.905 252.905 252.905 252.905
          252.905 252.905 252.905 252.905 252.905 252.905 252.9 252.9 252.9 252.9 252.9 252.9
          252.9 252.9 252.9 252.9 252.9 252.9 252.9 252.9 252.9 252.9 252.9 252.9
          252.9 252.9 252.9 252.9 252.894 252.894 252.894 252.894 252.894 252.894 252.894 252.894
          252.894 252.894 252.894 252.894 252.894 252.894 252.894 252.894 252.894 252.894 252.894 252.894
          252.894 252.894 252.888 252.888 252.888 252.888 252.888 252.888 252.888 252.888 252.888 252.888
          252.888 252.888 252.888 252.888 252.888 252.888 252.888 252.888 252.888 252.888 252.888 252.888
          252.883 252.883 252.883 252.883 252.883 252.883 252.883 252.883 252.883 252.883 252.883 252.883
          252.883 252.883 252.883 252.883 252.883 252.883 252.883 252.883 252.883 252.883
        </DataArray>
        <DataArray type="Float32" Name="S_gas" NumberOfComponents="1" format="ascii">
          0.699978 0.699978 0.699982 0.699982 0.699978 0.699982 0.699978 0.699982 0.699978 0.699982 0.699978 0.699982
          0.699978 0.699982 0.699978 0.699982 0.699978 0.699982 0.699978 0.699982 0.699978 0.699982 0.699978 0.699982
          0.699978 0.699982 0.699978 0.699982 0.699978 0.699982 0.699978 0.699982 0.699978 0.699982 0.699978 0.699982
          0.699978 0.699982 0.699978 0.699982 0.699978 0.699982 0.699978 0.699982 0.699985 0.699985 0.699985 0.699985
          0.699985 0.699985 0.699985 0.699985 0.699985 0.699985 0.699985 0.699985 0.699985 0.699985 0.699985 0.699985
          0.699985 0.699985 0.699985 0.699985 0.699985 0.699985 0.699989 0.699989 0.699989 0.699989 0.699989 0.699989
          0.699989 0.699989 0.699989 0.699989 0.699989 0.699989 0.699989 0.699989 0.699989 0.699989 0.699989 0.699989
          0.699989 0.699989 0.699989 0.699989 0.699993 0.699993 0.699993 0.699993 0.699993 0.699993 0.699993 0.699993
          0.699993 0.699993 0.699993 0.699993 0.699993 0.699993 0.699993 0.699993 0.699993 0.699993 0.699993 0.699993
          0.699993 0.699993 0.699996 0.699996 0.699996 0.699996 0.699996 0.699996 0.699996 0.699996 0.699996 0.699996
          0.699996 0.699996 0.699996 0.699996 0.699996 0.699996 0.699996 0.699996 0.699996 0.699996 0.699996 0.699996
          0.7 0.7 0.7 0.7 0.7 0.7 0.7 0.7 0.7 0.7 0.7 0.7
          0.7 0.7 0.7 0.7 0.7 0.7 0.7 0.7 0.7 0.7
        </DataArray>
        <DataArray type="Float32" Name="p_gas" NumberOfComponents="1" format="ascii">
          99999.6 99999.6 99999.6 99999.6 99999.6 99999.6 99999.6 99999.6 99999.6 99999.6 99999.6 99999.6
          99999.6 99999.6 99999.6 99999.6 99999.6 99999.6 99999.6 99999.6 99999.6 99999.6 99999.6 99999.6
          99999.6 99999.6 99999.6 99999.6 99999.6 99999.6 99999.6 99999.6 99999.6 99999.6 99999.6 99999.6
          99999.6 99999.6 99999.6 99999.6 99999.6 99999.6 99999.6 99999.6 99999.7 99999.7 99999.7 99999.7
          99999.7 99999.7 99999.7 99999.7 99999.7 99999.7 99999.7 99999.7 99999.7 99999.7 99999.7 99999.7
          99999.7 99999.7 99999.7 99999.7 99999.7 99999.7 99999.8 99999.8 99999.8 99999.8 99999.8 99999.8
          99999.8 99999.8 99999.8 99999.8 99999.8 99999.8 99999.8 99999.8 99999.8 99999.8 99999.8 99999.8
          99999.8 99999.8 99999.8 99999.8 99999.9 99999.9 99999.9 99999.9 99999.9 99999.9 99999.9 99999.9
          99999.9 99999.9 99999.9 99999.9 99999.9 99999.9 99999.9 99999.9 99999.9 99999.9 99999.9 99999.9
          99999.9 99999.9 99999.9 99999.9 99999.9 99999.9 99999.9 99999.9 99999.9 99999.9 99999.9 99999.9
          99999.9 99999.9 99999.9 99999.9 99999.9 99999.9 99999.9 99999.9 99999.9 99999.9 99999.9 99999.9
          100000 100000 100000 100000 100000 100000 100000 100000 100000 100000 100000 100000
          100000 100000 100000 100000 100000 100000 100000 100000 100000 100000
        </DataArray>
        <DataArray type="Float32" Name="rho_gas" NumberOfComponents="1" format="ascii">
          1.09762 1.09762 1.10152 1.10152 1.09762 1.10152 1.09762 1.10152 1.09762 1.10152 1.09762 1.10152
          1.09762 1.10152 1.09762 1.10152 1.09762 1.10152 1.09762 1.10152 1.09762 1.10152 1.09762 1.10152
          1.09762 1.10152 1.09762 1.10152 1.09762 1.10152 1.09762 1.10152 1.09762 1.10152 1.09762 1.10152
          1.09762 1.10152 1.09762 1.10152 1.09762 1.10152 1.09762 1.10152 1.10529 1.10529 1.10529 1.10529
          1.10529 1.10529 1.10529 1.10529 1.10529 1.10529 1.10529 1.10529 1.10529 1.10529 1.10529 1.10529
          1.10529 1.10529 1.10529 1.10529 1.10529 1.10529 1.10893 1.10893 1.10893 1.10893 1.10893 1.10893
          1.10893 1.10893 1.10893 1.10893 1.10893 1.10893 1.10893 1.10893 1.10893 1.10893 1.10893 1.10893
          1.10893 1.10893 1.10893 1.10893 1.11243 1.11243 1.11243 1.11243 1.11243 1.11243 1.11243 1.11243
          1.11243 1.11243 1.11243 1.11243 1.11243 1.11243 1.11243 1.11243 1.11243 1.11243 1.11243 1.11243
          1.11243 1.11243 1.11581 1.11581 1.11581 1.11581 1.11581 1.11581 1.11581 1.11581 1.11581 1.11581
          1.11581 1.11581 1.11581 1.11581 1.11581 1.11581 1.11581 1.11581 1.11581 1.11581 1.11581 1.11581
          1.11907 1.11907 1.11907 1.11907 1.11907 1.11907 1.11907 1.11907 1.11907 1.11907 1.11907 1.11907
          1.11907 1.11907 1.11907 1.11907 1.11907 1.11907 1.11907 1.11907 1.11907 1.11907
        </DataArray>
        <DataArray type="Float32" Name="mob_gas" NumberOfComponents="1" format="ascii">
          9071.67 9071.67 9035.36 9035.36 9071.67 9035.36 9071.67 9035.36 9071.67 9035.36 9071.67 9035.36
          9071.67 9035.36 9071.67 9035.36 9071.67 9035.36 9071.67 9035.36 9071.67 9035.36 9071.67 9035.36
          9071.67 9035.36 9071.67 9035.36 9071.67 9035.36 9071.67 9035.36 9071.67 9035.36 9071.67 9035.36
          9071.67 9035.36 9071.67 9035.36 9071.67 9035.36 9071.67 9035.36 9000.62 9000.62 9000.62 9000.62
          9000.62 9000.62 9000.62 9000.62 9000.62 9000.62 9000.62 9000.62 9000.62 9000.62 9000.62 9000.62
          9000.62 9000.62 9000.62 9000.62 9000.62 9000.62 8967.37 8967.37 8967.37 8967.37 8967.37 8967.37
          8967.37 8967.37 8967.37 8967.37 8967.37 8967.37 8967.37 8967.37 8967.37 8967.37 8967.37 8967.37
          8967.37 8967.37 8967.37 8967.37 8935.54 8935.54 8935.54 8935.54 8935.54 8935.54 8935.54 8935.54
          8935.54 8935.54 8935.54 8935.54 8935.54 8935.54 8935.54 8935.54 8935.54 8935.54 8935.54 8935.54
          8935.54 8935.54 8905.05 8905.05 8905.05 8905.05 8905.05 8905.05 8905.05 8905.05 8905.05 8905.05
          8905.05 8905.05 8905.05 8905.05 8905.05 8905.05 8905.05 8905.05 8905.05 8905.05 8905.05 8905.05
          8875.85 8875.85 8875.85 8875.85 8875.85 8875.85 8875.85 8875.85 8875.85 8875.85 8875.85 8875.85
          8875.85 8875.85 8875.85 8875.85 8875.85 8875.85 8875.85 8875.85 8875.85 8875.85
        </DataArray>
        <DataArray type="Float32" Name="pc" NumberOfComponents="1" format="ascii">
          14005.8 14005.8 14005.7 14005.7 14005.8 14005.7 14005.8 14005.7 14005.8 14005.7 14005.8 14005.7
          14005.8 14005.7 14005.8 14005.7 14005.8 14005.7 14005.8 14005.7 14005.8 14005.7 14005.8 14005.7
          14005.8 14005.7 14005.8 14005.7 14005.8 14005.7 14005.8 14005.7 14005.8 14005.7 14005.8 14005.7
          14005.8 14005.7 14005.8 14005.7 14005.8 14005.7 14005.8 14005.7 14005.7 14005.7 14005.7 14005.7
          14005.7 14005.7 14005.7 14005.7 14005.7 14005.7 14005.7 14005.7 14005.7 14005.7 14005.7 14005.7
          14005.7 14005.7 14005.7 14005.7 14005.7 14005.7 14005.6 14005.6 14005.6 14005.6 14005.6 14005.6
          14005.6 14005.6 14005.6 14005.6 14005.6 14005.6 14005.6 14005.6 14005.6 14005.6 14005.6 14005.6
          14005.6 14005.6 14005.6 14005.6 14005.5 14005.5 14005.5 14005.5 14005.5 14005.5 14005.5 14005.5
          14005.5 14005.5 14005.5 14005.5 14005.5 14005.5 14005.5 14005.5 14005.5 14005.5 14005.5 14005.5
          14005.5 14005.5 14005.4 14005.4 14005.4 14005.4 14005.4 14005.4 14005.4 14005.4 14005.4 14005.4
          14005.4 14005.4 14005.4 14005.4 14005.4 14005.4 14005.4 14005.4 14005.4 14005.4 14005.4 14005.4
          14005.3 14005.3 14005.3 14005.3 14005.3 14005.3 14005.3 14005.3 14005.3 14005.3 14005.3 14005.3
          14005.3 14005.3 14005.3 14005.3 14005.3 14005.3 14005.3 14005.3 14005.3 14005.3
        </DataArray>
        <DataArray type="Float32" Name="porosity" NumberOfComponents="1" format="ascii">
          0.2 0.2 0.2 0.2 0.2 0.2 0.2 0.2 0.2 0.2 0.2 0.2
          0.2 0.2 0.2 0.2 0.2 0.2 0.2 0.2 0.2 0.2 0.2 0.2
          0.2 0.2 0.2 0.2 0.2 0.2 0.2 0.2 0.2 0.2 0.2 0.2
          0.2 0.2 0.2 0.2 0.2 0.2 0.2 0.2 0.2 0.2 0.2 0.2
          0.2 0.2 0.2 0.2 0.2 0.2 0.2 0.2 0.2 0.2 0.2 0.2
          0.2 0.2 0.2 0.2 0.2 0.2 0.2 0.2 0.2 0.2 0.2 0.2
          0.2 0.2 0.2 0.2 0.2 0.2 0.2 0.2 0.2 0.2 0.2 0.2
          0.2 0.2 0.2 0.2 0.2 0.2 0.2 0.2 0.2 0.2 0.2 0.2
          0.2 0.2 0.2 0.2 0.2 0.2 0.2 0.2 0.2 0.2 0.2 0.2
          0.2 0.2 0.2 0.2 0.2 0.2 0.2 0.2 0.2 0.2 0.2 0.2
          0.2 0.2 0.2 0.2 0.2 0.2 0.2 0.2 0.2 0.2 0.2 0.2
          0.2 0.2 0.2 0.2 0.2 0.2 0.2 0.2 0.2 0.2 0.2 0.2
          0.2 0.2 0.2 0.2 0.2 0.2 0.2 0.2 0.2 0.2
        </DataArray>
        <DataArray type="Float32" Name="x^H2O_liq" NumberOfComponents="1" format="ascii">
          0.999989 0.999989 0.999988 0.999988 0.999989 0.999988 0.999989 0.999988 0.999989 0.999988 0.999989 0.999988
          0.999989 0.999988 0.999989 0.999988 0.999989 0.999988 0.999989 0.999988 0.999989 0.999988 0.999989 0.999988
          0.999989 0.999988 0.999989 0.999988 0.999989 0.999988 0.999989 0.999988 0.999989 0.999988 0.999989 0.999988
          0.999989 0.999988 0.999989 0.999988 0.999989 0.999988 0.999989 0.999988 0.999988 0.999988 0.999988 0.999988
          0.999988 0.999988 0.999988 0.999988 0.999988 0.999988 0.999988 0.999988 0.999988 0.999988 0.999988 0.999988
          0.999988 0.999988 0.999988 0.999988 0.999988 0.999988 0.999988 0.999988 0.999988 0.999988 0.999988 0.999988
          0.999988 0.999988 0.999988 0.999988 0.999988 0.999988 0.999988 0.999988 0.999988 0.999988 0.999988 0.999988
          0.999988 0.999988 0.999988 0.999988 0.999988 0.999988 0.999988 0.999988 0.999988 0.999988 0.999988 0.999988
          0.999988 0.999988 0.999988 0.999988 0.999988 0.999988 0.999988 0.999988 0.999988 0.999988 0.999988 0.999988
          0.999988 0.999988 0.999987 0.999987 0.999987 0.999987 0.999987 0.999987 0.999987 0.999987 0.999987 0.999987
          0.999987 0.999987 0.999987 0.999987 0.999987 0.999987 0.999987 0.999987 0.999987 0.999987 0.999987 0.999987
          0.999987 0.999987 0.999987 0.999987 0.999987 0.999987 0.999987 0.999987 0.999987 0.999987 0.999987 0.999987
          0.999987 0.999987 0.999987 0.999987 0.999987 0.999987 0.999987 0.999987 0.999987 0.999987
        </DataArray>
        <DataArray type="Float32" Name="x^N2_liq" NumberOfComponents="1" format="ascii">
          7.16689e-06 7.16689e-06 6.91299e-06 6.91299e-06 7.16689e-06 6.91299e-06 7.16689e-06 6.91299e-06 7.16689e-06 6.91299e-06 7.16689e-06 6.91299e-06
          7.16689e-06 6.91299e-06 7.16689e-06 6.91299e-06 7.16689e-06 6.91299e-06 7.16689e-06 6.91299e-06 7.16689e-06 6.91299e-06 7.16689e-06 6.91299e-06
          7.16689e-06 6.91299e-06 7.16689e-06 6.91299e-06 7.16689e-06 6.91299e-06 7.16689e-06 6.91299e-06 7.16689e-06 6.91299e-06 7.16689e-06 6.91299e-06
          7.16689e-06 6.91299e-06 7.16689e-06 6.91299e-06 7.16689e-06 6.91299e-06 7.16689e-06 6.91299e-06 6.66805e-06 6.66805e-06 6.66805e-06 6.66805e-06
          6.66805e-06 6.66805e-06 6.66805e-06 6.66805e-06 6.66805e-06 6.66805e-06 6.66805e-06 6.66805e-06 6.66805e-06 6.66805e-06 6.66805e-06 6.66805e-06
          6.66805e-06 6.66805e-06 6.66805e-06 6.66805e-06 6.66805e-06 6.66805e-06 6.43178e-06 6.43178e-06 6.43178e-06 6.43178e-06 6.43178e-06 6.43178e-06
          6.43178e-06 6.43178e-06 6.43178e-06 6.43178e-06 6.43178e-06 6.43178e-06 6.43178e-06 6.43178e-06 6.43178e-06 6.43178e-06 6.43178e-06 6.43178e-06
          6.43178e-06 6.43178e-06 6.43178e-06 6.43178e-06 6.20386e-06 6.20386e-06 6.20386e-06 6.20386e-06 6.20386e-06 6.20386e-06 6.20386e-06 6.20386e-06
          6.20386e-06 6.20386e-06 6.20386e-06 6.20386e-06 6.20386e-06 6.20386e-06 6.20386e-06 6.20386e-06 6.20386e-06 6.20386e-06 6.20386e-06 6.20386e-06
          6.20386e-06 6.20386e-06 5.984e-06 5.984e-06 5.984e-06 5.984e-06 5.984e-06 5.984e-06 5.984e-06 5.984e-06 5.984e-06 5.984e-06
          5.984e-06 5.984e-06 5.984e-06 5.984e-06 5.984e-06 5.984e-06 5.984e-06 5.984e-06 5.984e-06 5.984e-06 5.984e-06 5.984e-06
          5.77192e-06 5.77192e-06 5.77192e-06 5.77192e-06 5.77192e-06 5.77192e-06 5.77192e-06 5.77192e-06 5.77192e-06 5.77192e-06 5.77192e-06 5.77192e-06
          5.77192e-06 5.77192e-06 5.77192e-06 5.77192e-06 5.77192e-06 5.77192e-06 5.77192e-06 5.77192e-06 5.77192e-06 5.77192e-06
        </DataArray>
        <DataArray type="Float32" Name="x^O2_liq" NumberOfComponents="1" format="ascii">
          4.30288e-06 4.30288e-06 4.78515e-06 4.78515e-06 4.30288e-06 4.78515e-06 4.30288e-06 4.78515e-06 4.30288e-06 4.78515e-06 4.30288e-06 4.78515e-06
          4.30288e-06 4.78515e-06 4.30288e-06 4.78515e-06 4.30288e-06 4.78515e-06 4.30288e-06 4.78515e-06 4.30288e-06 4.78515e-06 4.30288e-06 4.78515e-06
          4.30288e-06 4.78515e-06 4.30288e-06 4.78515e-06 4.30288e-06 4.78515e-06 4.30288e-06 4.78515e-06 4.30288e-06 4.78515e-06 4.30288e-06 4.78515e-06
          4.30288e-06 4.78515e-06 4.30288e-06 4.78515e-06 4.30288e-06 4.78515e-06 4.30288e-06 4.78515e-06 5.25038e-06 5.25038e-06 5.25038e-06 5.25038e-06
          5.25038e-06 5.25038e-06 5.25038e-06 5.25038e-06 5.25038e-06 5.25038e-06 5.25038e-06 5.25038e-06 5.25038e-06 5.25038e-06 5.25038e-06 5.25038e-06
          5.25038e-06 5.25038e-06 5.25038e-06 5.25038e-06 5.25038e-06 5.25038e-06 5.69915e-06 5.69915e-06 5.69915e-06 5.69915e-06 5.69915e-06 5.69915e-06
          5.69915e-06 5.69915e-06 5.69915e-06 5.69915e-06 5.69915e-06 5.69915e-06 5.69915e-06 5.69915e-06 5.69915e-06 5.69915e-06 5.69915e-06 5.69915e-06
          5.69915e-06 5.69915e-06 5.69915e-06 5.69915e-06 6.13206e-06 6.13206e-06 6.13206e-06 6.13206e-06 6.13206e-06 6.13206e-06 6.13206e-06 6.13206e-06
          6.13206e-06 6.13206e-06 6.13206e-06 6.13206e-06 6.13206e-06 6.13206e-06 6.13206e-06 6.13206e-06 6.13206e-06 6.13206e-06 6.13206e-06 6.13206e-06
          6.13206e-06 6.13206e-06 6.54966e-06 6.54966e-06 6.54966e-06 6.54966e-06 6.54966e-06 6.54966e-06 6.54966e-06 6.54966e-06 6.54966e-06 6.54966e-06
          6.54966e-06 6.54966e-06 6.54966e-06 6.54966e-06 6.54966e-06 6.54966e-06 6.54966e-06 6.54966e-06 6.54966e-06 6.54966e-06 6.54966e-06 6.54966e-06
          6.95249e-06 6.95249e-06 6.95249e-06 6.95249e-06 6.95249e-06 6.95249e-06 6.95249e-06 6.95249e-06 6.95249e-06 6.95249e-06 6.95249e-06 6.95249e-06
          6.95249e-06 6.95249e-06 6.95249e-06 6.95249e-06 6.95249e-06 6.95249e-06 6.95249e-06 6.95249e-06 6.95249e-06 6.95249e-06
        </DataArray>
        <DataArray type="Float32" Name="rhoMolar_liq" NumberOfComponents="1" format="ascii">
          55142.1 55142.1 55142.1 55142.1 55142.1 55142.1 55142.1 55142.1 55142.1 55142.1 55142.1 55142.1
          55142.1 55142.1 55142.1 55142.1 55142.1 55142.1 55142.1 55142.1 55142.1 55142.1 55142.1 55142.1
          55142.1 55142.1 55142.1 55142.1 55142.1 55142.1 55142.1 55142.1 55142.1 55142.1 55142.1 55142.1
          55142.1 55142.1 55142.1 55142.1 55142.1 55142.1 55142.1 55142.1 55142.1 55142.1 55142.1 55142.1
          55142.1 55142.1 55142.1 55142.1 55142.1 55142.1 55142.1 55142.1 55142.1 55142.1 55142.1 55142.1
          55142.1 55142.1 55142.1 55142.1 55142.1 55142.1 55142.1 55142.1 55142.1 55142.1 55142.1 55142.1
          55142.1 55142.1 55142.1 55142.1 55142.1 55142.1 55142.1 55142.1 55142.1 55142.1 55142.1 55142.1
          55142.1 55142.1 55142.1 55142.1 55142.1 55142.1 55142.1 55142.1 55142.1 55142.1 55142.1 55142.1
          55142.1 55142.1 55142.1 55142.1 55142.1 55142.1 55142.1 55142.1 55142.1 55142.1 55142.1 55142.1
          55142.1 55142.1 55142.1 55142.1 55142.1 55142.1 55142.1 55142.1 55142.1 55142.1 55142.1 55142.1
          55142.1 55142.1 55142.1 55142.1 55142.1 55142.1 55142.1 55142.1 55142.1 55142.1 55142.1 55142.1
          55142.1 55142.1 55142.1 55142.1 55142.1 55142.1 55142.1 55142.1 55142.1 55142.1 55142.1 55142.1
          55142.1 55142.1 55142.1 55142.1 55142.1 55142.1 55142.1 55142.1 55142.1 55142.1
        </DataArray>
        <DataArray type="Float32" Name="x^H2O_gas" NumberOfComponents="1" format="ascii">
          0.0623063 0.0623063 0.0623063 0.0623063 0.0623063 0.0623063 0.0623063 0.0623063 0.0623063 0.0623063 0.0623063 0.0623063
          0.0623063 0.0623063 0.0623063 0.0623063 0.0623063 0.0623063 0.0623063 0.0623063 0.0623063 0.0623063 0.0623063 0.0623063
          0.0623063 0.0623063 0.0623063 0.0623063 0.0623063 0.0623063 0.0623063 0.0623063 0.0623063 0.0623063 0.0623063 0.0623063
          0.0623063 0.0623063 0.0623063 0.0623063 0.0623063 0.0623063 0.0623063 0.0623063 0.0623062 0.0623062 0.0623062 0.0623062
          0.0623062 0.0623062 0.0623062 0.0623062 0.0623062 0.0623062 0.0623062 0.0623062 0.0623062 0.0623062 0.0623062 0.0623062
          0.0623062 0.0623062 0.0623062 0.0623062 0.0623062 0.0623062 0.0623062 0.0623062 0.0623062 0.0623062 0.0623062 0.0623062
          0.0623062 0.0623062 0.0623062 0.0623062 0.0623062 0.0623062 0.0623062 0.0623062 0.0623062 0.0623062 0.0623062 0.0623062
          0.0623062 0.0623062 0.0623062 0.0623062 0.0623061 0.0623061 0.0623061 0.0623061 0.0623061 0.0623061 0.0623061 0.0623061
          0.0623061 0.0623061 0.0623061 0.0623061 0.0623061 0.0623061 0.0623061 0.0623061 0.0623061 0.0623061 0.0623061 0.0623061
          0.0623061 0.0623061 0.0623061 0.0623061 0.0623061 0.0623061 0.0623061 0.0623061 0.0623061 0.0623061 0.0623061 0.0623061
          0.0623061 0.0623061 0.0623061 0.0623061 0.0623061 0.0623061 0.0623061 0.0623061 0.0623061 0.0623061 0.0623061 0.0623061
          0.062306 0.062306 0.062306 0.062306 0.062306 0.062306 0.062306 0.062306 0.062306 0.062306 0.062306 0.062306
          0.062306 0.062306 0.062306 0.062306 0.062306 0.062306 0.062306 0.062306 0.062306 0.062306
        </DataArray>
        <DataArray type="Float32" Name="x^N2_gas" NumberOfComponents="1" format="ascii">
          0.712479 0.712479 0.687237 0.687237 0.712479 0.687237 0.712479 0.687237 0.712479 0.687237 0.712479 0.687237
          0.712479 0.687237 0.712479 0.687237 0.712479 0.687237 0.712479 0.687237 0.712479 0.687237 0.712479 0.687237
          0.712479 0.687237 0.712479 0.687237 0.712479 0.687237 0.712479 0.687237 0.712479 0.687237 0.712479 0.687237
          0.712479 0.687237 0.712479 0.687237 0.712479 0.687237 0.712479 0.687237 0.662887 0.662887 0.662887 0.662887
          0.662887 0.662887 0.662887 0.662887 0.662887 0.662887 0.662887 0.662887 0.662887 0.662887 0.662887 0.662887
          0.662887 0.662887 0.662887 0.662887 0.662887 0.662887 0.639398 0.639398 0.639398 0.639398 0.639398 0.639398
          0.639398 0.639398 0.639398 0.639398 0.639398 0.639398 0.639398 0.639398 0.639398 0.639398 0.639398 0.639398
          0.639398 0.639398 0.639398 0.639398 0.616739 0.616739 0.616739 0.616739 0.616739 0.616739 0.616739 0.616739
          0.616739 0.616739 0.616739 0.616739 0.616739 0.616739 0.616739 0.616739 0.616739 0.616739 0.616739 0.616739
          0.616739 0.616739 0.594882 0.594882 0.594882 0.594882 0.594882 0.594882 0.594882 0.594882 0.594882 0.594882
          0.594882 0.594882 0.594882 0.594882 0.594882 0.594882 0.594882 0.594882 0.594882 0.594882 0.594882 0.594882
          0.573799 0.573799 0.573799 0.573799 0.573799 0.573799 0.573799 0.573799 0.573799 0.573799 0.573799 0.573799
          0.573799 0.573799 0.573799 0.573799 0.573799 0.573799 0.573799 0.573799 0.573799 0.573799
        </DataArray>
        <DataArray type="Float32" Name="x^O2_gas" NumberOfComponents="1" format="ascii">
          0.225215 0.225215 0.250457 0.250457 0.225215 0.250457 0.225215 0.250457 0.225215 0.250457 0.225215 0.250457
          0.225215 0.250457 0.225215 0.250457 0.225215 0.250457 0.225215 0.250457 0.225215 0.250457 0.225215 0.250457
          0.225215 0.250457 0.225215 0.250457 0.225215 0.250457 0.225215 0.250457 0.225215 0.250457 0.225215 0.250457
          0.225215 0.250457 0.225215 0.250457 0.225215 0.250457 0.225215 0.250457 0.274807 0.274807 0.274807 0.274807
          0.274807 0.274807 0.274807 0.274807 0.274807 0.274807 0.274807 0.274807 0.274807 0.274807 0.274807 0.274807
          0.274807 0.274807 0.274807 0.274807 0.274807 0.274807 0.298296 0.298296 0.298296 0.298296 0.298296 0.298296
          0.298296 0.298296 0.298296 0.298296 0.298296 0.298296 0.298296 0.298296 0.298296 0.298296 0.298296 0.298296
          0.298296 0.298296 0.298296 0.298296 0.320954 0.320954 0.320954 0.320954 0.320954 0.320954 0.320954 0.320954
          0.320954 0.320954 0.320954 0.320954 0.320954 0.320954 0.320954 0.320954 0.320954 0.320954 0.320954 0.320954
          0.320954 0.320954 0.342811 0.342811 0.342811 0.342811 0.342811 0.342811 0.342811 0.342811 0.342811 0.342811
          0.342811 0.342811 0.342811 0.342811 0.342811 0.342811 0.342811 0.342811 0.342811 0.342811 0.342811 0.342811
          0.363895 0.363895 0.363895 0.363895 0.363895 0.363895 0.363895 0.363895 0.363895 0.363895 0.363895 0.363895
          0.363895 0.363895 0.363895 0.363895 0.363895 0.363895 0.363895 0.363895 0.363895 0.363895
        </DataArray>
        <DataArray type="Float32" Name="rhoMolar_gas" NumberOfComponents="1" format="ascii">
          38.8034 38.8034 38.8034 38.8034 38.8034 38.8034 38.8034 38.8034 38.8034 38.8034 38.8034 38.8034
          38.8034 38.8034 38.8034 38.8034 38.8034 38.8034 38.8034 38.8034 38.8034 38.8034 38.8034 38.8034
          38.8034 38.8034 38.8034 38.8034 38.8034 38.8034 38.8034 38.8034 38.8034 38.8034 38.8034 38.8034
          38.8034 38.8034 38.8034 38.8034 38.8034 38.8034 38.8034 38.8034 38.8035 38.8035 38.8035 38.8035
          38.8035 38.8035 38.8035 38.8035 38.8035 38.8035 38.8035 38.8035 38.8035 38.8035 38.8035 38.8035
          38.8035 38.8035 38.8035 38.8035 38.8035 38.8035 38.8035 38.8035 38.8035 38.8035 38.8035 38.8035
          38.8035 38.8035 38.8035 38.8035 38.8035 38.8035 38.8035 38.8035 38.8035 38.8035 38.8035 38.8035
          38.8035 38.8035 38.8035 38.8035 38.8035 38.8035 38.8035 38.8035 38.8035 38.8035 38.8035 38.8035
          38.8035 38.8035 38.8035 38.8035 38.8035 38.8035 38.8035 38.8035 38.8035 38.8035 38.8035 38.8035
          38.8035 38.8035 38.8035 38.8035 38.8035 38.8035 38.8035 38.8035 38.8035 38.8035 38.8035 38.8035
          38.8035 38.8035 38.8035 38.8035 38.8035 38.8035 38.8035 38.8035 38.8035 38.8035 38.8035 38.8035
          38.8036 38.8036 38.8036 38.8036 38.8036 38.8036 38.8036 38.8036 38.8036 38.8036 38.8036 38.8036
          38.8036 38.8036 38.8036 38.8036 38.8036 38.8036 38.8036 38.8036 38.8036 38.8036
        </DataArray>
        <DataArray type="Float32" Name="phase presence" NumberOfComponents="1" format="ascii">
          3 3 3 3 3 3 3 3 3 3 3 3
          3 3 3 3 3 3 3 3 3 3 3 3
          3 3 3 3 3 3 3 3 3 3 3 3
          3 3 3 3 3 3 3 3 3 3 3 3
          3 3 3 3 3 3 3 3 3 3 3 3
          3 3 3 3 3 3 3 3 3 3 3 3
          3 3 3 3 3 3 3 3 3 3 3 3
          3 3 3 3 3 3 3 3 3 3 3 3
          3 3 3 3 3 3 3 3 3 3 3 3
          3 3 3 3 3 3 3 3 3 3 3 3
          3 3 3 3 3 3 3 3 3 3 3 3
          3 3 3 3 3 3 3 3 3 3 3 3
          3 3 3 3 3 3 3 3 3 3
        </DataArray>
        <DataArray type="Float32" Name="currentDensity [A/cm^2]" NumberOfComponents="1" format="ascii">
          0.451438 0.451438 0 0 0.451438 0 0.451438 0 0.451438 0 0.451438 0
          0.451438 0 0.451438 0 0.451438 0 0.451438 0 0.451438 0 0.451438 0
          0.451438 0 0.451438 0 0.451438 0 0.451438 0 0.451438 0 0.451438 0
          0.451438 0 0.451438 0 0.451438 0 0.451438 0 0 0 0 0
          0 0 0 0 0 0 0 0 0 0 0 0
          0 0 0 0 0 0 0 0 0 0 0 0
          0 0 0 0 0 0 0 0 0 0 0 0
          0 0 0 0 0 0 0 0 0 0 0 0
          0 0 0 0 0 0 0 0 0 0 0 0
          0 0 0 0 0 0 0 0 0 0 0 0
          0 0 0 0 0 0 0 0 0 0 0 0
          0 0 0 0 0 0 0 0 0 0 0 0
          0 0 0 0 0 0 0 0 0 0
        </DataArray>
        <DataArray type="Float32" Name="reactionSourceH2O [mol/(sm^2)]" NumberOfComponents="1" format="ascii">
          747.965 747.965 0 0 747.965 0 747.965 0 747.965 0 747.965 0
          747.965 0 747.965 0 747.965 0 747.965 0 747.965 0 747.965 0
          747.965 0 747.965 0 747.965 0 747.965 0 747.965 0 747.965 0
          747.965 0 747.965 0 747.965 0 747.965 0 0 0 0 0
          0 0 0 0 0 0 0 0 0 0 0 0
          0 0 0 0 0 0 0 0 0 0 0 0
          0 0 0 0 0 0 0 0 0 0 0 0
          0 0 0 0 0 0 0 0 0 0 0 0
          0 0 0 0 0 0 0 0 0 0 0 0
          0 0 0 0 0 0 0 0 0 0 0 0
          0 0 0 0 0 0 0 0 0 0 0 0
          0 0 0 0 0 0 0 0 0 0 0 0
          0 0 0 0 0 0 0 0 0 0
        </DataArray>
        <DataArray type="Float32" Name="reactionSourceO2 [mol/(sm^2)]" NumberOfComponents="1" format="ascii">