<?xml version="1.0"?>
<VTKFile type="UnstructuredGrid" version="0.1" byte_order="LittleEndian">
  <UnstructuredGrid>
    <Piece NumberOfCells="100" NumberOfPoints="126">
      <PointData Scalars="p" Vectors="velocity_liq (m/s)">
        <DataArray type="Float32" Name="p" NumberOfComponents="1" format="ascii">
          590500 590280 492400 492296 590188 492227 590142 492189 590117 492169 590104 492158
          590097 492153 590094 492150 590093 492149 590096 492151 590104 492157 590124 492167
          590171 492185 590263 492215 590416 492264 590637 492344 590919 492466 591247 492634
          591603 492812 591869 492810 590500 492400 394300 394265 394241 394226 394218 394213
          394210 394209 394208 394208 394209 394210 394209 394206 394200 394195 394203 394245
          394337 394376 394300 296200 296227 296248 296261 296267 296270 296271 296271 296270
          296268 296265 296258 296245 296222 296185 296129 296056 295978 295954 296058 296200
          198100 198201 198269 198306 198324 198334 198338 198339 198338 198334 198328 198316
          198295 198261 198207 198123 198000 197825 197620 197679 198100 100000 100233 100325
          100371 100394 100406 100411 100413 100412 100408 100400 100387 100363 100326 100265
          100171 100027 99801.1 99384.9 98748.7 100000
        </DataArray>
        <DataArray type="Float32" Name="rho" NumberOfComponents="1" format="ascii">
          998.415 998.415 998.37 998.37 998.415 998.37 998.415 998.37 998.415 998.37 998.415 998.37
          998.415 998.37 998.415 998.37 998.415 998.37 998.415 998.37 998.423 998.371 998.496 998.385
          998.823 998.47 999.649 998.763 1001.05 999.419 1002.86 1000.49 1004.88 1001.86 1006.93 1003.34
          1008.98 1004.94 1014.78 1015.43 1022.35 1022.31 998.325 998.325 998.325 998.325 998.325 998.325
          998.325 998.325 998.325 998.325 998.326 998.327 998.343 998.421 998.651 999.146 1000.07 1001.75
          1004.47 1016.08 1022.26 998.281 998.281 998.281 998.281 998.281 998.281 998.281 998.281 998.281
          998.281 998.281 998.281 998.283 998.3 998.367 998.547 998.949 999.587 1003.96 1016.56 1022.22
          998.236 998.236 998.236 998.236 998.236 998.236 998.236 998.236 998.236 998.236 998.236 998.236
          998.236 998.239 998.252 998.3 998.44 998.722 1000.49 1016.31 1022.17 998.191 998.191 998.191
          998.191 998.191 998.191 998.191 998.191 998.191 998.191 998.191 998.191 998.191 998.191 998.193
          998.203 998.241 998.371 998.84 1014.38 1022.13
        </DataArray>
        <DataArray type="Float32" Name="mu" NumberOfComponents="1" format="ascii">
          0.000980804 0.000980804 0.000980804 0.000980804 0.000980804 0.000980804 0.000980804 0.000980804 0.000980804 0.000980804 0.000980804 0.000980804
          0.000980804 0.000980804 0.000980804 0.000980804 0.000980804 0.000980804 0.000980817 0.000980806 0.000980967 0.000980837 0.000981852 0.000981069
          0.000984678 0.000982046 0.000990241 0.000984561 0.000998068 0.000989083 0.00100693 0.000995351 0.00101574 0.00100241 0.00102399 0.00100929
          0.00103167 0.00101618 0.00105126 0.00105343 0.00107361 0.00107361 0.000980804 0.000980804 0.000980804 0.000980804 0.000980804 0.000980804
          0.000980804 0.000980804 0.000980804 0.000980804 0.000980808 0.000980852 0.000981114 0.000982007 0.000984035 0.000987603 0.000993261 0.00100208
          0.00101442 0.00105556 0.00107361 0.000980804 0.000980804 0.000980804 0.000980804 0.000980804 0.000980804 0.000980804 0.000980804 0.000980804
          0.000980804 0.000980804 0.000980812 0.000980871 0.000981141 0.000981908 0.000983553 0.00098657 0.000990682 0.00101243 0.00105717 0.00107361
          0.000980804 0.000980804 0.000980804 0.000980804 0.000980804 0.000980804 0.000980804 0.000980804 0.000980804 0.000980804 0.000980804 0.000980805
          0.000980815 0.000980874 0.000981091 0.000981676 0.000983026 0.000985266 0.000996082 0.00105654 0.00107361 0.000980804 0.000980804 0.000980804
          0.000980804 0.000980804 0.000980804 0.000980804 0.000980804 0.000980804 0.000980804 0.000980804 0.000980804 0.000980805 0.000980815 0.000980862
          0.000981025 0.000981523 0.000982809 0.000986441 0.00105069 0.00107361
        </DataArray>
        <DataArray type="Float32" Name="delp" NumberOfComponents="1" format="ascii">
          490500 490280 392400 392296 490188 392227 490142 392189 490117 392169 490104 392158
          490097 392153 490094 392150 490093 392149 490096 392151 490104 392157 490124 392167
          490171 392185 490263 392215 490416 392264 490637 392344 490919 392466 491247 392634
          491603 392812 491869 392810 490500 392400 294300 294265 294241 294226 294218 294213
          294210 294209 294208 294208 294209 294210 294209 294206 294200 294195 294203 294245
          294337 294376 294300 196200 196227 196248 196261 196267 196270 196271 196271 196270
          196268 196265 196258 196245 196222 196185 196129 196056 195978 195954 196058 196200
          98100 98201.2 98269.5 98305.6 98324.3 98333.6 98337.7 98338.8 98337.7 98334.3 98327.7 98315.8
          98295.4 98261.2 98206.6 98122.8 97999.8 97824.6 97619.5 97678.6 98100 0 233.013 325.135
          370.928 394.293 405.962 411.282 412.861 411.735 407.855 400.189 386.579 363.463 325.498 265.06
          171.289 27.4563 -198.938 -615.137 -1251.29 0
        </DataArray>
        <DataArray type="Float32" Name="x^H2O_liq" NumberOfComponents="1" format="ascii">
          1 1 1 1 1 1 1 1 1 1 1 1
          1 1 1 1 1 1 1 1 0.999996 0.999999 0.999963 0.999993
          0.999813 0.999954 0.999433 0.99982 0.99879 0.999518 0.997954 0.999025 0.997027 0.998393 0.99608 0.997714
          0.995135 0.996979 0.992453 0.992132 0.988943 0.988943 1 1 1 1 1 1
          1 1 1 1 1 0.999999 0.999992 0.999956 0.99985 0.999623 0.999197 0.998424
          0.997172 0.991812 0.988943 1 1 1 1 1 1 1 1 1
          1 1 1 0.999999 0.999991 0.99996 0.999878 0.999693 0.999399 0.997386 0.991569 0.988943
          1 1 1 1 1 1 1 1 1 1 1 1
          1 0.999999 0.999993 0.99997 0.999906 0.999777 0.998963 0.991664 0.988943 1 1 1
          1 1 1 1 1 1 1 1 1 1 1 0.999999
          0.999995 0.999977 0.999917 0.999701 0.992536 0.988943
        </DataArray>
        <DataArray type="Float32" Name="x^NaCl_liq" NumberOfComponents="1" format="ascii">
          0 3.50325e-44 0 1.47043e-39 3.95867e-42 6.83379e-38 2.12137e-38 5.47337e-36 1.30503e-32 1.21748e-32 7.81107e-27 6.14831e-27
          4.62113e-21 3.23784e-21 2.90651e-15 1.58245e-15 2.55165e-09 2.11751e-10 1.63673e-07 1.76732e-08 3.68961e-06 5.08019e-07 3.70325e-05 6.73723e-06
          0.000187426 4.57072e-05 0.000567289 0.00018041 0.00120963 0.000481808 0.00204618 0.000975108 0.00297342 0.00160697 0.00391965 0.00228589
          0.00486486 0.00302106 0.00754748 0.00786779 0.0110566 0.0110566 0 2.18534e-34 5.06184e-33 1.84654e-31 1.26949e-29 5.24168e-27
          1.05735e-21 1.49083e-16 5.90715e-12 8.15565e-10 3.85573e-08 8.12715e-07 8.17965e-06 4.39307e-05 0.000149628 0.000376991 0.000802674 0.00157572
          0.00282809 0.00818764 0.0110566 0 4.73893e-29 6.44667e-28 1.24675e-26 4.05964e-25 2.61015e-23 4.56597e-21 7.04024e-18 1.58166e-13
          3.12475e-11 2.4039e-09 8.1721e-08 1.23072e-06 9.04625e-06 3.94899e-05 0.000122443 0.000307101 0.000600568 0.00261428 0.00843106 0.0110566
          0 4.20055e-27 2.09455e-26 1.50263e-25 1.73513e-24 3.58853e-23 1.54184e-21 2.31176e-19 3.35141e-15 9.09194e-13 1.08751e-10 5.73654e-09
          1.26968e-07 1.28846e-06 7.42083e-06 2.9485e-05 9.4046e-05 0.000223371 0.00103714 0.00833577 0.0110566 0 4.39966e-27 1.29275e-26
          5.32498e-26 3.49023e-25 4.05997e-24 9.64813e-23 7.22098e-21 5.43655e-17 1.97277e-14 3.59236e-12 2.8968e-10 9.36687e-09 1.31968e-07 1.02086e-06
          5.37797e-06 2.32024e-05 8.27692e-05 0.000298609 0.00746363 0.0110566
        </DataArray>
        <DataArray type="Float32" Name="X^H2O_liq" NumberOfComponents="1" format="ascii">
          1 1 1 1 1 1 1 1 1 1 1 1
          1 1 1 1 1 1 0.999999 1 0.999988 0.999998 0.99988 0.999978
          0.999392 0.999852 0.998162 0.999415 0.996086 0.998439 0.993392 0.996844 0.990418 0.994806 0.987395 0.992622
          0.984388 0.990265 0.975923 0.974919 0.965 0.965 1 1 1 1 1 1
          1 1 1 1 1 0.999997 0.999973 0.999857 0.999515 0.998778 0.997401 0.994906
          0.990883 0.973918 0.965 1 1 1 1 1 1 1 1 1
          1 1 1 0.999996 0.999971 0.999872 0.999603 0.999004 0.998054 0.991569 0.973157 0.965
          1 1 1 1 1 1 1 1 1 1 1 1
          1 0.999996 0.999976 0.999904 0.999695 0.999276 0.996643 0.973455 0.965 1 1 1
          1 1 1 1 1 1 1 1 1 1 1 0.999997
          0.999983 0.999925 0.999732 0.999032 0.976186 0.965
        </DataArray>
        <DataArray type="Float32" Name="X^NaCl_liq" NumberOfComponents="1" format="ascii">
          0 1.13505e-43 0 4.77021e-39 1.28415e-41 2.21694e-37 6.88192e-38 1.77561e-35 4.23362e-32 3.9496e-32 2.53398e-26 1.99457e-26
          1.49913e-20 1.05038e-20 9.42898e-15 5.13361e-15 8.27776e-09 6.86939e-10 5.3097e-07 5.73334e-08 1.19693e-05 1.64806e-06 0.000120127 2.18558e-05
          0.000607772 0.000148263 0.001838 0.000585029 0.00391351 0.00156134 0.00660764 0.00315643 0.00958208 0.00519441 0.0126048 0.00737777
          0.0156116 0.00973459 0.0240769 0.0250809 0.035 0.035 0 7.08942e-34 1.64211e-32 5.99035e-31 4.11834e-29 1.70045e-26
          3.43012e-21 4.83638e-16 1.91633e-11 2.64576e-09 1.25083e-07 2.63651e-06 2.6535e-05 0.000142501 0.000485245 0.00122196 0.00259926 0.00509376
          0.00911672 0.0260822 0.035 0 1.53735e-28 2.09136e-27 4.04456e-26 1.31698e-24 8.46756e-23 1.48124e-20 2.28391e-17 5.13103e-13
          1.01369e-10 7.79847e-09 2.6511e-07 3.99255e-06 2.93462e-05 0.000128097 0.000397106 0.000995577 0.00194567 0.00843149 0.0268432 0.035
          0 1.36269e-26 6.7949e-26 4.87465e-25 5.62891e-24 1.16415e-22 5.00187e-21 7.49956e-19 1.08723e-14 2.9495e-12 3.52797e-10 1.86098e-08
          4.11897e-07 4.17988e-06 2.40734e-05 9.56455e-05 0.000305029 0.000724271 0.00335675 0.0265454 0.035 0 1.42729e-26 4.1938e-26
          1.72747e-25 1.13226e-24 1.31709e-23 3.12994e-22 2.34255e-20 1.76366e-16 6.39983e-14 1.16539e-11 9.39747e-10 3.03869e-08 4.28116e-07 3.31174e-06
          1.74464e-05 7.52666e-05 0.00026846 0.000968063 0.0238138 0.035
        </DataArray>
        <DataArray type="Float32" Name="velocity_liq (m/s)" NumberOfComponents="3" format="ascii">
          1.95007e-06 1.31006e-06 0 1.41186e-06 5.38212e-07 0 1.11801e-06 1.39317e-06 0 8.97607e-07 7.58631e-07 0
          6.63533e-07 2.10112e-07 0 5.21524e-07 3.65793e-07 0 3.47337e-07 1.06085e-07 0 2.81263e-07 1.90671e-07 0
          1.8509e-07 5.61618e-08 0 1.51302e-07 1.01541e-07 0 9.82302e-08 3.06981e-08 0 8.10827e-08 5.55402e-08 0
          4.92985e-08 1.82335e-08 0 4.15123e-08 3.2963e-08 0 1.75098e-08 1.35552e-08 0 1.59378e-08 2.44008e-08 0
          -1.11195e-08 1.50742e-08 0 -6.47591e-09 2.66429e-08 0 -5.13275e-08 2.51339e-08 0 -3.49655e-08 4.20556e-08 0
          -1.28957e-07 5.24957e-08 0 -7.94331e-08 8.00432e-08 0 -2.90006e-07 1.08553e-07 0 -1.5156e-07 1.53136e-07 0
          -5.84646e-07 1.86087e-07 0 -2.67809e-07 2.5776e-07 0 -1.02388e-06 2.53147e-07 0 -4.50376e-07 3.64051e-07 0
          -1.56023e-06 2.83198e-07 0 -7.17765e-07 4.39695e-07 0 -2.11414e-06 2.70711e-07 0 -1.0733e-06 4.69756e-07 0
          -2.59666e-06 2.11804e-07 0 -1.48787e-06 4.27346e-07 0 -2.91535e-06 1.06875e-07 0 -1.78425e-06 1.87714e-07 0
          -2.45564e-06 -5.66623e-07 0 -1.1068e-06 -1.32496e-06 0 4.42498e-06 -6.31432e-06 0 2.14198e-06 -8.80508e-06 0
          1.0739e-05 -1.65206e-05 0 4.63248e-06 -1.73059e-05 0 3.6237e-07 1.50857e-06 0 3.0634e-07 1.0351e-06 0
          1.97595e-07 5.742e-07 0 1.12735e-07 3.07409e-07 0 6.31391e-08 1.64375e-07 0 3.61631e-08 8.99083e-08 0
          2.10485e-08 5.3284e-08 0 1.15073e-08 3.91981e-08 0 3.89532e-09 4.18737e-08 0 -3.49978e-09 6.27127e-08 0
          -9.38326e-09 1.09743e-07 0 -8.09239e-09 1.94283e-07 0 5.85983e-09 3.18928e-07 0 2.49863e-08 4.66351e-07 0
          1.96737e-08 6.10132e-07 0 -5.81479e-08 7.32711e-07 0 -2.73469e-07 7.94329e-07 0 -6.47562e-07 4.91224e-07 0
          -6.3395e-07 -2.31963e-06 0 2.2878e-07 -1.19226e-05 0 8.55232e-07 -1.82766e-05 0 -2.89957e-07 1.54676e-06 0
          -2.53713e-07 1.05493e-06 0 -1.7081e-07 5.80283e-07 0 -9.35958e-08 3.0901e-07 0 -4.599e-08 1.64785e-07 0
          -1.94994e-08 8.99943e-08 0 -4.40775e-09 5.32273e-08 0 5.51153e-09 3.88808e-08 0 1.46631e-08 4.06551e-08 0
          2.75871e-08 5.84071e-08 0 5.09965e-08 9.65301e-08 0 9.53279e-08 1.61887e-07 0 1.73342e-07 2.59381e-07 0
          2.93291e-07 3.86859e-07 0 4.5023e-07 5.38046e-07 0 6.20801e-07 7.12108e-07 0 7.33961e-07 9.1716e-07 0
          5.4138e-07 9.35122e-07 0 -2.67039e-07 -1.96882e-06 0 -1.12291e-06 -1.22809e-05 0 -1.39158e-06 -1.83868e-05 0
          -1.10486e-06 1.50186e-06 0 -8.85761e-07 7.99639e-07 0 -5.08869e-07 3.75858e-07 0 -2.65875e-07 1.93267e-07 0
          -1.35137e-07 1.02205e-07 0 -6.47203e-08 5.56792e-08 0 -2.51342e-08 3.28712e-08 0 3.03528e-10 2.38841e-08 0
          2.21954e-08 2.46119e-08 0 4.9238e-08 3.4488e-08 0 9.09974e-08 5.52874e-08 0 1.59679e-07 9.01281e-08 0
          2.70567e-07 1.42257e-07 0 4.40628e-07 2.14002e-07 0 6.86385e-07 3.08248e-07 0 1.02331e-06 4.34471e-07 0
          1.47001e-06 6.35004e-07 0 1.92134e-06 9.58611e-07 0 1.18102e-06 -4.43578e-07 0 -2.16124e-06 -9.60854e-06 0
          -4.56541e-06 -1.75314e-05 0 -2.03971e-06 1.45105e-06 0 -1.45912e-06 5.80565e-07 0 -6.60441e-07 2.18075e-07 0
          -3.34278e-07 1.08073e-07 0 -1.69528e-07 5.6669e-08 0 -8.20513e-08 3.0804e-08 0 -3.3082e-08 1.8163e-08 0
          -1.76126e-09 1.31563e-08 0 2.48456e-08 1.34494e-08 0 5.69063e-08 1.86098e-08 0 1.04928e-07 2.94092e-08 0
          1.81669e-07 4.73292e-08 0 3.0318e-07 7.41757e-08 0 4.89398e-07 1.12034e-07 0 7.6592e-07 1.64476e-07 0
          1.17176e-06 2.41346e-07 0 1.79459e-06 3.81457e-07 0 2.93697e-06 7.60874e-07 0 4.19242e-06 4.94504e-07 0
          -2.51777e-06 -7.20456e-06 0 -9.72249e-06 -1.6751e-05 0
        </DataArray>
      </PointData>
      <CellData Scalars="process rank">
        <DataArray type="Float32" Name="process rank" NumberOfComponents="1" format="ascii">
          0 0 0 0 0 0 0 0 0 0 0 0
          0 0 0 0 0 0 0 0 0 0 0 0
          0 0 0 0 0 0 0 0 0 0 0 0
          0 0 0 0 0 0 0 0 0 0 0 0
          0 0 0 0 0 0 0 0 0 0 0 0
          0 0 0 0 0 0 0 0 0 0 0 0
          0 0 0 0 0 0 0 0 0 0 0 0
          0 0 0 0 0 0 0 0 0 0 0 0
          0 0 0 0
        </DataArray>
      </CellData>
      <Points>
        <DataArray type="Float32" Name="Coordinates" NumberOfComponents="3" format="ascii">
          0 0 0 10 0 0 0 10 0 10 10 0
          20 0 0 20 10 0 30 0 0 30 10 0
          40 0 0 40 10 0 50 0 0 50 10 0
          60 0 0 60 10 0 70 0 0 70 10 0
          80 0 0 80 10 0 90 0 0 90 10 0
          100 0 0 100 10 0 110 0 0 110 10 0
          120 0 0 120 10 0 130 0 0 130 10 0
          140 0 0 140 10 0 150 0 0 150 10 0
          160 0 0 160 10 0 170 0 0 170 10 0
          180 0 0 180 10 0 190 0 0 190 10 0
          200 0 0 200 10 0 0 20 0 10 20 0
          20 20 0 30 20 0 40 20 0 50 20 0
          60 20 0 70 20 0 80 20 0 90 20 0
          100 20 0 110 20 0 120 20 0 130 20 0
          140 20 0 150 20 0 160 20 0 170 20 0
          180 20 0 190 20 0 200 20 0 0 30 0
          10 30 0 20 30 0 30 30 0 40 30 0
          50 30 0 60 30 0 70 30 0 80 30 0
          90 30 0 100 30 0 110 30 0 120 30 0
          130 30 0 140 30 0 150 30 0 160 30 0
          170 30 0 180 30 0 190 30 0 200 30 0
          0 40 0 10 40 0 20 40 0 30 40 0
          40 40 0 50 40 0 60 40 0 70 40 0
          80 40 0 90 40 0 100 40 0 110 40 0
          120 40 0 130 40 0 140 40 0 150 40 0
          160 40 0 170 40 0 180 40 0 190 40 0
          200 40 0 0 50 0 10 50 0 20 50 0
          30 50 0 40 50 0 50 50 0 60 50 0
          70 50 0 80 50 0 90 50 0 100 50 0
          110 50 0 120 50 0 130 50 0 140 50 0
          150 50 0 160 50 0 170 50 0 180 50 0
          190 50 0 200 50 0
        </DataArray>
      </Points>
      <Cells>
        <DataArray type="Int32" Name="connectivity" NumberOfComponents="1" format="ascii">
          0 1 3 2 1 4 5 3 4 6 7 5
          6 8 9 7 8 10 11 9 10 12 13 11
          12 14 15 13 14 16 17 15 16 18 19 17
          18 20 21 19 20 22 23 21 22 24 25 23
          24 26 27 25 26 28 29 27 28 30 31 29
          30 32 33 31 32 34 35 33 34 36 37 35
          36 38 39 37 38 40 41 39 2 3 43 42
          3 5 44 43 5 7 45 44 7 9 46 45
          9 11 47 46 11 13 48 47 13 15 49 48
          15 17 50 49 17 19 51 50 19 21 52 51
          21 23 53 52 23 25 54 53 25 27 55 54
          27 29 56 55 29 31 57 56 31 33 58 57
          33 35 59 58 35 37 60 59 37 39 61 60
          39 41 62 61 42 43 64 63 43 44 65 64
          44 45 66 65 45 46 67 66 46 47 68 67
          47 48 69 68 48 49 70 69 49 50 71 70
          50 51 72 71 51 52 73 72 52 53 74 73
          53 54 75 74 54 55 76 75 55 56 77 76
          56 57 78 77 57 58 79 78 58 59 80 79
          59 60 81 80 60 61 82 81 61 62 83 82
          63 64 85 84 64 65 86 85 65 66 87 86
          66 67 88 87 67 68 89 88 68 69 90 89
          69 70 91 90 70 71 92 91 71 72 93 92
          72 73 94 93 73 74 95 94 74 75 96 95
          75 76 97 96 76 77 98 97 77 78 99 98
          78 79 100 99 79 80 101 100 80 81 102 101
          81 82 103 102 82 83 104 103 84 85 106 105
          85 86 107 106 86 87 108 107 87 88 109 108
          88 89 110 109 89 90 111 110 90 91 112 111
          91 92 113 112 92 93 114 113 93 94 115 114
          94 95 116 115 95 96 117 116 96 97 118 117
          97 98 119 118 98 99 120 119 99 100 121 120
          100 101 122 121 101 102 123 122 102 103 124 123
          103 104 125 124
        </DataArray>
        <DataArray type="Int32" Name="offsets" NumberOfComponents="1" format="ascii">
          4 8 12 16 20 24 28 32 36 40 44 48
          52 56 60 64 68 72 76 80 84 88 92 96
          100 104 108 112 116 120 124 128 132 136 140 144
          148 152 156 160 164 168 172 176 180 184 188 192
          196 200 204 208 212 216 220 224 228 232 236 240
          244 248 252 256 260 264 268 272 276 280 284 288
          292 296 300 304 308 312 316 320 324 328 332 336
          340 344 348 352 356 360 364 368 372 376 380 384
          388 392 396 400
        </DataArray>
        <DataArray type="UInt8" Name="types" NumberOfComponents="1" format="ascii">
          9 9 9 9 9 9 9 9 9 9 9 9
          9 9 9 9 9 9 9 9 9 9 9 9
          9 9 9 9 9 9 9 9 9 9 9 9
          9 9 9 9 9 9 9 9 9 9 9 9
          9 9 9 9 9 9 9 9 9 9 9 9
          9 9 9 9 9 9 9 9 9 9 9 9
          9 9 9 9 9 9 9 9 9 9 9 9
          9 9 9 9 9 9 9 9 9 9 9 9
          9 9 9 9
        </DataArray>
      </Cells>
    </Piece>
  </UnstructuredGrid>
</VTKFile>
