<?xml version="1.0"?>
<VTKFile type="UnstructuredGrid" version="0.1" byte_order="LittleEndian">
  <UnstructuredGrid>
    <Piece NumberOfCells="100" NumberOfPoints="121">
      <PointData Scalars="p">
        <DataArray type="Float32" Name="p" NumberOfComponents="1" format="ascii">
          100000 1.24072e+06 -1.04072e+06 100000 2.6305e+06 1.55452e+06 4.13529e+06 3.19796e+06 5.53808e+06 4.69269e+06 6.66643e+06 5.84341e+06
          7.45365e+06 6.62732e+06 7.91318e+06 7.04425e+06 8.12384e+06 7.18575e+06 8.19706e+06 7.21704e+06 8.2132e+06 7.22549e+06 -2.4305e+06 -1.35452e+06
          100000 2.57578e+06 4.19043e+06 5.39504e+06 6.17581e+06 6.51896e+06 6.28733e+06 6.25484e+06 6.25379e+06 -3.93529e+06 -2.99796e+06 -2.37578e+06
          100000 2.57651e+06 4.04084e+06 4.98735e+06 5.43331e+06 5.27427e+06 5.28578e+06 5.28474e+06 -5.33808e+06 -4.49269e+06 -3.99043e+06 -2.37651e+06
          100000 1.8383e+06 3.07381e+06 3.95787e+06 4.31876e+06 4.3135e+06 4.31476e+06 -6.46643e+06 -5.64341e+06 -5.19504e+06 -3.84084e+06 -1.6383e+06
          100000 1.50469e+06 2.73511e+06 3.33092e+06 3.34248e+06 3.34855e+06 -7.25365e+06 -6.42732e+06 -5.97581e+06 -4.78735e+06 -2.87381e+06 -1.30469e+06
          100000 1.54703e+06 2.33338e+06 2.37887e+06 2.39919e+06 -7.71318e+06 -6.84425e+06 -6.31896e+06 -5.23331e+06 -3.75787e+06 -2.53511e+06 -1.34703e+06
          100000 1.33109e+06 1.43949e+06 1.50685e+06 -7.92384e+06 -6.98575e+06 -6.08733e+06 -5.07427e+06 -4.11876e+06 -3.13092e+06 -2.13338e+06 -1.13109e+06
          100000 623614 760454 -7.99706e+06 -7.01704e+06 -6.05484e+06 -5.08578e+06 -4.1135e+06 -3.14248e+06 -2.17887e+06 -1.23949e+06 -423614
          100000 269152 -8.0132e+06 -7.02549e+06 -6.05379e+06 -5.08474e+06 -4.11476e+06 -3.14855e+06 -2.19919e+06 -1.30685e+06 -560454 -69152.5
          100000
        </DataArray>
      </PointData>
      <CellData Scalars="process rank">
        <DataArray type="Float32" Name="process rank" NumberOfComponents="1" format="ascii">
          0 0 0 0 0 0 0 0 0 0 0 0
          0 0 0 0 0 0 0 0 0 0 0 0
          0 0 0 0 0 0 0 0 0 0 0 0
          0 0 0 0 0 0 0 0 0 0 0 0
          0 0 0 0 0 0 0 0 0 0 0 0
          0 0 0 0 0 0 0 0 0 0 0 0
          0 0 0 0 0 0 0 0 0 0 0 0
          0 0 0 0 0 0 0 0 0 0 0 0
          0 0 0 0
        </DataArray>
      </CellData>
      <Points>
        <DataArray type="Float32" Name="Coordinates" NumberOfComponents="3" format="ascii">
          0 0 0 0.1 0 0 0 0.1 0 0.1 0.1 0
          0.2 0 0 0.2 0.1 0 0.3 0 0 0.3 0.1 0
          0.4 0 0 0.4 0.1 0 0.5 0 0 0.5 0.1 0
          0.6 0 0 0.6 0.1 0 0.7 0 0 0.7 0.1 0
          0.8 0 0 0.8 0.1 0 0.9 0 0 0.9 0.1 0
          1 0 0 1 0.1 0 0 0.2 0 0.1 0.2 0
          0.2 0.2 0 0.3 0.2 0 0.4 0.2 0 0.5 0.2 0
          0.6 0.2 0 0.7 0.2 0 0.8 0.2 0 0.9 0.2 0
          1 0.2 0 0 0.3 0 0.1 0.3 0 0.2 0.3 0
          0.3 0.3 0 0.4 0.3 0 0.5 0.3 0 0.6 0.3 0
          0.7 0.3 0 0.8 0.3 0 0.9 0.3 0 1 0.3 0
          0 0.4 0 0.1 0.4 0 0.2 0.4 0 0.3 0.4 0
          0.4 0.4 0 0.5 0.4 0 0.6 0.4 0 0.7 0.4 0
          0.8 0.4 0 0.9 0.4 0 1 0.4 0 0 0.5 0
          0.1 0.5 0 0.2 0.5 0 0.3 0.5 0 0.4 0.5 0
          0.5 0.5 0 0.6 0.5 0 0.7 0.5 0 0.8 0.5 0
          0.9 0.5 0 1 0.5 0 0 0.6 0 0.1 0.6 0
          0.2 0.6 0 0.3 0.6 0 0.4 0.6 0 0.5 0.6 0
          0.6 0.6 0 0.7 0.6 0 0.8 0.6 0 0.9 0.6 0
          1 0.6 0 0 0.7 0 0.1 0.7 0 0.2 0.7 0
          0.3 0.7 0 0.4 0.7 0 0.5 0.7 0 0.6 0.7 0
          0.7 0.7 0 0.8 0.7 0 0.9 0.7 0 1 0.7 0
          0 0.8 0 0.1 0.8 0 0.2 0.8 0 0.3 0.8 0
          0.4 0.8 0 0.5 0.8 0 0.6 0.8 0 0.7 0.8 0
          0.8 0.8 0 0.9 0.8 0 1 0.8 0 0 0.9 0
          0.1 0.9 0 0.2 0.9 0 0.3 0.9 0 0.4 0.9 0
          0.5 0.9 0 0.6 0.9 0 0.7 0.9 0 0.8 0.9 0
          0.9 0.9 0 1 0.9 0 0 1 0 0.1 1 0
          0.2 1 0 0.3 1 0 0.4 1 0 0.5 1 0
          0.6 1 0 0.7 1 0 0.8 1 0 0.9 1 0
          1 1 0
        </DataArray>
      </Points>
      <Cells>
        <DataArray type="Int32" Name="connectivity" NumberOfComponents="1" format="ascii">
          0 1 3 2 1 4 5 3 4 6 7 5
          6 8 9 7 8 10 11 9 10 12 13 11
          12 14 15 13 14 16 17 15 16 18 19 17
          18 20 21 19 2 3 23 22 3 5 24 23
          5 7 25 24 7 9 26 25 9 11 27 26
          11 13 28 27 13 15 29 28 15 17 30 29
          17 19 31 30 19 21 32 31 22 23 34 33
          23 24 35 34 24 25 36 35 25 26 37 36
          26 27 38 37 27 28 39 38 28 29 40 39
          29 30 41 40 30 31 42 41 31 32 43 42
          33 34 45 44 34 35 46 45 35 36 47 46
          36 37 48 47 37 38 49 48 38 39 50 49
          39 40 51 50 40 41 52 51 41 42 53 52
          42 43 54 53 44 45 56 55 45 46 57 56
          46 47 58 57 47 48 59 58 48 49 60 59
          49 50 61 60 50 51 62 61 51 52 63 62
          52 53 64 63 53 54 65 64 55 56 67 66
          56 57 68 67 57 58 69 68 58 59 70 69
          59 60 71 70 60 61 72 71 61 62 73 72
          62 63 74 73 63 64 75 74 64 65 76 75
          66 67 78 77 67 68 79 78 68 69 80 79
          69 70 81 80 70 71 82 81 71 72 83 82
          72 73 84 83 73 74 85 84 74 75 86 85
          75 76 87 86 77 78 89 88 78 79 90 89
          79 80 91 90 80 81 92 91 81 82 93 92
          82 83 94 93 83 84 95 94 84 85 96 95
          85 86 97 96 86 87 98 97 88 89 100 99
          89 90 101 100 90 91 102 101 91 92 103 102
          92 93 104 103 93 94 105 104 94 95 106 105
          95 96 107 106 96 97 108 107 97 98 109 108
          99 100 111 110 100 101 112 111 101 102 113 112
          102 103 114 113 103 104 115 114 104 105 116 115
          105 106 117 116 106 107 118 117 107 108 119 118
          108 109 120 119
        </DataArray>
        <DataArray type="Int32" Name="offsets" NumberOfComponents="1" format="ascii">
          4 8 12 16 20 24 28 32 36 40 44 48
          52 56 60 64 68 72 76 80 84 88 92 96
          100 104 108 112 116 120 124 128 132 136 140 144
          148 152 156 160 164 168 172 176 180 184 188 192
          196 200 204 208 212 216 220 224 228 232 236 240
          244 248 252 256 260 264 268 272 276 280 284 288
          292 296 300 304 308 312 316 320 324 328 332 336
          340 344 348 352 356 360 364 368 372 376 380 384
          388 392 396 400
        </DataArray>
        <DataArray type="UInt8" Name="types" NumberOfComponents="1" format="ascii">
          9 9 9 9 9 9 9 9 9 9 9 9
          9 9 9 9 9 9 9 9 9 9 9 9
          9 9 9 9 9 9 9 9 9 9 9 9
          9 9 9 9 9 9 9 9 9 9 9 9
          9 9 9 9 9 9 9 9 9 9 9 9
          9 9 9 9 9 9 9 9 9 9 9 9
          9 9 9 9 9 9 9 9 9 9 9 9
          9 9 9 9 9 9 9 9 9 9 9 9
          9 9 9 9
        </DataArray>
      </Cells>
    </Piece>
  </UnstructuredGrid>
</VTKFile>
