<?xml version="1.0"?>
<VTKFile type="UnstructuredGrid" version="0.1" byte_order="LittleEndian">
  <UnstructuredGrid>
    <Piece NumberOfCells="8000" NumberOfPoints="9261">
      <CellData Scalars="p">
        <DataArray type="Float32" Name="p" NumberOfComponents="1" format="ascii">
          -0.0482007 -0.0396787 -0.0312708 -0.0231244 -0.0154252 -0.0083977 -0.00229793 0.00260272 0.00604629 0.00782618 0.00782618 0.00604629
          0.00260272 -0.00229793 -0.0083977 -0.0154252 -0.0231244 -0.0312708 -0.0396787 -0.0482007 -0.0396787 -0.0302112 -0.020742 -0.0114286
          -0.0024818 0.0058276 0.0131693 0.0191692 0.0234473 0.0256812 0.0256812 0.0234473 0.0191692 0.0131693 0.0058276 -0.0024818
          -0.0114286 -0.020742 -0.0302112 -0.0396787 -0.0312708 -0.020742 -0.0100527 0.000639554 0.011106 0.0210282 0.0299858 0.0374638
          0.0428979 0.0457742 0.0457742 0.0428979 0.0374638 0.0299858 0.0210282 0.011106 0.000639554 -0.0100527 -0.020742 -0.0312708
          -0.0231244 -0.0114286 0.000639554 0.0129407 0.0252465 0.0372023 0.0482899 0.0578078 0.0649079 0.0687424 0.0687424 0.0649079
          0.0578078 0.0482899 0.0372023 0.0252465 0.0129407 0.000639554 -0.0114286 -0.0231244 -0.0154252 -0.0024818 0.011106 0.0252465
          0.039748 0.0542569 0.0681751 0.0805765 0.0901838 0.0955399 0.0955399 0.0901838 0.0805765 0.0681751 0.0542569 0.039748
          0.0252465 0.011106 -0.0024818 -0.0154252 -0.0083977 0.0058276 0.0210282 0.0372023 0.0542569 0.0719199 0.0895951 0.106152
          0.119711 0.127682 0.127682 0.119711 0.106152 0.0895951 0.0719199 0.0542569 0.0372023 0.0210282 0.0058276 -0.0083977
          -0.00229793 0.0131693 0.0299858 0.0482899 0.0681751 0.0895951 0.112163 0.134753 0.154834 0.167769 0.167769 0.154834
          0.134753 0.112163 0.0895951 0.0681751 0.0482899 0.0299858 0.0131693 -0.00229793 0.00260272 0.0191692 0.0374638 0.0578078
          0.0805765 0.106152 0.134753 0.165916 0.197128 0.220743 0.220743 0.197128 0.165916 0.134753 0.106152 0.0805765
          0.0578078 0.0374638 0.0191692 0.00260272 0.00604629 0.0234473 0.0428979 0.0649079 0.0901838 0.119711 0.154834 0.197128
          0.247115 0.297231 0.297231 0.247115 0.197128 0.154834 0.119711 0.0901838 0.0649079 0.0428979 0.0234473 0.00604629
          0.00782618 0.0256812 0.0457742 0.0687424 0.0955399 0.127682 0.167769 0.220743 0.297231 0.423722 0.423722 0.297231
          0.220743 0.167769 0.127682 0.0955399 0.0687424 0.0457742 0.0256812 0.00782618 0.00782618 0.0256812 0.0457742 0.0687424
          0.0955399 0.127682 0.167769 0.220743 0.297231 0.423722 0.423722 0.297231 0.220743 0.167769 0.127682 0.0955399
          0.0687424 0.0457742 0.0256812 0.00782618 0.00604629 0.0234473 0.0428979 0.0649079 0.0901838 0.119711 0.154834 0.197128
          0.247115 0.297231 0.297231 0.247115 0.197128 0.154834 0.119711 0.0901838 0.0649079 0.0428979 0.0234473 0.00604629
          0.00260272 0.0191692 0.0374638 0.0578078 0.0805765 0.106152 0.134753 0.165916 0.197128 0.220743 0.220743 0.197128
          0.165916 0.134753 0.106152 0.0805765 0.0578078 0.0374638 0.0191692 0.00260272 -0.00229793 0.0131693 0.0299858 0.0482899
          0.0681751 0.0895951 0.112163 0.134753 0.154834 0.167769 0.167769 0.154834 0.134753 0.112163 0.0895951 0.0681751
          0.0482899 0.0299858 0.0131693 -0.00229793 -0.0083977 0.0058276 0.0210282 0.0372023 0.0542569 0.0719199 0.0895951 0.106152
          0.119711 0.127682 0.127682 0.119711 0.106152 0.0895951 0.0719199 0.0542569 0.0372023 0.0210282 0.0058276 -0.0083977
          -0.0154252 -0.0024818 0.011106 0.0252465 0.039748 0.0542569 0.0681751 0.0805765 0.0901838 0.0955399 0.0955399 0.0901838
          0.0805765 0.0681751 0.0542569 0.039748 0.0252465 0.011106 -0.0024818 -0.0154252 -0.0231244 -0.0114286 0.000639554 0.0129407
          0.0252465 0.0372023 0.0482899 0.0578078 0.0649079 0.0687424 0.0687424 0.0649079 0.0578078 0.0482899 0.0372023 0.0252465
          0.0129407 0.000639554 -0.0114286 -0.0231244 -0.0312708 -0.020742 -0.0100527 0.000639554 0.011106 0.0210282 0.0299858 0.0374638
          0.0428979 0.0457742 0.0457742 0.0428979 0.0374638 0.0299858 0.0210282 0.011106 0.000639554 -0.0100527 -0.020742 -0.0312708
          -0.0396787 -0.0302112 -0.020742 -0.0114286 -0.0024818 0.0058276 0.0131693 0.0191692 0.0234473 0.0256812 0.0256812 0.0234473
          0.0191692 0.0131693 0.0058276 -0.0024818 -0.0114286 -0.020742 -0.0302112 -0.0396787 -0.0482007 -0.0396787 -0.0312708 -0.0231244
          -0.0154252 -0.0083977 -0.00229793 0.00260272 0.00604629 0.00782618 0.00782618 0.00604629 0.00260272 -0.00229793 -0.0083977 -0.0154252
          -0.0231244 -0.0312708 -0.0396787 -0.0482007 -0.0505508 -0.0416112 -0.0327912 -0.0242457 -0.0161693 -0.00879762 -0.00239931 0.00274097
          0.00635274 0.00821949 0.00821949 0.00635274 0.00274097 -0.00239931 -0.00879762 -0.0161693 -0.0242457 -0.0327912 -0.0416112 -0.0505508
          -0.0416112 -0.0316767 -0.0217408 -0.0119688 -0.00258179 0.0061359 0.0138375 0.0201307 0.0246173 0.0269597 0.0269597 0.0246173
          0.0201307 0.0138375 0.0061359 -0.00258179 -0.0119688 -0.0217408 -0.0316767 -0.0416112 -0.0327912 -0.0217408 -0.0105227 0.000697885
          0.0116809 0.0220919 0.0314892 0.0393326 0.0450307 0.0480461 0.0480461 0.0450307 0.0393326 0.0314892 0.0220919 0.0116809
          0.000697885 -0.0105227 -0.0217408 -0.0327912 -0.0242457 -0.0119688 0.000697885 0.0136085 0.0265232 0.0390693 0.0507021 0.0606851
          0.0681294 0.0721484 0.0721484 0.0681294 0.0606851 0.0507021 0.0390693 0.0265232 0.0136085 0.000697885 -0.0119688 -0.0242457
          -0.0161693 -0.00258179 0.0116809 0.0265232 0.0417439 0.0569708 0.0715751 0.0845834 0.0946555 0.100267 0.100267 0.0946555
          0.0845834 0.0715751 0.0569708 0.0417439 0.0265232 0.0116809 -0.00258179 -0.0161693 -0.00879762 0.0061359 0.0220919 0.0390693
          0.0569708 0.0755102 0.0940597 0.11143 0.125645 0.133993 0.133993 0.125645 0.11143 0.0940597 0.0755102 0.0569708
          0.0390693 0.0220919 0.0061359 -0.00879762 -0.00239931 0.0138375 0.0314892 0.0507021 0.0715751 0.0940597 0.117748 0.141454
          0.162511 0.176056 0.176056 0.162511 0.141454 0.117748 0.0940597 0.0715751 0.0507021 0.0314892 0.0138375 -0.00239931
          0.00274097 0.0201307 0.0393326 0.0606851 0.0845834 0.11143 0.141454 0.174166 0.206912 0.231643 0.231643 0.206912
          0.174166 0.141454 0.11143 0.0845834 0.0606851 0.0393326 0.0201307 0.00274097 0.00635274 0.0246173 0.0450307 0.0681294
          0.0946555 0.125645 0.162511 0.206912 0.259392 0.311936 0.311936 0.259392 0.206912 0.162511 0.125645 0.0946555
          0.0681294 0.0450307 0.0246173 0.00635274 0.00821949 0.0269597 0.0480461 0.0721484 0.100267 0.133993 0.176056 0.231643
          0.311936 0.444802 0.444802 0.311936 0.231643 0.176056 0.133993 0.100267 0.0721484 0.0480461 0.0269597 0.00821949
          0.00821949 0.0269597 0.0480461 0.0721484 0.100267 0.133993 0.176056 0.231643 0.311936 0.444802 0.444802 0.311936
          0.231643 0.176056 0.133993 0.100267 0.0721484 0.0480461 0.0269597 0.00821949 0.00635274 0.0246173 0.0450307 0.0681294
          0.0946555 0.125645 0.162511 0.206912 0.259392 0.311936 0.311936 0.259392 0.206912 0.162511 0.125645 0.0946555
          0.0681294 0.0450307 0.0246173 0.00635274 0.00274097 0.0201307 0.0393326 0.0606851 0.0845834 0.11143 0.141454 0.174166
          0.206912 0.231643 0.231643 0.206912 0.174166 0.141454 0.11143 0.0845834 0.0606851 0.0393326 0.0201307 0.00274097
          -0.00239931 0.0138375 0.0314892 0.0507021 0.0715751 0.0940597 0.117748 0.141454 0.162511 0.176056 0.176056 0.162511
          0.141454 0.117748 0.0940597 0.0715751 0.0507021 0.0314892 0.0138375 -0.00239931 -0.00879762 0.0061359 0.0220919 0.0390693
          0.0569708 0.0755102 0.0940597 0.11143 0.125645 0.133993 0.133993 0.125645 0.11143 0.0940597 0.0755102 0.0569708
          0.0390693 0.0220919 0.0061359 -0.00879762 -0.0161693 -0.00258179 0.0116809 0.0265232 0.0417439 0.0569708 0.0715751 0.0845834
          0.0946555 0.100267 0.100267 0.0946555 0.0845834 0.0715751 0.0569708 0.0417439 0.0265232 0.0116809 -0.00258179 -0.0161693
          -0.0242457 -0.0119688 0.000697885 0.0136085 0.0265232 0.0390693 0.0507021 0.0606851 0.0681294 0.0721484 0.0721484 0.0681294
          0.0606851 0.0507021 0.0390693 0.0265232 0.0136085 0.000697885 -0.0119688 -0.0242457 -0.0327912 -0.0217408 -0.0105227 0.000697885
          0.0116809 0.0220919 0.0314892 0.0393326 0.0450307 0.0480461 0.0480461 0.0450307 0.0393326 0.0314892 0.0220919 0.0116809
          0.000697885 -0.0105227 -0.0217408 -0.0327912 -0.0416112 -0.0316767 -0.0217408 -0.0119688 -0.00258179 0.0061359 0.0138375 0.0201307
          0.0246173 0.0269597 0.0269597 0.0246173 0.0201307 0.0138375 0.0061359 -0.00258179 -0.0119688 -0.0217408 -0.0316767 -0.0416112
          -0.0505508 -0.0416112 -0.0327912 -0.0242457 -0.0161693 -0.00879762 -0.00239931 0.00274097 0.00635274 0.00821949 0.00821949 0.00635274
          0.00274097 -0.00239931 -0.00879762 -0.0161693 -0.0242457 -0.0327912 -0.0416112 -0.0505508 -0.0529011 -0.043544 -0.0343123 -0.0253678
          -0.0169146 -0.00919893 -0.00250229 0.00287748 0.00665739 0.00861099 0.00861099 0.00665739 0.00287748 -0.00250229 -0.00919893 -0.0169146
          -0.0253678 -0.0343123 -0.043544 -0.0529011 -0.043544 -0.0331429 -0.0227407 -0.0125103 -0.00268324 0.00644261 0.0145042 0.0210908
          0.0257862 0.0282373 0.0282373 0.0257862 0.0210908 0.0145042 0.00644261 -0.00268324 -0.0125103 -0.0227407 -0.0331429 -0.043544
          -0.0343123 -0.0227407 -0.0109941 0.000754628 0.012254 0.0231536 0.0329908 0.0412 0.0471628 0.0503178 0.0503178 0.0471628
          0.0412 0.0329908 0.0231536 0.012254 0.000754628 -0.0109941 -0.0227407 -0.0343123 -0.0253678 -0.0125103 0.000754628 0.0142743
          0.0277975 0.0409336 0.0531118 0.0635607 0.0713504 0.0755548 0.0755548 0.0713504 0.0635607 0.0531118 0.0409336 0.0277975
          0.0142743 0.000754628 -0.0125103 -0.0253678 -0.0169146 -0.00268324 0.012254 0.0277975 0.0437365 0.059681 0.0749712 0.0885873
          0.0991265 0.104997 0.104997 0.0991265 0.0885873 0.0749712 0.059681 0.0437365 0.0277975 0.012254 -0.00268324 -0.0169146
          -0.00919893 0.00644261 0.0231536 0.0409336 0.059681 0.0790953 0.0985182 0.116702 0.131577 0.140307 0.140307 0.131577
          0.116702 0.0985182 0.0790953 0.059681 0.0409336 0.0231536 0.00644261 -0.00919893 -0.00250229 0.0145042 0.0329908 0.0531118
          0.0749712 0.0985182 0.123324 0.148144 0.170181 0.184347 0.184347 0.170181 0.148144 0.123324 0.0985182 0.0749712
          0.0531118 0.0329908 0.0145042 -0.00250229 0.00287748 0.0210908 0.0412 0.0635607 0.0885873 0.116702 0.148144 0.1824
          0.21668 0.24255 0.24255 0.21668 0.1824 0.148144 0.116702 0.0885873 0.0635607 0.0412 0.0210908 0.00287748
          0.00665739 0.0257862 0.0471628 0.0713504 0.0991265 0.131577 0.170181 0.21668 0.271636 0.326633 0.326633 0.271636
          0.21668 0.170181 0.131577 0.0991265 0.0713504 0.0471628 0.0257862 0.00665739 0.00861099 0.0282373 0.0503178 0.0755548
          0.104997 0.140307 0.184347 0.24255 0.326633 0.46578 0.46578 0.326633 0.24255 0.184347 0.140307 0.104997
          0.0755548 0.0503178 0.0282373 0.00861099 0.00861099 0.0282373 0.0503178 0.0755548 0.104997 0.140307 0.184347 0.24255
          0.326633 0.46578 0.46578 0.326633 0.24255 0.184347 0.140307 0.104997 0.0755548 0.0503178 0.0282373 0.00861099
          0.00665739 0.0257862 0.0471628 0.0713504 0.0991265 0.131577 0.170181 0.21668 0.271636 0.326633 0.326633 0.271636
          0.21668 0.170181 0.131577 0.0991265 0.0713504 0.0471628 0.0257862 0.00665739 0.00287748 0.0210908 0.0412 0.0635607
          0.0885873 0.116702 0.148144 0.1824 0.21668 0.24255 0.24255 0.21668 0.1824 0.148144 0.116702 0.0885873
          0.0635607 0.0412 0.0210908 0.00287748 -0.00250229 0.0145042 0.0329908 0.0531118 0.0749712 0.0985182 0.123324 0.148144
          0.170181 0.184347 0.184347 0.170181 0.148144 0.123324 0.0985182 0.0749712 0.0531118 0.0329908 0.0145042 -0.00250229
          -0.00919893 0.00644261 0.0231536 0.0409336 0.059681 0.0790953 0.0985182 0.116702 0.131577 0.140307 0.140307 0.131577
          0.116702 0.0985182 0.0790953 0.059681 0.0409336 0.0231536 0.00644261 -0.00919893 -0.0169146 -0.00268324 0.012254 0.0277975
          0.0437365 0.059681 0.0749712 0.0885873 0.0991265 0.104997 0.104997 0.0991265 0.0885873 0.0749712 0.059681 0.0437365
          0.0277975 0.012254 -0.00268324 -0.0169146 -0.0253678 -0.0125103 0.000754628 0.0142743 0.0277975 0.0409336 0.0531118 0.0635607
          0.0713504 0.0755548 0.0755548 0.0713504 0.0635607 0.0531118 0.0409336 0.0277975 0.0142743 0.000754628 -0.0125103 -0.0253678
          -0.0343123 -0.0227407 -0.0109941 0.000754628 0.012254 0.0231536 0.0329908 0.0412 0.0471628 0.0503178 0.0503178 0.0471628
          0.0412 0.0329908 0.0231536 0.012254 0.000754628 -0.0109941 -0.0227407 -0.0343123 -0.043544 -0.0331429 -0.0227407 -0.0125103
          -0.00268324 0.00644261 0.0145042 0.0210908 0.0257862 0.0282373 0.0282373 0.0257862 0.0210908 0.0145042 0.00644261 -0.00268324
          -0.0125103 -0.0227407 -0.0331429 -0.043544 -0.0529011 -0.043544 -0.0343123 -0.0253678 -0.0169146 -0.00919893 -0.00250229 0.00287748
          0.00665739 0.00861099 0.00861099 0.00665739 0.00287748 -0.00250229 -0.00919893 -0.0169146 -0.0253678 -0.0343123 -0.043544 -0.0529011
          -0.0552515 -0.0454771 -0.0358338 -0.0264905 -0.0176605 -0.00960106 -0.00260616 0.00301307 0.00696112 0.00900157 0.00900157 0.00696112
          0.00301307 -0.00260616 -0.00960106 -0.0176605 -0.0264905 -0.0358338 -0.0454771 -0.0552515 -0.0454771 -0.0346096 -0.0237413 -0.0130527
          -0.00278587 0.00674802 0.0151696 0.0220498 0.0269541 0.0295141 0.0295141 0.0269541 0.0220498 0.0151696 0.00674802 -0.00278587
          -0.0130527 -0.0237413 -0.0346096 -0.0454771 -0.0358338 -0.0237413 -0.0114665 0.000810009 0.0128255 0.0242135 0.0344907 0.0430662
          0.0492942 0.0525892 0.0525892 0.0492942 0.0430662 0.0344907 0.0242135 0.0128255 0.000810009 -0.0114665 -0.0237413 -0.0358338
          -0.0264905 -0.0130527 0.000810009 0.0149384 0.0290697 0.0427956 0.0555193 0.0664345 0.0745706 0.0789612 0.0789612 0.0745706
          0.0664345 0.0555193 0.0427956 0.0290697 0.0149384 0.000810009 -0.0130527 -0.0264905 -0.0176605 -0.00278587 0.0128255 0.0290697
          0.0457265 0.0623879 0.078364 0.0925885 0.103596 0.109726 0.109726 0.103596 0.0925885 0.078364 0.0623879 0.0457265
          0.0290697 0.0128255 -0.00278587 -0.0176605 -0.00960106 0.00674802 0.0242135 0.0427956 0.0623879 0.0826763 0.102972 0.121969
          0.137506 0.146622 0.146622 0.137506 0.121969 0.102972 0.0826763 0.0623879 0.0427956 0.0242135 0.00674802 -0.00960106
          -0.00260616 0.0151696 0.0344907 0.0555193 0.078364 0.102972 0.128894 0.154827 0.177846 0.192638 0.192638 0.177846
          0.154827 0.128894 0.102972 0.078364 0.0555193 0.0344907 0.0151696 -0.00260616 0.00301307 0.0220498 0.0430662 0.0664345
          0.0925885 0.121969 0.154827 0.190622 0.226436 0.253455 0.253455 0.226436 0.190622 0.154827 0.121969 0.0925885
          0.0664345 0.0430662 0.0220498 0.00301307 0.00696112 0.0269541 0.0492942 0.0745706 0.103596 0.137506 0.177846 0.226436
          0.283859 0.341314 0.341314 0.283859 0.226436 0.177846 0.137506 0.103596 0.0745706 0.0492942 0.0269541 0.00696112
          0.00900157 0.0295141 0.0525892 0.0789612 0.109726 0.146622 0.192638 0.253455 0.341314 0.486696 0.486696 0.341314
          0.253455 0.192638 0.146622 0.109726 0.0789612 0.0525892 0.0295141 0.00900157 0.00900157 0.0295141 0.0525892 0.0789612
          0.109726 0.146622 0.192638 0.253455 0.341314 0.486696 0.486696 0.341314 0.253455 0.192638 0.146622 0.109726
          0.0789612 0.0525892 0.0295141 0.00900157 0.00696112 0.0269541 0.0492942 0.0745706 0.103596 0.137506 0.177846 0.226436
          0.283859 0.341314 0.341314 0.283859 0.226436 0.177846 0.137506 0.103596 0.0745706 0.0492942 0.0269541 0.00696112
          0.00301307 0.0220498 0.0430662 0.0664345 0.0925885 0.121969 0.154827 0.190622 0.226436 0.253455 0.253455 0.226436
          0.190622 0.154827 0.121969 0.0925885 0.0664345 0.0430662 0.0220498 0.00301307 -0.00260616 0.0151696 0.0344907 0.0555193
          0.078364 0.102972 0.128894 0.154827 0.177846 0.192638 0.192638 0.177846 0.154827 0.128894 0.102972 0.078364
          0.0555193 0.0344907 0.0151696 -0.00260616 -0.00960106 0.00674802 0.0242135 0.0427956 0.0623879 0.0826763 0.102972 0.121969
          0.137506 0.146622 0.146622 0.137506 0.121969 0.102972 0.0826763 0.0623879 0.0427956 0.0242135 0.00674802 -0.00960106
          -0.0176605 -0.00278587 0.0128255 0.0290697 0.0457265 0.0623879 0.078364 0.0925885 0.103596 0.109726 0.109726 0.103596
          0.0925885 0.078364 0.0623879 0.0457265 0.0290697 0.0128255 -0.00278587 -0.0176605 -0.0264905 -0.0130527 0.000810009 0.0149384
          0.0290697 0.0427956 0.0555193 0.0664345 0.0745706 0.0789612 0.0789612 0.0745706 0.0664345 0.0555193 0.0427956 0.0290697
          0.0149384 0.000810009 -0.0130527 -0.0264905 -0.0358338 -0.0237413 -0.0114665 0.000810009 0.0128255 0.0242135 0.0344907 0.0430662
          0.0492942 0.0525892 0.0525892 0.0492942 0.0430662 0.0344907 0.0242135 0.0128255 0.000810009 -0.0114665 -0.0237413 -0.0358338
          -0.0454771 -0.0346096 -0.0237413 -0.0130527 -0.00278587 0.00674802 0.0151696 0.0220498 0.0269541 0.0295141 0.0295141 0.0269541
          0.0220498 0.0151696 0.00674802 -0.00278587 -0.0130527 -0.0237413 -0.0346096 -0.0454771 -0.0552515 -0.0454771 -0.0358338 -0.0264905
          -0.0176605 -0.00960106 -0.00260616 0.00301307 0.00696112 0.00900157 0.00900157 0.00696112 0.00301307 -0.00260616 -0.00960106 -0.0176605
          -0.0264905 -0.0358338 -0.0454771 -0.0552515 -0.0576019 -0.0474104 -0.0373555 -0.0276136 -0.0184069 -0.0100037 -0.00271057 0.00314812
          0.00726432 0.00939164 0.00939164 0.00726432 0.00314812 -0.00271057 -0.0100037 -0.0184069 -0.0276136 -0.0373555 -0.0474104 -0.0576019
          -0.0474104 -0.0360768 -0.0247425 -0.013596 -0.00288945 0.0070524 0.015834 0.0230079 0.0281212 0.0307903 0.0307903 0.0281212
          0.0230079 0.015834 0.0070524 -0.00288945 -0.013596 -0.0247425 -0.0360768 -0.0474104 -0.0373555 -0.0247425 -0.0119399 0.000864246
          0.0133956 0.025272 0.0359893 0.0449312 0.0514248 0.05486 0.05486 0.0514248 0.0449312 0.0359893 0.025272 0.0133956
          0.000864246 -0.0119399 -0.0247425 -0.0373555 -0.0276136 -0.013596 0.000864246 0.015601 0.0303401 0.0446556 0.0579247 0.0693068
          0.0777898 0.0823672 0.0823672 0.0777898 0.0693068 0.0579247 0.0446556 0.0303401 0.015601 0.000864246 -0.013596 -0.0276136
          -0.0184069 -0.00288945 0.0133956 0.0303401 0.0477142 0.0650921 0.0817539 0.0965872 0.108064 0.114454 0.114454 0.108064
          0.0965872 0.0817539 0.0650921 0.0477142 0.0303401 0.0133956 -0.00288945 -0.0184069 -0.0100037 0.0070524 0.025272 0.0446556
          0.0650921 0.0862538 0.107421 0.127232 0.143432 0.152936 0.152936 0.143432 0.127232 0.107421 0.0862538 0.0650921
          0.0446556 0.025272 0.0070524 -0.0100037 -0.00271057 0.015834 0.0359893 0.0579247 0.0817539 0.107421 0.134458 0.161503
          0.185507 0.200927 0.200927 0.185507 0.161503 0.134458 0.107421 0.0817539 0.0579247 0.0359893 0.015834 -0.00271057
          0.00314812 0.0230079 0.0449312 0.0693068 0.0965872 0.127232 0.161503 0.198836 0.236183 0.264353 0.264353 0.236183
          0.198836 0.161503 0.127232 0.0965872 0.0693068 0.0449312 0.0230079 0.00314812 0.00726432 0.0281212 0.0514248 0.0777898
          0.108064 0.143432 0.185507 0.236183 0.296068 0.355977 0.355977 0.296068 0.236183 0.185507 0.143432 0.108064
          0.0777898 0.0514248 0.0281212 0.00726432 0.00939164 0.0307903 0.05486 0.0823672 0.114454 0.152936 0.200927 0.264353
          0.355977 0.507572 0.507572 0.355977 0.264353 0.200927 0.152936 0.114454 0.0823672 0.05486 0.0307903 0.00939164
          0.00939164 0.0307903 0.05486 0.0823672 0.114454 0.152936 0.200927 0.264353 0.355977 0.507572 0.507572 0.355977
          0.264353 0.200927 0.152936 0.114454 0.0823672 0.05486 0.0307903 0.00939164 0.00726432 0.0281212 0.0514248 0.0777898
          0.108064 0.143432 0.185507 0.236183 0.296068 0.355977 0.355977 0.296068 0.236183 0.185507 0.143432 0.108064
          0.0777898 0.0514248 0.0281212 0.00726432 0.00314812 0.0230079 0.0449312 0.0693068 0.0965872 0.127232 0.161503 0.198836
          0.236183 0.264353 0.264353 0.236183 0.198836 0.161503 0.127232 0.0965872 0.0693068 0.0449312 0.0230079 0.00314812
          -0.00271057 0.015834 0.0359893 0.0579247 0.0817539 0.107421 0.134458 0.161503 0.185507 0.200927 0.200927 0.185507
          0.161503 0.134458 0.107421 0.0817539 0.0579247 0.0359893 0.015834 -0.00271057 -0.0100037 0.0070524 0.025272 0.0446556
          0.0650921 0.0862538 0.107421 0.127232 0.143432 0.152936 0.152936 0.143432 0.127232 0.107421 0.0862538 0.0650921
          0.0446556 0.025272 0.0070524 -0.0100037 -0.0184069 -0.00288945 0.0133956 0.0303401 0.0477142 0.0650921 0.0817539 0.0965872
          0.108064 0.114454 0.114454 0.108064 0.0965872 0.0817539 0.0650921 0.0477142 0.0303401 0.0133956 -0.00288945 -0.0184069
          -0.0276136 -0.013596 0.000864246 0.015601 0.0303401 0.0446556 0.0579247 0.0693068 0.0777898 0.0823672 0.0823672 0.0777898
          0.0693068 0.0579247 0.0446556 0.0303401 0.015601 0.000864246 -0.013596 -0.0276136 -0.0373555 -0.0247425 -0.0119399 0.000864246
          0.0133956 0.025272 0.0359893 0.0449312 0.0514248 0.05486 0.05486 0.0514248 0.0449312 0.0359893 0.025272 0.0133956
          0.000864246 -0.0119399 -0.0247425 -0.0373555 -0.0474104 -0.0360768 -0.0247425 -0.013596 -0.00288945 0.0070524 0.015834 0.0230079
          0.0281212 0.0307903 0.0307903 0.0281212 0.0230079 0.015834 0.0070524 -0.00288945 -0.013596 -0.0247425 -0.0360768 -0.0474104
          -0.0576019 -0.0474104 -0.0373555 -0.0276136 -0.0184069 -0.0100037 -0.00271057 0.00314812 0.00726432 0.00939164 0.00939164 0.00726432
          0.00314812 -0.00271057 -0.0100037 -0.0184069 -0.0276136 -0.0373555 -0.0474104 -0.0576019 -0.0599524 -0.0493438 -0.0388775 -0.0287369
          -0.0191536 -0.0104067 -0.00281535 0.00328281 0.00756719 0.00978141 0.00978141 0.00756719 0.00328281 -0.00281535 -0.0104067 -0.0191536
          -0.0287369 -0.0388775 -0.0493438 -0.0599524 -0.0493438 -0.0375443 -0.0257443 -0.0141399 -0.00299377 0.00735598 0.0164975 0.0239653
          0.0292878 0.0320659 0.0320659 0.0292878 0.0239653 0.0164975 0.00735598 -0.00299377 -0.0141399 -0.0257443 -0.0375443 -0.0493438
          -0.0388775 -0.0257443 -0.0124139 0.000917544 0.0139647 0.0263293 0.0374867 0.0467952 0.0535546 0.0571303 0.0571303 0.0535546
          0.0467952 0.0374867 0.0263293 0.0139647 0.000917544 -0.0124139 -0.0257443 -0.0388775 -0.0287369 -0.0141399 0.000917544 0.0162623
          0.031609 0.0465139 0.0603286 0.0721777 0.081008 0.0857725 0.0857725 0.081008 0.0721777 0.0603286 0.0465139 0.031609
          0.0162623 0.000917544 -0.0141399 -0.0287369 -0.0191536 -0.00299377 0.0139647 0.031609 0.0497001 0.0677942 0.0851415 0.100584
          0.112531 0.119182 0.119182 0.112531 0.100584 0.0851415 0.0677942 0.0497001 0.031609 0.0139647 -0.00299377 -0.0191536
          -0.0104067 0.00735598 0.0263293 0.0465139 0.0677942 0.0898283 0.111867 0.132492 0.149356 0.159248 0.159248 0.149356
          0.132492 0.111867 0.0898283 0.0677942 0.0465139 0.0263293 0.00735598 -0.0104067 -0.00281535 0.0164975 0.0374867 0.0603286
          0.0851415 0.111867 0.140017 0.168174 0.193162 0.209213 0.209213 0.193162 0.168174 0.140017 0.111867 0.0851415
          0.0603286 0.0374867 0.0164975 -0.00281535 0.00328281 0.0239653 0.0467952 0.0721777 0.100584 0.132492 0.168174 0.207042
          0.245921 0.275244 0.275244 0.245921 0.207042 0.168174 0.132492 0.100584 0.0721777 0.0467952 0.0239653 0.00328281
          0.00756719 0.0292878 0.0535546 0.081008 0.112531 0.149356 0.193162 0.245921 0.308263 0.370626 0.370626 0.308263
          0.245921 0.193162 0.149356 0.112531 0.081008 0.0535546 0.0292878 0.00756719 0.00978141 0.0320659 0.0571303 0.0857725
          0.119182 0.159248 0.209213 0.275244 0.370626 0.52842 0.52842 0.370626 0.275244 0.209213 0.159248 0.119182
          0.0857725 0.0571303 0.0320659 0.00978141 0.00978141 0.0320659 0.0571303 0.0857725 0.119182 0.159248 0.209213 0.275244
          0.370626 0.52842 0.52842 0.370626 0.275244 0.209213 0.159248 0.119182 0.0857725 0.0571303 0.0320659 0.00978141
          0.00756719 0.0292878 0.0535546 0.081008 0.112531 0.149356 0.193162 0.245921 0.308263 0.370626 0.370626 0.308263
          0.245921 0.193162 0.149356 0.112531 0.081008 0.0535546 0.0292878 0.00756719 0.00328281 0.0239653 0.0467952 0.0721777
          0.100584 0.132492 0.168174 0.207042 0.245921 0.275244 0.275244 0.245921 0.207042 0.168174 0.132492 0.100584
          0.0721777 0.0467952 0.0239653 0.00328281 -0.00281535 0.0164975 0.0374867 0.0603286 0.0851415 0.111867 0.140017 0.168174
          0.193162 0.209213 0.209213 0.193162 0.168174 0.140017 0.111867 0.0851415 0.0603286 0.0374867 0.0164975 -0.00281535
          -0.0104067 0.00735598 0.0263293 0.0465139 0.0677942 0.0898283 0.111867 0.132492 0.149356 0.159248 0.159248 0.149356
          0.132492 0.111867 0.0898283 0.0677942 0.0465139 0.0263293 0.00735598 -0.0104067 -0.0191536 -0.00299377 0.0139647 0.031609
          0.0497001 0.0677942 0.0851415 0.100584 0.112531 0.119182 0.119182 0.112531 0.100584 0.0851415 0.0677942 0.0497001
          0.031609 0.0139647 -0.00299377 -0.0191536 -0.0287369 -0.0141399 0.000917544 0.0162623 0.031609 0.0465139 0.0603286 0.0721777
          0.081008 0.0857725 0.0857725 0.081008 0.0721777 0.0603286 0.0465139 0.031609 0.0162623 0.000917544 -0.0141399 -0.0287369
          -0.0388775 -0.0257443 -0.0124139 0.000917544 0.0139647 0.0263293 0.0374867 0.0467952 0.0535546 0.0571303 0.0571303 0.0535546
          0.0467952 0.0374867 0.0263293 0.0139647 0.000917544 -0.0124139 -0.0257443 -0.0388775 -0.0493438 -0.0375443 -0.0257443 -0.0141399
          -0.00299377 0.00735598 0.0164975 0.0239653 0.0292878 0.0320659 0.0320659 0.0292878 0.0239653 0.0164975 0.00735598 -0.00299377
          -0.0141399 -0.0257443 -0.0375443 -0.0493438 -0.0599524 -0.0493438 -0.0388775 -0.0287369 -0.0191536 -0.0104067 -0.00281535 0.00328281
          0.00756719 0.00978141 0.00978141 0.00756719 0.00328281 -0.00281535 -0.0104067 -0.0191536 -0.0287369 -0.0388775 -0.0493438 -0.0599524
          -0.062303 -0.0512773 -0.0403995 -0.0298605 -0.0199005 -0.0108099 -0.00292037 0.00341727 0.00786985 0.010171 0.010171 0.00786985
          0.00341727 -0.00292037 -0.0108099 -0.0199005 -0.0298605 -0.0403995 -0.0512773 -0.062303 -0.0512773 -0.039012 -0.0267464 -0.0146842
          -0.00309868 0.00765892 0.0171605 0.0249221 0.0304538 0.0333412 0.0333412 0.0304538 0.0249221 0.0171605 0.00765892 -0.00309868
          -0.0146842 -0.0267464 -0.039012 -0.0512773 -0.0403995 -0.0267464 -0.0128886 0.000970094 0.0145328 0.0273857 0.0389831 0.0486584
          0.0556838 0.0594 0.0594 0.0556838 0.0486584 0.0389831 0.0273857 0.0145328 0.000970094 -0.0128886 -0.0267464 -0.0403995
          -0.0298605 -0.0146842 0.000970094 0.0169227 0.0328768 0.0483709 0.062731 0.0750473 0.0842252 0.0891771 0.0891771 0.0842252
          0.0750473 0.062731 0.0483709 0.0328768 0.0169227 0.000970094 -0.0146842 -0.0298605 -0.0199005 -0.00309868 0.0145328 0.0328768
          0.0516844 0.0704943 0.0885271 0.104578 0.116996 0.123909 0.123909 0.116996 0.104578 0.0885271 0.0704943 0.0516844
          0.0328768 0.0145328 -0.00309868 -0.0199005 -0.0108099 0.00765892 0.0273857 0.0483709 0.0704943 0.0934006 0.11631 0.13775
          0.155277 0.165558 0.165558 0.155277 0.13775 0.11631 0.0934006 0.0704943 0.0483709 0.0273857 0.00765892 -0.0108099
          -0.00292037 0.0171605 0.0389831 0.062731 0.0885271 0.11631 0.145573 0.174841 0.200813 0.217495 0.217495 0.200813
          0.174841 0.145573 0.11631 0.0885271 0.062731 0.0389831 0.0171605 -0.00292037 0.00341727 0.0249221 0.0486584 0.0750473
          0.104578 0.13775 0.174841 0.215243 0.255653 0.286128 0.286128 0.255653 0.215243 0.174841 0.13775 0.104578
          0.0750473 0.0486584 0.0249221 0.00341727 0.00786985 0.0304538 0.0556838 0.0842252 0.116996 0.155277 0.200813 0.255653
          0.320449 0.385261 0.385261 0.320449 0.255653 0.200813 0.155277 0.116996 0.0842252 0.0556838 0.0304538 0.00786985
          0.010171 0.0333412 0.0594 0.0891771 0.123909 0.165558 0.217495 0.286128 0.385261 0.549248 0.549248 0.385261
          0.286128 0.217495 0.165558 0.123909 0.0891771 0.0594 0.0333412 0.010171 0.010171 0.0333412 0.0594 0.0891771
          0.123909 0.165558 0.217495 0.286128 0.385261 0.549248 0.549248 0.385261 0.286128 0.217495 0.165558 0.123909
          0.0891771 0.0594 0.0333412 0.010171 0.00786985 0.0304538 0.0556838 0.0842252 0.116996 0.155277 0.200813 0.255653
          0.320449 0.385261 0.385261 0.320449 0.255653 0.200813 0.155277 0.116996 0.0842252 0.0556838 0.0304538 0.00786985
          0.00341727 0.0249221 0.0486584 0.0750473 0.104578 0.13775 0.174841 0.215243 0.255653 0.286128 0.286128 0.255653
          0.215243 0.174841 0.13775 0.104578 0.0750473 0.0486584 0.0249221 0.00341727 -0.00292037 0.0171605 0.0389831 0.062731
          0.0885271 0.11631 0.145573 0.174841 0.200813 0.217495 0.217495 0.200813 0.174841 0.145573 0.11631 0.0885271
          0.062731 0.0389831 0.0171605 -0.00292037 -0.0108099 0.00765892 0.0273857 0.0483709 0.0704943 0.0934006 0.11631 0.13775
          0.155277 0.165558 0.165558 0.155277 0.13775 0.11631 0.0934006 0.0704943 0.0483709 0.0273857 0.00765892 -0.0108099
          -0.0199005 -0.00309868 0.0145328 0.0328768 0.0516844 0.0704943 0.0885271 0.104578 0.116996 0.123909 0.123909 0.116996
          0.104578 0.0885271 0.0704943 0.0516844 0.0328768 0.0145328 -0.00309868 -0.0199005 -0.0298605 -0.0146842 0.000970094 0.0169227
          0.0328768 0.0483709 0.062731 0.0750473 0.0842252 0.0891771 0.0891771 0.0842252 0.0750473 0.062731 0.0483709 0.0328768