<?xml version="1.0"?>
<VTKFile type="UnstructuredGrid" version="0.1" byte_order="LittleEndian">
  <UnstructuredGrid>
    <Piece NumberOfCells="88" NumberOfPoints="57">
      <PointData Scalars="p">
        <DataArray type="Float32" Name="p" NumberOfComponents="1" format="ascii">
          1.50562 1.50816 1.51414 1.50403 1.49572 1.48687 1.49292 1.49728 1.52518 1.51223 1.51066 1.4754
          1.48997 1.4903 1.50063 1.49661 1.5049 1.50065 1.50829 1.51431 1.49305 1.48716 1.52811 1.51273
          1.51043 1.47498 1.49007 1.49049 1.50489 1.49666 1.50033 1.52517 1.51379 1.51211 1.51054 1.47658
          1.48951 1.49004 1.48716 1.50807 1.49304 1.50496 1.49668 1.50104 1.50844 1.51464 1.48659 1.49286
          1.52795 1.51287 1.51061 1.47541 1.48974 1.48983 1.50519 1.50114 1.4967
        </DataArray>
      </PointData>
      <CellData Scalars="process rank">
        <DataArray type="Float32" Name="process rank" NumberOfComponents="1" format="ascii">
          0 0 0 0 0 0 0 0 0 0 0 0
          0 0 0 0 0 0 0 0 0 0 0 0
          0 0 0 0 0 0 0 0 0 0 0 0
          0 0 0 0 0 0 0 0 0 0 0 0
          0 0 0 0 0 0 0 0 0 0 0 0
          0 0 0 0 0 0 0 0 0 0 0 0
          0 0 0 0 0 0 0 0 0 0 0 0
          0 0 0 0
        </DataArray>
      </CellData>
      <Points>
        <DataArray type="Float32" Name="Coordinates" NumberOfComponents="3" format="ascii">
          0.5 0.25 0.5 0.411458 0.338542 0.5 0.375 0.25 0.5 0.5 0.375 0.5
          0.5 0.75 0.5 0.375 0.75 0.5 0.418846 0.671266 0.5 0.5 0.625 0.5
          0.25 0.25 0.5 0.329409 0.326542 0.5 0.25 0.375 0.5 0.25 0.75 0.5
          0.341841 0.661125 0.5 0.25 0.625 0.5 0.25 0.5 0.5 0.377392 0.570206 0.5
          0.373141 0.425983 0.5 0.5 0.5 0.5 0.5 0.338542 0.588542 0.5 0.25 0.625
          0.5 0.671266 0.581154 0.5 0.75 0.625 0.5 0.25 0.75 0.5 0.326542 0.670591
          0.5 0.375 0.75 0.5 0.75 0.75 0.5 0.661125 0.658159 0.5 0.625 0.75
          0.5 0.425983 0.626859 0.5 0.570206 0.622608 0.5 0.5 0.75 0.5 0.25 0.25
          0.5 0.25 0.375 0.5 0.326542 0.329409 0.5 0.375 0.25 0.5 0.75 0.25
          0.5 0.625 0.25 0.5 0.661125 0.341841 0.5 0.75 0.375 0.5 0.338542 0.411458
          0.5 0.671266 0.418846 0.5 0.425983 0.373141 0.5 0.570206 0.377392 0.5 0.5 0.25
          0.588542 0.338542 0.5 0.625 0.25 0.5 0.625 0.75 0.5 0.581154 0.671266 0.5
          0.75 0.25 0.5 0.670591 0.326542 0.5 0.75 0.375 0.5 0.75 0.75 0.5
          0.75 0.625 0.5 0.658159 0.661125 0.5 0.626859 0.425983 0.5 0.75 0.5 0.5
          0.622608 0.570206 0.5
        </DataArray>
      </Points>
      <Cells>
        <DataArray type="Int32" Name="connectivity" NumberOfComponents="1" format="ascii">
          0 1 2 0 3 1 4 5 6 4 6 7
          8 2 9 8 9 10 11 12 5 11 13 12
          2 1 9 5 12 6 13 14 15 13 15 12
          14 10 16 14 16 15 10 9 16 3 17 16
          3 16 1 17 7 15 17 15 16 7 6 15
          15 6 12 16 9 1 0 3 18 0 18 19
          4 20 7 4 21 20 22 23 24 22 19 23
          25 26 21 25 27 26 3 17 28 3 28 18
          17 7 29 17 29 28 7 20 29 21 26 20
          27 30 29 27 29 26 30 24 28 30 28 29
          24 23 28 19 18 23 29 20 26 28 23 18
          31 32 33 31 33 34 35 36 37 35 37 38
          0 3 39 0 39 32 4 40 7 4 38 40
          3 17 41 3 41 39 17 7 42 17 42 41
          7 40 42 32 39 33 34 41 43 34 33 41
          43 42 36 43 41 42 36 42 37 38 37 40
          42 40 37 41 33 39 0 44 45 0 3 44
          4 46 47 4 47 7 48 45 49 48 49 50
          51 52 53 51 53 46 45 44 49 50 54 55
          50 49 54 55 56 52 55 54 56 52 56 53
          46 53 47 3 17 54 3 54 44 17 7 56
          17 56 54 7 47 56 56 47 53 54 49 44
        </DataArray>
        <DataArray type="Int32" Name="offsets" NumberOfComponents="1" format="ascii">
          3 6 9 12 15 18 21 24 27 30 33 36
          39 42 45 48 51 54 57 60 63 66 69 72
          75 78 81 84 87 90 93 96 99 102 105 108
          111 114 117 120 123 126 129 132 135 138 141 144
          147 150 153 156 159 162 165 168 171 174 177 180
          183 186 189 192 195 198 201 204 207 210 213 216
          219 222 225 228 231 234 237 240 243 246 249 252
          255 258 261 264
        </DataArray>
        <DataArray type="UInt8" Name="types" NumberOfComponents="1" format="ascii">
          5 5 5 5 5 5 5 5 5 5 5 5
          5 5 5 5 5 5 5 5 5 5 5 5
          5 5 5 5 5 5 5 5 5 5 5 5
          5 5 5 5 5 5 5 5 5 5 5 5
          5 5 5 5 5 5 5 5 5 5 5 5
          5 5 5 5 5 5 5 5 5 5 5 5
          5 5 5 5 5 5 5 5 5 5 5 5
          5 5 5 5
        </DataArray>
      </Cells>
    </Piece>
  </UnstructuredGrid>
</VTKFile>
