<?xml version="1.0"?>
<VTKFile type="UnstructuredGrid" version="0.1" byte_order="LittleEndian">
  <UnstructuredGrid>
    <Piece NumberOfCells="1000" NumberOfPoints="1331">
      <CellData Scalars="wetting pressure">
        <DataArray type="Float32" Name="wetting pressure" NumberOfComponents="1" format="ascii">
          265546 270750 272320 271366 268374 263503 256699 247723 236069 220666 265552 270772
          272362 271437 268484 263655 256870 247879 236176 220703 265561 270804 272427 271551
          268665 263932 257196 248188 236386 220775 265569 270829 272480 271650 268808 264247
          257618 248627 236673 220868 265568 270829 272487 271669 268817 264217 257900 249131
          236924 220935 265557 270795 272427 271582 268730 264178 257560 248575 236638 220856
          265538 270735 272317 271410 268506 263769 257048 248065 236304 220746 265516 270665
          272191 271213 268223 263382 256613 247667 236036 220654 265497 270607 272086 271052
          268000 263101 256313 247401 235856 220591 265487 270574 272028 270964 267880 262957
          256163 247270 235767 220560 261995 264557 264994 263525 260335 255479 248893 240437
          229905 217126 262003 264582 265046 263617 260480 255680 249113 240632 230037 217171
          262014 264622 265129 263770 260742 256087 249567 241043 230311 217263 262023 264655
          265202 263913 260957 256671 250268 241718 230755 217398 262024 264659 265221 263982
          261197 256745 250568 242595 231435 217529 262011 264620 265147 263843 260875 256573
          250238 241677 230722 217385 261990 264550 265015 263624 260582 255924 249425 240923
          230229 217234 261965 264471 264867 263381 260208 255395 248847 240412 229890 217120
          261944 264405 264746 263190 259934 255048 248481 240094 229678 217047 261932 264368
          264679 263088 259793 254877 248304 239941 229576 217011 260243 260462 259524 257315
          253816 248983 242739 235030 225858 215391 260253 260495 259594 257442 254026 249267
          243038 235285 226024 215448 260268 260548 259708 257667 254447 249892 243695 235845
          226383 215565 260281 260594 259816 257895 254872 250831 244862 236839 226993 215744
          260282 260603 259853 258026 255353 251142 245399 238159 227976 215930 260268 260556
          259758 257827 254814 250793 244884 236819 226967 215733 260241 260470 259586 257514
          254292 249744 243572 235732 226302 215536 260212 260373 259398 257185 253732 248963
          242757 235051 225868 215393 260187 260293 259248 256940 253367 248501 242280 234649
          225606 215303 260173 260249 259166 256813 253189 248284 242058 234462 225483 215261
          259126 257490 255258 252268 248422 243614 237754 230834 222939 214293 259138 257533
          255348 252435 248703 243984 238128 231143 223136 214360 259158 257601 255498 252739
          249299 244830 238965 231824 223559 214497 259174 257661 255641 253057 249952 246083
          240479 233025 224264 214702 259177 257675 255693 253224 250515 246477 241141 234515
          225323 214907 259160 257620 255578 252982 249887 246027 240736 233059 224249 214693
          259128 257515 255363 252573 249135 244682 238890 231727 223479 214466 259092 257396
          255128 252148 248375 243650 237829 230891 222966 214299 259062 257299 254943 251840
          247909 243064 237233 230404 222655 214194 259045 257246 254843 251683 247687 242795
          236962 230178 222509 214144 258261 255074 251659 247909 243712 238927 233454 227303
          220574 213448 258276 255125 251768 248112 244050 239365 233886 227652 220792 213521
          258300 255208 251951 248481 244773 240363 234839 228406 221251 213669 258320 255281
          252124 248864 245568 241801 236512 229693 221981 213882 258324 255299 252185 249049
          246144 242202 237243 231231 222978 214080 258304 255235 252054 248780 245492 241712
          236985 229768 221971 213873 258267 255111 251799 248294 244590 240199 234791 228312
          221166 213636 258224 254971 251519 247786 243679 238988 233554 227371 220602 213453
          258188 254855 251298 247419 243123 238297 232861 226815 220253 213336 258168 254792
          251180 247231 242858 237980 232545 226556 220087 213279 257470 252833 248287 243797
          239252 234492 229402 224002 218387 212676 257487 252894 248414 244031 239636 234981
          229878 224381 218622 212754 257515 252990 248626 244450 240439 236070 230901 225180
          219101 212908 257538 253075 248823 244876 241300 237580 232618 226481 219819 213118
          257543 253097 248891 245073 241880 237990 233360 228003 220697 213298 257521 253024
          248744 244783 241217 237501 232895 226510 219796 213106 257478 252882 248455 244239
          240231 235878 230788 225049 218997 212869 257428 252719 248132 243660 239213 234547
          229487 224055 218404 212677 257386 252584 247875 243235 238577 233770 228722 223445
          218023 212549 257363 252509 247737 243016 238270 233407 228366 223155 217838 212487
          256613 250442 244734 239505 234626 229896 225187 220536 216062 211843 256634 250513
          244882 239775 235064 230448 225719 220956 216319 211928 256666 250625 245125 240250
          235949 231631 226820 221810 216825 212091 256693 250723 245348 240718 236856 233185
          228565 223126 217535 212300 256699 250747 245423 240927 237448 233615 229312 224632
          218292 212460 256674 250666 245261 240615 236767 233113 228570 223091 217495 212284
          256625 250504 244934 240013 235713 231404 226622 221633 216699 212045 256567 250316
          244563 239356 234583 229950 225258 220577 216068 211841 256519 250159 244265 238863
          233853 229068 224407 219900 215648 211700 256492 250073 244103 238607 233495 228649
          224000 219572 215440 211630 255510 247517 240554 234593 229414 224730 220384 216476
          213223 210772 255535 247601 240731 234921 229950 225401 221022 216972 213522 210870
          255573 247733 241019 235485 230990 226775 222300 217955 214095 211052 255605 247848
          241279 236020 231992 228425 224158 219375 214849 211276 255611 247877 241366 236254
          232624 228903 224950 220912 215523 211427 255583 247785 241184 235908 231896 228348
          224173 219344 214809 211259 255527 247600 240809 235224 230731 226524 222081 217762
          213958 211003 255461 247383 240377 234454 229412 224843 220505 216548 213243 210772
          255406 247201 240026 233866 228533 223783 219493 215754 212756 210610 255374 247099
          239834 233558 228099 223274 219006 215367 212514 210529 253775 243478 235194 228570
          223174 218553 214507 211265 209286 209072 253804 243578 235412 228995 223909 219483
          215359 211902 209655 209190 253848 243734 235763 229709 225288 221325 217070 213182
          210369 209412 253885 243869 236074 230363 226522 223189 219252 214988 211294 209681
          253894 243905 236181 230648 227276 223784 220134 216502 211993 209846 253862 243803
          235972 230244 226423 223082 219588 215049 211275 209667 253799 243592 235538 229432
          225017 221067 216901 213010 210235 209362 253725 243342 235029 228488 223332 218885
          214808 211448 209355 209085 253661 243132 234612 227762 222184 217486 213506 210459
          208767 208893 253625 243015 234387 227386 221634 216837 212898 209988 208480 208798
          250237 237325 227956 220897 215426 210875 206975 204156 203214 205560 250269 237439
          228214 221446 216566 212353 208172 204978 203663 205700 250318 237616 228628 222366
          218643 215473 211004 206808 204577 205969 250359 237767 228991 223173 220387 217433
          213907 210086 205884 206314 250369 237810 229119 223535 221455 218359 214787 211209
          206931 206535 250335 237699 228886 223052 220288 217348 213862 210294 205899 206306
          250267 237468 228396 222082 218379 215229 210833 206667 204453 205921 250186 237193
          227814 220923 216006 211778 207602 204510 203352 205591 250117 236961 227340 220033
          214360 209720 205893 203291 202661 205371 250078 236833 227086 219591 213667 208892
          205153 202740 202334 205264
        </DataArray>
        <DataArray type="Float32" Name="nonwetting pressure" NumberOfComponents="1" format="ascii">
          265546 270750 272320 271366 268374 263503 256699 247723 236069 220666 265552 270772
          272362 271437 268484 263655 256870 247879 236176 220703 265561 270804 272427 271551
          268665 263932 257196 248188 236386 220775 265569 270829 272480 271650 268820 264247
          257618 248627 236673 220868 265568 270829 272487 271669 269224 264361 257958 249131
          236924 220935 265557 270795 272427 271582 268746 264178 257560 248575 236638 220856
          265538 270735 272317 271410 268506 263769 257048 248065 236304 220746 265516 270665
          272191 271213 268223 263382 256613 247667 236036 220654 265497 270607 272086 271052
          268000 263101 256313 247401 235856 220591 265487 270574 272028 270964 267880 262957
          256163 247270 235767 220560 261995 264557 264994 263525 260335 255479 248893 240437
          229905 217126 262003 264582 265046 263617 260480 255680 249113 240632 230037 217171
          262014 264622 265129 263770 260742 256087 249567 241043 230311 217263 262023 264655
          265202 263913 261023 256698 250268 241718 230755 217398 262024 264659 265221 263982
          261881 257083 250749 242675 231435 217529 262011 264620 265147 263843 260949 256608
          250238 241677 230722 217385 261990 264550 265015 263624 260582 255924 249425 240923
          230229 217234 261965 264471 264867 263381 260208 255395 248847 240412 229890 217120
          261944 264405 264746 263190 259934 255048 248481 240094 229678 217047 261932 264368
          264679 263088 259793 254877 248304 239941 229576 217011 260243 260462 259524 257315
          253816 248983 242739 235030 225858 215391 260253 260495 259594 257442 254026 249267
          243038 235285 226024 215448 260268 260548 259708 257667 254447 249892 243695 235845
          226383 215565 260281 260594 259816 257895 255010 250913 244862 236839 226993 215744
          260282 260603 259853 258026 256151 251586 245657 238287 227976 215930 260268 260556
          259758 257827 254959 250882 244884 236819 226967 215733 260241 260470 259586 257514
          254292 249744 243572 235732 226302 215536 260212 260373 259398 257185 253732 248963
          242757 235051 225868 215393 260187 260293 259248 256940 253367 248501 242280 234649
          225606 215303 260173 260249 259166 256813 253189 248284 242058 234462 225483 215261
          259126 257490 255258 252268 248422 243614 237754 230834 222939 214293 259138 257533
          255348 252435 248703 243984 238128 231143 223136 214360 259158 257601 255498 252739
          249299 244830 238965 231824 223559 214497 259174 257661 255641 253057 250129 246205
          240479 233025 224264 214702 259177 257675 255693 253224 251341 246952 241426 234656
          225323 214907 259160 257620 255578 252982 250072 246155 240736 233059 224249 214693
          259128 257515 255363 252573 249135 244682 238890 231727 223479 214466 259092 257396
          255128 252148 248375 243650 237829 230891 222966 214299 259062 257299 254943 251840
          247909 243064 237233 230404 222655 214194 259045 257246 254843 251683 247687 242795
          236962 230178 222509 214144 258261 255074 251659 247909 243712 238927 233454 227303
          220574 213448 258276 255125 251768 248112 244050 239365 233886 227652 220792 213521
          258300 255208 251951 248481 244773 240363 234839 228406 221251 213669 258320 255281
          252124 248864 245756 241935 236512 229693 221981 213882 258324 255299 252185 249049
          246970 242681 237529 231366 222978 214080 258304 255235 252054 248780 245687 241855
          236993 229768 221971 213873 258267 255111 251799 248294 244590 240199 234791 228312
          221166 213636 258224 254971 251519 247786 243679 238988 233554 227371 220602 213453
          258188 254855 251298 247419 243123 238297 232861 226815 220253 213336 258168 254792
          251180 247231 242858 237980 232545 226556 220087 213279 257470 252833 248287 243797
          239252 234492 229402 224002 218387 212676 257487 252894 248414 244031 239636 234981
          229878 224381 218622 212754 257515 252990 248626 244450 240439 236070 230901 225180
          219101 212908 257538 253075 248823 244876 241484 237716 232618 226481 219819 213118
          257543 253097 248891 245073 242698 238468 233639 228123 220697 213298 257521 253024
          248744 244783 241409 237645 232896 226510 219796 213106 257478 252882 248455 244239
          240231 235878 230788 225049 218997 212869 257428 252719 248132 243660 239213 234547
          229487 224055 218404 212677 257386 252584 247875 243235 238577 233770 228722 223445
          218023 212549 257363 252509 247737 243016 238270 233407 228366 223155 217838 212487
          256613 250442 244734 239505 234626 229896 225187 220536 216062 211843 256634 250513
          244882 239775 235064 230448 225719 220956 216319 211928 256666 250625 245125 240250
          235949 231631 226820 221810 216825 212091 256693 250723 245348 240718 237035 233320
          228565 223126 217535 212300 256699 250747 245423 240927 238260 234090 229582 224733
          218292 212460 256674 250666 245261 240615 236954 233255 228570 223091 217495 212284
          256625 250504 244934 240013 235713 231404 226622 221633 216699 212045 256567 250316
          244563 239356 234583 229950 225258 220577 216068 211841 256519 250159 244265 238863
          233853 229068 224407 219900 215648 211700 256492 250073 244103 238607 233495 228649
          224000 219572 215440 211630 255510 247517 240554 234593 229414 224730 220384 216476
          213223 210772 255535 247601 240731 234921 229950 225401 221022 216972 213522 210870
          255573 247733 241019 235485 230990 226775 222300 217955 214095 211052 255605 247848
          241279 236020 232170 228562 224158 219375 214849 211276 255611 247877 241366 236254
          233439 229379 225214 220989 215523 211427 255583 247785 241184 235908 232082 228492
          224173 219344 214809 211259 255527 247600 240809 235224 230731 226524 222081 217762
          213958 211003 255461 247383 240377 234454 229412 224843 220505 216548 213243 210772
          255406 247201 240026 233866 228533 223783 219493 215754 212756 210610 255374 247099
          239834 233558 228099 223274 219006 215367 212514 210529 253775 243478 235194 228570
          223174 218553 214507 211265 209286 209072 253804 243578 235412 228995 223909 219483
          215359 211902 209655 209190 253848 243734 235763 229709 225288 221325 217070 213182
          210369 209412 253885 243869 236074 230363 226719 223338 219252 214988 211294 209681
          253894 243905 236181 230648 228129 224278 220401 216568 211993 209846 253862 243803
          235972 230244 226628 223242 219595 215049 211275 209667 253799 243592 235538 229432
          225017 221067 216901 213010 210235 209362 253725 243342 235029 228488 223332 218885
          214808 211448 209355 209085 253661 243132 234612 227762 222184 217486 213506 210459
          208767 208893 253625 243015 234387 227386 221634 216837 212898 209988 208480 208798
          250237 237325 227956 220897 215426 210875 206975 204156 203214 205560 250269 237439
          228214 221446 216566 212353 208172 204978 203663 205700 250318 237616 228628 222366
          218810 215614 211004 206808 204577 205969 250359 237767 228991 223173 220967 217928
          214179 210096 205884 206314 250369 237810 229119 223535 222826 219296 215406 211491
          206931 206535 250335 237699 228886 223052 220881 217854 214142 210313 205899 206306
          250267 237468 228396 222082 218560 215385 210833 206667 204453 205921 250186 237193
          227814 220923 216006 211778 207602 204510 203352 205591 250117 236961 227340 220033
          214360 209720 205893 203291 202661 205371 250078 236833 227086 219591 213667 208892
          205153 202740 202334 205264
        </DataArray>
        <DataArray type="Float32" Name="wetting saturation" NumberOfComponents="1" format="ascii">
          1 1 1 1 1 1 1 1 1 1 1 1
          1 1 1 1 1 1 1 1 1 1 1 1
          1 1 1 1 1 1 1 1 1 1 0.998728 1
          1 1 1 1 1 1 1 1 0.95928 0.985586 0.994213 1
          1 1 1 1 1 1 0.998468 1 1 1 1 1
          1 1 1 1 1 1 1 1 1 1 1 1
          1 1 1 1 1 1 1 1 1 1 1 1
          1 1 1 1 1 1 1 1 1 1 1 1
          1 1 1 1 1 1 1 1 1 1 1 1
          1 1 1 1 1 1 1 1 1 1 1 1
          1 1 1 1 1 1 1 1 1 1 1 1
          1 1 0.993354 0.997264 1 1 1 1 1 1 1 1
          0.931565 0.966179 0.981982 0.991936 1 1 1 1 1 1 0.992684 0.996508
          1 1 1 1 1 1 1 1 1 1 1 1
          1 1 1 1 1 1 1 1 1 1 1 1
          1 1 1 1 1 1 1 1 1 1 1 1
          1 1 1 1 1 1 1 1 1 1 1 1
          1 1 1 1 1 1 1 1 1 1 1 1
          1 1 1 1 1 1 1 1 1 1 1 1
          1 1 1 1 1 1 0.986258 0.991799 1 1 1 1
          1 1 1 1 0.92016 0.955596 0.974131 0.987248 1 1 1 1
          1 1 0.985575 0.991113 1 1 1 1 1 1 1 1
          1 1 1 1 1 1 1 1 1 1 1 1
          1 1 1 1 1 1 1 1 1 1 1 1
          1 1 1 1 1 1 1 1 1 1 1 1
          1 1 1 1 1 1 1 1 1 1 1 1
          1 1 1 1 1 1 1 1 1 1 1 1
          1 1 1 1 1 1 1 1 1 1 0.982224 0.987871
          1 1 1 1 1 1 1 1 0.917397 0.952488 0.971576 0.9859
          1 1 1 1 1 1 0.981544 0.987157 1 1 1 1
          1 1 1 1 1 1 1 1 1 1 1 1
          1 1 1 1 1 1 1 1 1 1 1 1
          1 1 1 1 1 1 1 1 1 1 1 1
          1 1 1 1 1 1 1 1 1 1 1 1
          1 1 1 1 1 1 1 1 1 1 1 1
          1 1 1 1 1 1 1 1 1 1 1 1
          1 1 0.981275 0.9866 1 1 1 1 1 1 1 1
          0.917458 0.952052 0.971449 0.98654 1 1 1 1 1 1 0.980567 0.985708
          0.999195 1 1 1 1 1 1 1 1 1 1 1
          1 1 1 1 1 1 1 1 1 1 1 1
          1 1 1 1 1 1 1 1 1 1 1 1
          1 1 1 1 1 1 1 1 1 1 1 1
          1 1 1 1 1 1 1 1 1 1 1 1
          1 1 1 1 1 1 1 1 1 1 1 1
          1 1 1 1 1 1 0.981587 0.986407 1 1 1 1
          1 1 1 1 0.918211 0.952228 0.972117 0.988012 1 1 1 1
          1 1 0.980846 0.985595 0.999909 1 1 1 1 1 1 1
          1 1 1 1 1 1 1 1 1 1 1 1
          1 1 1 1 1 1 1 1 1 1 1 1
          1 1 1 1 1 1 1 1 1 1 1 1
          1 1 1 1 1 1 1 1 1 1 1 1
          1 1 1 1 1 1 1 1 1 1 1 1
          1 1 1 1 1 1 1 1 1 1 0.982109 0.986461
          1 1 1 1 1 1 1 1 0.918804 0.952435 0.972939 0.989942
          1 1 1 1 1 1 0.981335 0.985729 1 1 1 1
          1 1 1 1 1 1 1 1 1 1 1 1
          1 1 1 1 1 1 1 1 1 1 1 1
          1 1 1 1 1 1 1 1 1 1 1 1
          1 1 1 1 1 1 1 1 1 1 1 1
          1 1 1 1 1 1 1 1 1 1 1 1
          1 1 1 1 1 1 1 1 1 1 1 1
          1 1 0.982187 0.986327 1 1 1 1 1 1 1 1
          0.91854 0.952432 0.973686 0.992317 1 1 1 1 1 1 0.981386 0.985578
          1 1 1 1 1 1 1 1 1 1 1 1
          1 1 1 1 1 1 1 1 1 1 1 1
          1 1 1 1 1 1 1 1 1 1 1 1
          1 1 1 1 1 1 1 1 1 1 1 1
          1 1 1 1 1 1 1 1 1 1 1 1
          1 1 1 1 1 1 1 1 1 1 1 1
          1 1 1 1 1 1 0.980278 0.985026 1 1 1 1
          1 1 1 1 0.914705 0.95065 0.973253 0.993485 1 1 1 1
          1 1 0.979462 0.984056 0.999312 1 1 1 1 1 1 1
          1 1 1 1 1 1 1 1 1 1 1 1
          1 1 1 1 1 1 1 1 1 1 1 1
          1 1 1 1 1 1 1 1 1 1 1 1
          1 1 1 1 1 1 1 1 1 1 1 1
          1 1 1 1 1 1 1 1 1 1 1 1
          0.983343 0.985985 1 1 1 1 1 1 1 1 0.941939 0.950536
          0.972805 0.998968 1 1 1 1 1 1 0.862885 0.906287 0.938165 0.971848
          1 1 1 1 1 1 0.940726 0.949421 0.971959 0.998127 1 1
          1 1 1 1 0.981955 0.984363 1 1 1 1 1 1
          1 1 1 1 1 1 1 1 1 1 1 1
          1 1 1 1 1 1 1 1 1 1 1 1
          1 1 1 1
        </DataArray>
        <DataArray type="Float32" Name="C^w from cellData" NumberOfComponents="1" format="ascii">
          199.956 199.956 199.956 199.956 199.956 199.956 199.955 199.954 199.953 199.952 199.956 199.956
          199.956 199.956 199.956 199.956 199.955 199.954 199.953 199.952 199.956 199.956 199.956 199.956
          199.953 199.956 199.955 199.954 199.953 199.952 199.956 199.956 199.956 199.942 199.327 199.667
          199.926 199.954 199.953 199.952 199.956 199.956 199.956 199.846 191.621 196.791 198.101 199.318
          199.953 199.952 199.956 199.956 199.956 199.94 199.264 199.617 199.921 199.954 199.953 199.952
          199.956 199.956 199.956 199.956 199.948 199.956 199.955 199.954 199.953 199.952 199.956 199.956
          199.956 199.956 199.956 199.956 199.955 199.954 199.953 199.952 199.956 199.956 199.957 199.956
          199.956 199.956 199.955 199.954 199.953 199.952 199.956 199.956 199.957 199.956 199.956 199.956
          199.955 199.954 199.953 199.952 199.956 199.956 199.956 199.956 199.955 199.955 199.954 199.954
          199.953 199.951 199.956 199.956 199.956 199.956 199.955 199.955 199.954 199.954 199.953 199.951
          199.956 199.956 199.956 199.956 199.84 199.95 199.954 199.954 199.953 199.951 199.956 199.956
          199.956 199.926 198.23 198.928 199.668 199.92 199.953 199.951 199.956 199.956 199.956 199.751
          186.473 192.953 195.961 197.564 199.56 199.951 199.956 199.956 199.956 199.926 198.122 198.787
          199.615 199.918 199.953 199.951 199.956 199.956 199.956 199.956 199.805 199.945 199.954 199.954
          199.953 199.951 199.956 199.956 199.956 199.956 199.955 199.955 199.954 199.954 199.953 199.951
          199.956 199.956 199.956 199.956 199.955 199.955 199.954 199.954 199.953 199.951 199.956 199.956
          199.956 199.956 199.955 199.955 199.954 199.954 199.953 199.951 199.955 199.955 199.955 199.955
          199.955 199.954 199.954 199.953 199.952 199.951 199.955 199.955 199.955 199.955 199.955 199.954
          199.954 199.953 199.952 199.951 199.955 199.955 199.955 199.955 199.639 199.865 199.954 199.953
          199.952 199.951 199.955 199.955 199.955 199.926 196.84 197.623 199.171 199.836 199.952 199.951
          199.955 199.955 199.955 199.776 184.236 190.982 194.238 196.294 199.121 199.951 199.955 199.955
          199.955 199.924 196.69 197.454 199.134 199.832 199.952 199.951 199.955 199.955 199.955 199.955
          199.603 199.841 199.954 199.953 199.952 199.951 199.955 199.955 199.955 199.955 199.955 199.954
          199.954 199.953 199.952 199.951 199.955 199.955 199.955 199.955 199.955 199.954 199.954 199.953
          199.952 199.951 199.955 199.955 199.955 199.955 199.955 199.954 199.954 199.953 199.952 199.951
          199.955 199.955 199.955 199.955 199.954 199.954 199.953 199.953 199.952 199.951 199.955 199.955
          199.955 199.955 199.954 199.954 199.953 199.953 199.952 199.951 199.955 199.955 199.955 199.954
          199.539 199.764 199.953 199.953 199.952 199.951 199.955 199.955 199.955 199.922 195.981 196.687
          199 199.807 199.952 199.951 199.955 199.955 199.955 199.807 183.633 190.375 193.641 195.987
          199.132 199.951 199.955 199.955 199.955 199.922 195.826 196.547 198.904 199.801 199.952 199.951
          199.955 199.955 199.955 199.954 199.505 199.725 199.953 199.953 199.952 199.951 199.955 199.955
          199.955 199.955 199.954 199.954 199.953 199.953 199.952 199.951 199.955 199.955 199.955 199.955
          199.954 199.954 199.953 199.953 199.952 199.951 199.955 199.955 199.955 199.955 199.954 199.954
          199.953 199.953 199.952 199.951 199.955 199.955 199.955 199.954 199.954 199.953 199.953 199.952
          199.952 199.951 199.955 199.955 199.955 199.954 199.954 199.953 199.953 199.952 199.952 199.951
          199.955 199.955 199.955 199.954 199.501 199.713 199.953 199.952 199.952 199.951 199.955 199.955
          199.954 199.919 195.764 196.398 198.972 199.825 199.952 199.951 199.955 199.955 199.954 199.872
          183.617 190.281 193.597 196.223 199.318 199.951 199.955 199.955 199.954 199.919 195.599 196.274
          198.785 199.819 199.952 199.951 199.955 199.955 199.955 199.954 199.466 199.667 199.952 199.952
          199.952 199.951 199.955 199.955 199.955 199.954 199.954 199.953 199.953 199.952 199.952 199.951
          199.955 199.955 199.955 199.954 199.954 199.953 199.953 199.952 199.952 199.951 199.955 199.955
          199.955 199.954 199.954 199.953 199.953 199.952 199.952 199.951 199.955 199.955 199.954 199.954
          199.953 199.953 199.952 199.952 199.951 199.951 199.955 199.955 199.954 199.954 199.953 199.953
          199.952 199.952 199.951 199.951 199.955 199.955 199.954 199.954 199.493 199.698 199.952 199.952
          199.952 199.951 199.955 199.955 199.954 199.914 195.82 196.371 198.994 199.863 199.952 199.951
          199.955 199.955 199.954 199.874 183.775 190.312 193.716 196.69 199.553 199.951 199.955 199.955
          199.954 199.914 195.646 196.216 198.883 199.859 199.952 199.951 199.955 199.955 199.954 199.954
          199.455 199.646 199.952 199.952 199.952 199.951 199.955 199.955 199.954 199.954 199.953 199.953
          199.952 199.952 199.951 199.951 199.955 199.955 199.954 199.954 199.953 199.953 199.952 199.952
          199.951 199.951 199.955 199.955 199.954 199.954 199.953 199.953 199.952 199.952 199.951 199.951
          199.955 199.954 199.954 199.953 199.953 199.952 199.952 199.952 199.951 199.951 199.955 199.954
          199.954 199.953 199.953 199.952 199.952 199.952 199.951 199.951 199.955 199.954 199.954 199.953
          199.489 199.689 199.952 199.952 199.951 199.951 199.955 199.954 199.954 199.91 195.923 196.405
          199.028 199.897 199.951 199.951 199.955 199.954 199.954 199.914 183.942 190.359 193.848 197.248
          199.739 199.951 199.955 199.954 199.954 199.91 195.74 196.22 198.992 199.895 199.951 199.951
          199.955 199.954 199.954 199.953 199.449 199.632 199.952 199.952 199.951 199.951 199.955 199.954
          199.954 199.953 199.953 199.952 199.952 199.952 199.951 199.951 199.955 199.954 199.954 199.953
          199.953 199.952 199.952 199.952 199.951 199.951 199.955 199.954 199.954 199.953 199.953 199.952
          199.952 199.952 199.951 199.951 199.955 199.954 199.953 199.953 199.952 199.952 199.952 199.951
          199.951 199.951 199.955 199.954 199.953 199.953 199.952 199.952 199.952 199.951 199.951 199.951
          199.955 199.954 199.953 199.953 199.468 199.658 199.952 199.951 199.951 199.951 199.955 199.954
          199.953 199.906 195.93 196.388 199.051 199.924 199.951 199.951 199.955 199.954 199.953 199.901
          183.976 190.378 193.965 197.797 199.86 199.951 199.955 199.954 199.953 199.907 195.739 196.2
          199.014 199.923 199.951 199.951 199.955 199.954 199.953 199.953 199.428 199.601 199.952 199.951
          199.951 199.951 199.955 199.954 199.953 199.953 199.952 199.952 199.952 199.951 199.951 199.951
          199.955 199.954 199.953 199.953 199.952 199.952 199.951 199.951 199.951 199.951 199.955 199.954
          199.953 199.953 199.952 199.952 199.951 199.951 199.951 199.951 199.955 199.954 199.953 199.952
          199.952 199.951 199.951 199.951 199.951 199.951 199.955 199.954 199.953 199.952 199.952 199.951
          199.951 199.951 199.951 199.951 199.955 199.954 199.953 199.952 199.4 199.556 199.951 199.951
          199.951 199.951 199.955 199.954 199.953 199.907 195.502 196.086 199.019 199.931 199.951 199.951
          199.955 199.954 199.953 199.913 183.287 190.056 193.859 198.078 199.898 199.951 199.955 199.954
          199.953 199.907 195.305 195.927 198.836 199.929 199.951 199.951 199.955 199.954 199.953 199.952
          199.361 199.497 199.95 199.951 199.951 199.951 199.955 199.954 199.953 199.952 199.952 199.951
          199.951 199.951 199.951 199.951 199.955 199.954 199.953 199.952 199.952 199.951 199.951 199.951
          199.951 199.951 199.955 199.954 199.953 199.952 199.952 199.951 199.951 199.951 199.951 199.951
          199.955 199.953 199.952 199.952 199.951 199.951 199.95 199.95 199.95 199.95 199.955 199.953
          199.952 199.952 199.588 199.765 199.95 199.95 199.95 199.95 199.955 199.953 199.952 199.929
          196.063 196.369 198.984 199.949 199.95 199.95 199.955 199.953 199.952 199.914 188.119 189.77
          193.238 198.466 199.949 199.95 199.955 199.953 199.952 199.893 172.877 181.431 187.422 193.032
          199.059 199.95 199.955 199.953 199.952 199.914 187.889 189.566 193.081 198.315 199.948 199.95
          199.955 199.953 199.952 199.929 195.741 195.929 198.87 199.949 199.95 199.95 199.955 199.953
          199.952 199.952 199.483 199.685 199.95 199.95 199.95 199.95 199.955 199.953 199.952 199.952
          199.951 199.951 199.95 199.95 199.95 199.95 199.955 199.953 199.952 199.952 199.951 199.95
          199.95 199.95 199.95 199.95
        </DataArray>
        <DataArray type="Float32" Name="C^n from cellData" NumberOfComponents="1" format="ascii">
          0 0 0 3.48666e-15 6.37981e-11 4.53886e-12 1.4027e-13 2.55597e-15 8.08645e-18 0 0 0
          5.39654e-16 8.60449e-12 1.12084e-07 9.64434e-09 3.73252e-10 7.67213e-12 1.10836e-13 1.41141e-15 7.50611e-18 1.04362e-14 9.68381e-13 7.81349e-09
          9.00486e-05 7.92002e-06 4.66512e-07 1.09057e-08 1.57937e-10 2.08763e-12 2.82534e-13 1.39615e-11 1.03469e-09 3.67146e-06 0.0166262 0.00358772
          0.000410924 1.15138e-05 1.57988e-07 1.93279e-09 6.10366e-10 2.46043e-08 1.39727e-06 0.00142521 0.0420256 0.0246483 0.018699 0.00771274
          0.000128848 1.62517e-06 4.80862e-13 2.50888e-11 1.87484e-09 4.81883e-06 0.0167875 0.00437019 0.000479359 1.29759e-05 1.77668e-07 2.17025e-09
          2.17757e-16 2.22524e-14 2.17576e-12 1.22041e-08 0.000153031 1.11505e-05 6.29834e-07 1.41896e-08 2.02427e-10 2.64603e-12 0 2.4933e-18
          1.65749e-15 1.79198e-11 2.0767e-07 1.65922e-08 6.25433e-10 1.24473e-11 1.75805e-13 2.10717e-15 0 0 0 1.3136e-14
          1.82056e-10 1.27566e-11 3.82356e-13 6.84713e-15 2.01651e-17 0 0 0 0 0 6.48995e-14 3.72435e-15
          6.13434e-17 0 0 0 0 0 0 1.05044e-14 6.59265e-10 3.45319e-11 1.06857e-12 1.60603e-14
          3.99808e-17 0 0 0 5.70438e-16 2.32349e-11 1.58025e-06 8.58255e-08 3.61303e-09 6.79478e-11 6.77034e-13 4.80123e-15