<?xml version="1.0"?>
<VTKFile type="UnstructuredGrid" version="0.1" byte_order="LittleEndian">
  <UnstructuredGrid>
    <Piece NumberOfCells="2500" NumberOfPoints="2601">
      <PointData Scalars="x^tracer_0" Vectors="velocity_Groundwater (m/s)">
        <DataArray type="Float32" Name="x^tracer_0" NumberOfComponents="1" format="ascii">
          2.12559e-11 2.21082e-11 2.38635e-11 2.48589e-11 2.45555e-11 2.76712e-11 2.83272e-11 3.19438e-11 3.30867e-11 3.72678e-11 3.84975e-11 4.32525e-11
          4.42581e-11 4.95601e-11 5.01156e-11 5.59164e-11 5.58677e-11 6.21093e-11 6.13582e-11 6.79803e-11 6.64701e-11 7.3415e-11 7.11176e-11 7.83328e-11
          7.52393e-11 8.26789e-11 7.87922e-11 8.64165e-11 8.17464e-11 8.9522e-11 8.4082e-11 9.19804e-11 8.57859e-11 9.37822e-11 8.68502e-11 9.49223e-11
          8.72713e-11 9.5398e-11 8.705e-11 9.52101e-11 8.61917e-11 9.43626e-11 8.47083e-11 9.28647e-11 8.26196e-11 9.07327e-11 7.99556e-11 8.79926e-11
          7.67586e-11 8.46833e-11 7.30828e-11 8.0858e-11 6.89871e-11 7.65797e-11 6.45262e-11 7.18939e-11 5.97551e-11 6.68494e-11 5.47358e-11 6.15044e-11
          4.95391e-11 5.59283e-11 4.42452e-11 5.02023e-11 3.89426e-11 4.44188e-11 3.37256e-11 3.86788e-11 2.86906e-11 3.30887e-11 2.39313e-11 2.77557e-11
          1.95336e-11 2.27813e-11 1.55693e-11 1.82547e-11 1.20914e-11 1.42464e-11 9.12944e-12 1.08021e-11 6.68731e-12 7.9386e-12 4.74381e-12 5.64296e-12
          3.25545e-12 3.8743e-12 2.16204e-12 2.56939e-12 1.39383e-12 1.65067e-12 8.79189e-13 1.03552e-12 5.51469e-13 6.45142e-13 3.54042e-13 4.11449e-13
          2.43057e-13 2.81179e-13 1.8813e-13 2.17235e-13 1.71716e-13 1.98203e-13 3.18385e-11 3.32687e-11 3.71742e-11 4.29225e-11 4.9875e-11 5.74743e-11
          6.52743e-11 7.29414e-11 8.02393e-11 8.70099e-11 9.31532e-11 9.86109e-11 1.03353e-10 1.07367e-10 1.10652e-10 1.13211e-10 1.1505e-10 1.16173e-10
          1.16586e-10 1.16291e-10 1.15292e-10 1.13595e-10 1.11209e-10 1.08155e-10 1.04463e-10 1.00185e-10 9.53889e-11 9.01038e-11 8.43636e-11 7.82164e-11
          7.17258e-11 6.49717e-11 5.80512e-11 5.10765e-11 4.41727e-11 3.74729e-11 3.11118e-11 2.52171e-11 1.99004e-11 1.52474e-11 1.13099e-11 8.10047e-12
          5.59087e-12 3.71651e-12 2.38523e-12 1.48994e-12 9.22268e-13 5.84648e-13 3.98564e-13 3.08383e-13 2.81743e-13 4.5557e-11 4.77242e-11 5.3425e-11
          6.15299e-11 7.09984e-11 8.09943e-11 9.0908e-11 1.00331e-10 1.09012e-10 1.16818e-10 1.2369e-10 1.2962e-10 1.34628e-10 1.38748e-10 1.42016e-10
          1.44468e-10 1.46132e-10 1.4703e-10 1.47177e-10 1.46579e-10 1.45239e-10 1.43157e-10 1.40333e-10 1.36776e-10 1.32507e-10 1.27569e-10 1.22028e-10
          1.15896e-10 1.0919e-10 1.01945e-10 9.42129e-11 8.60709e-11 7.76174e-11 6.89747e-11 6.02874e-11 5.17182e-11 4.34413e-11 3.56331e-11 2.846e-11
          2.20645e-11 1.65515e-11 1.19762e-11 8.33781e-12 5.5792e-12 3.59554e-12 2.24993e-12 1.39345e-12 8.85037e-13 6.07026e-13 4.73881e-13 4.34888e-13
          6.54077e-11 6.85895e-11 7.66545e-11 8.77237e-11 1.00204e-10 1.12905e-10 1.2504e-10 1.3615e-10 1.46014e-10 1.54563e-10 1.61825e-10 1.67875e-10
          1.72806e-10 1.76715e-10 1.79687e-10 1.81793e-10 1.83086e-10 1.83604e-10 1.83367e-10 1.8238e-10 1.80639e-10 1.78131e-10 1.74844e-10 1.70765e-10
          1.65897e-10 1.60268e-10 1.53928e-10 1.46874e-10 1.39106e-10 1.30641e-10 1.21522e-10 1.11818e-10 1.01625e-10 9.10752e-11 8.03299e-11 6.95813e-11
          5.90452e-11 4.89513e-11 3.95289e-11 3.09888e-11 2.35036e-11 1.71881e-11 1.20847e-11 8.15719e-12 5.29574e-12 3.33464e-12 2.07861e-12 1.3325e-12
          9.26929e-13 7.34899e-13 6.7924e-13 9.1527e-11 9.59085e-11 1.06612e-10 1.20768e-10 1.36138e-10 1.51185e-10 1.65e-10 1.77145e-10 1.87497e-10
          1.96115e-10 2.03148e-10 2.08782e-10 2.13198e-10 2.16557e-10 2.18992e-10 2.20603e-10 2.21459e-10 2.216e-10 2.21042e-10 2.19778e-10 2.17785e-10
          2.15031e-10 2.11475e-10 2.07078e-10 2.01814e-10 1.95679e-10 1.88698e-10 1.80849e-10 1.72114e-10 1.62496e-10 1.52023e-10 1.40754e-10 1.28786e-10
          1.16253e-10 1.03335e-10 9.02522e-11 7.72617e-11 6.46494e-11 5.27125e-11 4.17388e-11 3.198e-11 2.36252e-11 1.67759e-11 1.14316e-11 7.48904e-12
          4.75908e-12 2.99884e-12 1.9518e-12 1.38599e-12 1.12161e-12 1.04609e-12 1.23567e-10 1.29165e-10 1.42333e-10 1.59061e-10 1.76477e-10 1.92801e-10
          2.07127e-10 2.1915e-10 2.28925e-10 2.36688e-10 2.42737e-10 2.47374e-10 2.50863e-10 2.53419e-10 2.55203e-10 2.56328e-10 2.56858e-10 2.5682e-10
          2.56209e-10 2.5499e-10 2.5311e-10 2.50502e-10 2.47087e-10 2.4279e-10 2.37542e-10 2.31296e-10 2.24037e-10 2.15719e-10 2.06305e-10 1.95781e-10
          1.84159e-10 1.71489e-10 1.57863e-10 1.43421e-10 1.28357e-10 1.1292e-10 9.74091e-11 8.21684e-11 6.75671e-11 5.39759e-11 4.17359e-11 3.11222e-11
          2.23101e-11 1.53495e-11 1.01564e-11 6.52657e-12 4.17177e-12 2.77014e-12 2.01851e-12 1.67358e-12 1.57734e-12 1.60565e-10 1.67174e-10 1.82108e-10
          2.00239e-10 2.18212e-10 2.34194e-10 2.47448e-10 2.57921e-10 2.65911e-10 2.71855e-10 2.76204e-10 2.79356e-10 2.81636e-10 2.83285e-10 2.84465e-10
          2.85275e-10 2.85753e-10 2.85893e-10 2.8565e-10 2.84948e-10 2.83691e-10 2.81765e-10 2.79046e-10 2.75409e-10 2.70734e-10 2.64921e-10 2.57898e-10
          2.49591e-10 2.39939e-10 2.28905e-10 2.16485e-10 2.02716e-10 1.87683e-10 1.71531e-10 1.54469e-10 1.36773e-10 1.18789e-10 1.00918e-10 8.36056e-11
          6.73118e-11 5.24739e-11 3.94638e-11 2.85426e-11 1.98239e-11 1.32553e-11 8.62704e-12 5.61e-12 3.8162e-12 2.86531e-12 2.4406e-12 2.3267e-12
          2.00957e-10 2.08137e-10 2.23654e-10 2.41513e-10 2.58152e-10 2.71927e-10 2.82438e-10 2.89966e-10 2.95083e-10 2.98421e-10 3.0055e-10 3.01934e-10
          3.02915e-10 3.03724e-10 3.04497e-10 3.05288e-10 3.06091e-10 3.06845e-10 3.07455e-10 3.07793e-10 3.07708e-10 3.07034e-10 3.05596e-10 3.03212e-10
          2.99708e-10 2.94921e-10 2.88713e-10 2.80971e-10 2.71604e-10 2.60546e-10 2.4777e-10 2.33295e-10 2.172e-10 1.9963e-10 1.80808e-10 1.61041e-10
          1.40719e-10 1.20306e-10 1.00326e-10 8.13317e-11 6.38648e-11 4.84011e-11 3.52975e-11 2.4742e-11 1.67246e-11 1.10391e-11 7.32175e-12 5.1205e-12
          3.9744e-12 3.48382e-12 3.36121e-12 2.4271e-10 2.49833e-10 2.64424e-10 2.80085e-10 2.93426e-10 3.0323e-10 3.09555e-10 3.13053e-10 3.1455e-10
          3.14828e-10 3.14526e-10 3.1412e-10 3.13926e-10 3.1413e-10 3.14808e-10 3.15951e-10 3.17488e-10 3.19295e-10 3.21216e-10 3.23066e-10 3.24639e-10
          3.25715e-10 3.26064e-10 3.25451e-10 3.23644e-10 3.20416e-10 3.15562e-10 3.0892e-10 3.00357e-10 2.89769e-10 2.771e-10 2.62345e-10 2.45569e-10
          2.26918e-10 2.06629e-10 1.85036e-10 1.62574e-10 1.39773e-10 1.17239e-10 9.56221e-11 7.55704e-11 5.76709e-11 4.23827e-11 2.9976e-11 2.04911e-11
          1.37338e-11 9.31304e-12 6.71673e-12 5.4021e-12 4.87713e-12 4.76289e-12 2.83559e-10 2.89887e-10 3.01937e-10 3.13535e-10 3.21857e-10 3.26313e-10
          3.27472e-10 3.26332e-10 3.23915e-10 3.21081e-10 3.18475e-10 3.16528e-10 3.15488e-10 3.15461e-10 3.1644e-10 3.18337e-10 3.21003e-10 3.24251e-10
          3.27858e-10 3.31583e-10 3.35168e-10 3.38343e-10 3.4083e-10 3.42346e-10 3.42605e-10 3.41324e-10 3.38232e-10 3.33114e-10 3.25782e-10 3.16089e-10
          3.03936e-10 2.8929e-10 2.72198e-10 2.528e-10 2.31342e-10 2.08187e-10 1.83815e-10 1.58823e-10 1.33899e-10 1.09793e-10 8.72649e-11 6.70137e-11
          4.96044e-11 3.53934e-11 2.44771e-11 1.66797e-11 1.15906e-11 8.64357e-12 7.21451e-12 6.70864e-12 6.63028e-12 3.21259e-10 3.26054e-10 3.3408e-10
          3.40074e-10 3.42136e-10 3.40422e-10 3.36e-10 3.30142e-10 3.23976e-10 3.18363e-10 3.13884e-10 3.10875e-10 3.0948e-10 3.09699e-10 3.11425e-10
          3.14482e-10 3.18642e-10 3.23645e-10 3.29212e-10 3.35048e-10 3.40849e-10 3.46303e-10 3.51095e-10 3.54901e-10 3.57397e-10 3.58252e-10 3.57145e-10
          3.538e-10 3.47971e-10 3.39459e-10 3.28117e-10 3.13876e-10 2.96758e-10 2.76891e-10 2.54528e-10 2.30058e-10 2.04007e-10 1.77035e-10 1.49915e-10
          1.23497e-10 9.86498e-11 7.61871e-11 5.67786e-11 4.08671e-11 2.86073e-11 1.98476e-11 1.41651e-11 1.0947e-11 9.48917e-12 9.08202e-12 9.07987e-12
          3.53829e-10 3.56447e-10 3.59292e-10 3.58651e-10 3.53812e-10 3.45713e-10 3.35849e-10 3.25666e-10 3.16302e-10 3.08541e-10 3.02843e-10 2.99411e-10
          2.98257e-10 2.99258e-10 3.02202e-10 3.06815e-10 3.12792e-10 3.19806e-10 3.27521e-10 3.35594e-10 3.43685e-10 3.5145e-10 3.58543e-10 3.64617e-10
          3.69321e-10 3.72297e-10 3.73189e-10 3.71664e-10 3.67419e-10 3.60196e-10 3.49802e-10 3.36123e-10 3.19151e-10 2.99002e-10 2.75931e-10 2.50348e-10
          2.22821e-10 1.94073e-10 1.64962e-10 1.36433e-10 1.09464e-10 8.49758e-11 6.37397e-11 4.62818e-11 3.28149e-11 2.32148e-11 1.70547e-11 1.36828e-11
          1.23166e-11 1.21176e-11 1.22469e-11 3.79725e-10 3.79698e-10 3.76651e-10 3.68933e-10 3.57162e-10 3.43016e-10 3.28312e-10 3.14557e-10 3.02815e-10
          2.93727e-10 2.87592e-10 2.84453e-10 2.84176e-10 2.86512e-10 2.91135e-10 2.97681e-10 3.05766e-10 3.14998e-10 3.24989e-10 3.35355e-10 3.45722e-10
          3.55722e-10 3.64992e-10 3.73169e-10 3.79893e-10 3.84797e-10 3.8751e-10 3.87654e-10 3.84874e-10 3.78861e-10 3.69371e-10 3.56252e-10 3.39463e-10
          3.19103e-10 2.95427e-10 2.68863e-10 2.40019e-10 2.0968e-10 1.78779e-10 1.48356e-10 1.19488e-10 9.31969e-11 7.03468e-11 5.15405e-11 3.7046e-11
          2.67699e-11 2.02879e-11 1.69184e-11 1.58018e-11 1.59529e-11 1.62858e-11 3.97941e-10 3.95019e-10 3.85863e-10 3.71199e-10 3.53002e-10 3.33586e-10
          3.14969e-10 2.98623e-10 2.85463e-10 2.75948e-10 2.70189e-10 2.68062e-10 2.69284e-10 2.73478e-10 2.80213e-10 2.89034e-10 2.99485e-10 3.11111e-10
          3.23474e-10 3.36153e-10 3.48741e-10 3.6085e-10 3.72102e-10 3.82133e-10 3.90581e-10 3.9709e-10 4.01295e-10 4.02789e-10 4.01179e-10 3.96116e-10
          3.87317e-10 3.74595e-10 3.57882e-10 3.37259e-10 3.12981e-10 2.85494e-10 2.55442e-10 2.23664e-10 1.91165e-10 1.5907e-10 1.28545e-10 1.00703e-10
[...]
      <CellData Scalars="process rank">
        <DataArray type="Float32" Name="process rank" NumberOfComponents="1" format="ascii">
          0 0 0 0 0 0 0 0 0 0 0 0
          0 0 0 0 0 0 0 0 0 0 0 0
          0 0 0 0 0 0 0 0 0 0 0 0
          0 0 0 0 0 0 0 0 0 0 0 0
          0 0 0 0 0 0 0 0 0 0 0 0
          0 0 0 0 0 0 0 0 0 0 0 0
          0 0 0 0 0 0 0 0 0 0 0 0
          0 0 0 0 0 0 0 0 0 0 0 0
          0 0 0 0 0 0 0 0 0 0 0 0
          0 0 0 0 0 0 0 0 0 0 0 0
          0 0 0 0 0 0 0 0 0 0 0 0
          0 0 0 0 0 0 0 0 0 0 0 0
          0 0 0 0 0 0 0 0 0 0 0 0
          0 0 0 0 0 0 0 0 0 0 0 0
          0 0 0 0 0 0 0 0 0 0 0 0
          0 0 0 0 0 0 0 0 0 0 0 0
          0 0 0 0 0 0 0 0 0 0 0 0
          0 0 0 0 0 0 0 0 0 0 0 0
          0 0 0 0 0 0 0 0 0 0 0 0
          0 0 0 0 0 0 0 0 0 0 0 0
          0 0 0 0 0 0 0 0 0 0 0 0
          0 0 0 0 0 0 0 0 0 0 0 0
          0 0 0 0 0 0 0 0 0 0 0 0
          0 0 0 0 0 0 0 0 0 0 0 0
          0 0 0 0 0 0 0 0 0 0 0 0
          0 0 0 0 0 0 0 0 0 0 0 0
          0 0 0 0 0 0 0 0 0 0 0 0
          0 0 0 0 0 0 0 0 0 0 0 0
          0 0 0 0 0 0 0 0 0 0 0 0
          0 0 0 0 0 0 0 0 0 0 0 0
          0 0 0 0 0 0 0 0 0 0 0 0
          0 0 0 0 0 0 0 0 0 0 0 0
          0 0 0 0 0 0 0 0 0 0 0 0
          0 0 0 0 0 0 0 0 0 0 0 0
          0 0 0 0 0 0 0 0 0 0 0 0
          0 0 0 0 0 0 0 0 0 0 0 0
          0 0 0 0 0 0 0 0 0 0 0 0
          0 0 0 0 0 0 0 0 0 0 0 0
          0 0 0 0 0 0 0 0 0 0 0 0
          0 0 0 0 0 0 0 0 0 0 0 0
          0 0 0 0 0 0 0 0 0 0 0 0
          0 0 0 0 0 0 0 0 0 0 0 0
          0 0 0 0 0 0 0 0 0 0 0 0
          0 0 0 0 0 0 0 0 0 0 0 0
          0 0 0 0 0 0 0 0 0 0 0 0
          0 0 0 0 0 0 0 0 0 0 0 0
          0 0 0 0 0 0 0 0 0 0 0 0
          0 0 0 0 0 0 0 0 0 0 0 0
          0 0 0 0 0 0 0 0 0 0 0 0
          0 0 0 0 0 0 0 0 0 0 0 0
          0 0 0 0 0 0 0 0 0 0 0 0
          0 0 0 0 0 0 0 0 0 0 0 0
          0 0 0 0 0 0 0 0 0 0 0 0
          0 0 0 0 0 0 0 0 0 0 0 0
          0 0 0 0 0 0 0 0 0 0 0 0
          0 0 0 0 0 0 0 0 0 0 0 0
          0 0 0 0 0 0 0 0 0 0 0 0
          0 0 0 0 0 0 0 0 0 0 0 0
          0 0 0 0 0 0 0 0 0 0 0 0
          0 0 0 0 0 0 0 0 0 0 0 0
          0 0 0 0 0 0 0 0 0 0 0 0
          0 0 0 0 0 0 0 0 0 0 0 0
          0 0 0 0 0 0 0 0 0 0 0 0
          0 0 0 0 0 0 0 0 0 0 0 0
          0 0 0 0 0 0 0 0 0 0 0 0
          0 0 0 0 0 0 0 0 0 0 0 0
          0 0 0 0 0 0 0 0 0 0 0 0
          0 0 0 0 0 0 0 0 0 0 0 0
          0 0 0 0 0 0 0 0 0 0 0 0
          0 0 0 0 0 0 0 0 0 0 0 0
          0 0 0 0 0 0 0 0 0 0 0 0
          0 0 0 0 0 0 0 0 0 0 0 0
          0 0 0 0 0 0 0 0 0 0 0 0
          0 0 0 0 0 0 0 0 0 0 0 0
          0 0 0 0 0 0 0 0 0 0 0 0
          0 0 0 0 0 0 0 0 0 0 0 0
          0 0 0 0 0 0 0 0 0 0 0 0
          0 0 0 0 0 0 0 0 0 0 0 0
          0 0 0 0 0 0 0 0 0 0 0 0
          0 0 0 0 0 0 0 0 0 0 0 0
          0 0 0 0 0 0 0 0 0 0 0 0
          0 0 0 0 0 0 0 0 0 0 0 0
          0 0 0 0 0 0 0 0 0 0 0 0
          0 0 0 0 0 0 0 0 0 0 0 0
          0 0 0 0 0 0 0 0 0 0 0 0
          0 0 0 0 0 0 0 0 0 0 0 0
          0 0 0 0 0 0 0 0 0 0 0 0
          0 0 0 0 0 0 0 0 0 0 0 0
          0 0 0 0 0 0 0 0 0 0 0 0
          0 0 0 0 0 0 0 0 0 0 0 0
          0 0 0 0 0 0 0 0 0 0 0 0
          0 0 0 0 0 0 0 0 0 0 0 0
          0 0 0 0 0 0 0 0 0 0 0 0
          0 0 0 0 0 0 0 0 0 0 0 0
          0 0 0 0 0 0 0 0 0 0 0 0
          0 0 0 0 0 0 0 0 0 0 0 0
          0 0 0 0 0 0 0 0 0 0 0 0
          0 0 0 0 0 0 0 0 0 0 0 0
          0 0 0 0 0 0 0 0 0 0 0 0
          0 0 0 0 0 0 0 0 0 0 0 0
          0 0 0 0 0 0 0 0 0 0 0 0
          0 0 0 0 0 0 0 0 0 0 0 0
          0 0 0 0 0 0 0 0 0 0 0 0
          0 0 0 0 0 0 0 0 0 0 0 0
          0 0 0 0 0 0 0 0 0 0 0 0
          0 0 0 0 0 0 0 0 0 0 0 0
          0 0 0 0 0 0 0 0 0 0 0 0
          0 0 0 0 0 0 0 0 0 0 0 0
          0 0 0 0 0 0 0 0 0 0 0 0
          0 0 0 0 0 0 0 0 0 0 0 0
          0 0 0 0 0 0 0 0 0 0 0 0
          0 0 0 0 0 0 0 0 0 0 0 0
          0 0 0 0 0 0 0 0 0 0 0 0
          0 0 0 0 0 0 0 0 0 0 0 0
          0 0 0 0 0 0 0 0 0 0 0 0
          0 0 0 0 0 0 0 0 0 0 0 0
          0 0 0 0 0 0 0 0 0 0 0 0
          0 0 0 0 0 0 0 0 0 0 0 0
          0 0 0 0 0 0 0 0 0 0 0 0
          0 0 0 0 0 0 0 0 0 0 0 0
          0 0 0 0 0 0 0 0 0 0 0 0
          0 0 0 0 0 0 0 0 0 0 0 0
          0 0 0 0 0 0 0 0 0 0 0 0
          0 0 0 0 0 0 0 0 0 0 0 0
          0 0 0 0 0 0 0 0 0 0 0 0
          0 0 0 0 0 0 0 0 0 0 0 0
          0 0 0 0 0 0 0 0 0 0 0 0
          0 0 0 0 0 0 0 0 0 0 0 0
          0 0 0 0 0 0 0 0 0 0 0 0
          0 0 0 0 0 0 0 0 0 0 0 0
          0 0 0 0 0 0 0 0 0 0 0 0
          0 0 0 0 0 0 0 0 0 0 0 0
          0 0 0 0 0 0 0 0 0 0 0 0
          0 0 0 0 0 0 0 0 0 0 0 0
          0 0 0 0 0 0 0 0 0 0 0 0
          0 0 0 0 0 0 0 0 0 0 0 0
          0 0 0 0 0 0 0 0 0 0 0 0
          0 0 0 0 0 0 0 0 0 0 0 0
          0 0 0 0 0 0 0 0 0 0 0 0
          0 0 0 0 0 0 0 0 0 0 0 0
          0 0 0 0 0 0 0 0 0 0 0 0
          0 0 0 0 0 0 0 0 0 0 0 0
          0 0 0 0 0 0 0 0 0 0 0 0
          0 0 0 0 0 0 0 0 0 0 0 0
          0 0 0 0 0 0 0 0 0 0 0 0
          0 0 0 0 0 0 0 0 0 0 0 0
          0 0 0 0 0 0 0 0 0 0 0 0
          0 0 0 0 0 0 0 0 0 0 0 0
          0 0 0 0 0 0 0 0 0 0 0 0
          0 0 0 0 0 0 0 0 0 0 0 0
          0 0 0 0 0 0 0 0 0 0 0 0
          0 0 0 0 0 0 0 0 0 0 0 0
          0 0 0 0 0 0 0 0 0 0 0 0
          0 0 0 0 0 0 0 0 0 0 0 0
          0 0 0 0 0 0 0 0 0 0 0 0
          0 0 0 0 0 0 0 0 0 0 0 0
          0 0 0 0 0 0 0 0 0 0 0 0
          0 0 0 0 0 0 0 0 0 0 0 0
          0 0 0 0 0 0 0 0 0 0 0 0
          0 0 0 0 0 0 0 0 0 0 0 0
          0 0 0 0 0 0 0 0 0 0 0 0
          0 0 0 0 0 0 0 0 0 0 0 0
          0 0 0 0 0 0 0 0 0 0 0 0
          0 0 0 0 0 0 0 0 0 0 0 0
          0 0 0 0 0 0 0 0 0 0 0 0
          0 0 0 0 0 0 0 0 0 0 0 0
          0 0 0 0 0 0 0 0 0 0 0 0
          0 0 0 0 0 0 0 0 0 0 0 0
          0 0 0 0 0 0 0 0 0 0 0 0
          0 0 0 0 0 0 0 0 0 0 0 0
          0 0 0 0 0 0 0 0 0 0 0 0
          0 0 0 0 0 0 0 0 0 0 0 0
          0 0 0 0 0 0 0 0 0 0 0 0
          0 0 0 0 0 0 0 0 0 0 0 0
          0 0 0 0 0 0 0 0 0 0 0 0
          0 0 0 0 0 0 0 0 0 0 0 0
          0 0 0 0 0 0 0 0 0 0 0 0
          0 0 0 0 0 0 0 0 0 0 0 0
          0 0 0 0 0 0 0 0 0 0 0 0
          0 0 0 0 0 0 0 0 0 0 0 0
          0 0 0 0 0 0 0 0 0 0 0 0
          0 0 0 0 0 0 0 0 0 0 0 0
          0 0 0 0 0 0 0 0 0 0 0 0
          0 0 0 0 0 0 0 0 0 0 0 0
          0 0 0 0 0 0 0 0 0 0 0 0
          0 0 0 0 0 0 0 0 0 0 0 0
          0 0 0 0 0 0 0 0 0 0 0 0
          0 0 0 0 0 0 0 0 0 0 0 0
          0 0 0 0 0 0 0 0 0 0 0 0
          0 0 0 0 0 0 0 0 0 0 0 0
          0 0 0 0 0 0 0 0 0 0 0 0
          0 0 0 0 0 0 0 0 0 0 0 0
          0 0 0 0 0 0 0 0 0 0 0 0
          0 0 0 0 0 0 0 0 0 0 0 0
          0 0 0 0 0 0 0 0 0 0 0 0
          0 0 0 0 0 0 0 0 0 0 0 0
          0 0 0 0 0 0 0 0 0 0 0 0
          0 0 0 0 0 0 0 0 0 0 0 0
          0 0 0 0 0 0 0 0 0 0 0 0
          0 0 0 0 0 0 0 0 0 0 0 0
          0 0 0 0 0 0 0 0 0 0 0 0
          0 0 0 0 0 0 0 0 0 0 0 0
          0 0 0 0 0 0 0 0 0 0 0 0
          0 0 0 0 0 0 0 0 0 0 0 0
          0 0 0 0 0 0 0 0 0 0 0 0
          0 0 0 0 0 0 0 0 0 0 0 0
          0 0 0 0 0 0 0 0 0 0 0 0
          0 0 0 0 0 0 0 0 0 0 0 0
          0 0 0 0
        </DataArray>
      </CellData>
      <Points>
        <DataArray type="Float32" Name="Coordinates" NumberOfComponents="3" format="ascii">
          0 0 0 0.02 0 0 0 0.02 0 0.02 0.02 0
          0.04 0 0 0.04 0.02 0 0.06 0 0 0.06 0.02 0
          0.08 0 0 0.08 0.02 0 0.1 0 0 0.1 0.02 0
          0.12 0 0 0.12 0.02 0 0.14 0 0 0.14 0.02 0
          0.16 0 0 0.16 0.02 0 0.18 0 0 0.18 0.02 0
          0.2 0 0 0.2 0.02 0 0.22 0 0 0.22 0.02 0
          0.24 0 0 0.24 0.02 0 0.26 0 0 0.26 0.02 0
          0.28 0 0 0.28 0.02 0 0.3 0 0 0.3 0.02 0
          0.32 0 0 0.32 0.02 0 0.34 0 0 0.34 0.02 0
          0.36 0 0 0.36 0.02 0 0.38 0 0 0.38 0.02 0
          0.4 0 0 0.4 0.02 0 0.42 0 0 0.42 0.02 0
          0.44 0 0 0.44 0.02 0 0.46 0 0 0.46 0.02 0
          0.48 0 0 0.48 0.02 0 0.5 0 0 0.5 0.02 0
          0.52 0 0 0.52 0.02 0 0.54 0 0 0.54 0.02 0
          0.56 0 0 0.56 0.02 0 0.58 0 0 0.58 0.02 0
          0.6 0 0 0.6 0.02 0 0.62 0 0 0.62 0.02 0
          0.64 0 0 0.64 0.02 0 0.66 0 0 0.66 0.02 0
          0.68 0 0 0.68 0.02 0 0.7 0 0 0.7 0.02 0
          0.72 0 0 0.72 0.02 0 0.74 0 0 0.74 0.02 0
          0.76 0 0 0.76 0.02 0 0.78 0 0 0.78 0.02 0
          0.8 0 0 0.8 0.02 0 0.82 0 0 0.82 0.02 0
          0.84 0 0 0.84 0.02 0 0.86 0 0 0.86 0.02 0
          0.88 0 0 0.88 0.02 0 0.9 0 0 0.9 0.02 0
          0.92 0 0 0.92 0.02 0 0.94 0 0 0.94 0.02 0
          0.96 0 0 0.96 0.02 0 0.98 0 0 0.98 0.02 0
          1 0 0 1 0.02 0 0 0.04 0 0.02 0.04 0
          0.04 0.04 0 0.06 0.04 0 0.08 0.04 0 0.1 0.04 0
          0.12 0.04 0 0.14 0.04 0 0.16 0.04 0 0.18 0.04 0
          0.2 0.04 0 0.22 0.04 0 0.24 0.04 0 0.26 0.04 0
          0.28 0.04 0 0.3 0.04 0 0.32 0.04 0 0.34 0.04 0
          0.36 0.04 0 0.38 0.04 0 0.4 0.04 0 0.42 0.04 0
          0.44 0.04 0 0.46 0.04 0 0.48 0.04 0 0.5 0.04 0
          0.52 0.04 0 0.54 0.04 0 0.56 0.04 0 0.58 0.04 0
          0.6 0.04 0 0.62 0.04 0 0.64 0.04 0 0.66 0.04 0
          0.68 0.04 0 0.7 0.04 0 0.72 0.04 0 0.74 0.04 0
          0.76 0.04 0 0.78 0.04 0 0.8 0.04 0 0.82 0.04 0
          0.84 0.04 0 0.86 0.04 0 0.88 0.04 0 0.9 0.04 0
          0.92 0.04 0 0.94 0.04 0 0.96 0.04 0 0.98 0.04 0
          1 0.04 0 0 0.06 0 0.02 0.06 0 0.04 0.06 0
          0.06 0.06 0 0.08 0.06 0 0.1 0.06 0 0.12 0.06 0
          0.14 0.06 0 0.16 0.06 0 0.18 0.06 0 0.2 0.06 0
          0.22 0.06 0 0.24 0.06 0 0.26 0.06 0 0.28 0.06 0
          0.3 0.06 0 0.32 0.06 0 0.34 0.06 0 0.36 0.06 0
          0.38 0.06 0 0.4 0.06 0 0.42 0.06 0 0.44 0.06 0
          0.46 0.06 0 0.48 0.06 0 0.5 0.06 0 0.52 0.06 0
          0.54 0.06 0 0.56 0.06 0 0.58 0.06 0 0.6 0.06 0
          0.62 0.06 0 0.64 0.06 0 0.66 0.06 0 0.68 0.06 0
          0.7 0.06 0 0.72 0.06 0 0.74 0.06 0 0.76 0.06 0
          0.78 0.06 0 0.8 0.06 0 0.82 0.06 0 0.84 0.06 0
          0.86 0.06 0 0.88 0.06 0 0.9 0.06 0 0.92 0.06 0
          0.94 0.06 0 0.96 0.06 0 0.98 0.06 0 1 0.06 0
          0 0.08 0 0.02 0.08 0 0.04 0.08 0 0.06 0.08 0
          0.08 0.08 0 0.1 0.08 0 0.12 0.08 0 0.14 0.08 0
          0.16 0.08 0 0.18 0.08 0 0.2 0.08 0 0.22 0.08 0
          0.24 0.08 0 0.26 0.08 0 0.28 0.08 0 0.3 0.08 0
          0.32 0.08 0 0.34 0.08 0 0.36 0.08 0 0.38 0.08 0
          0.4 0.08 0 0.42 0.08 0 0.44 0.08 0 0.46 0.08 0
          0.48 0.08 0 0.5 0.08 0 0.52 0.08 0 0.54 0.08 0
          0.56 0.08 0 0.58 0.08 0 0.6 0.08 0 0.62 0.08 0
          0.64 0.08 0 0.66 0.08 0 0.68 0.08 0 0.7 0.08 0
          0.72 0.08 0 0.74 0.08 0 0.76 0.08 0 0.78 0.08 0
          0.8 0.08 0 0.82 0.08 0 0.84 0.08 0 0.86 0.08 0
          0.88 0.08 0 0.9 0.08 0 0.92 0.08 0 0.94 0.08 0
          0.96 0.08 0 0.98 0.08 0 1 0.08 0 0 0.1 0
          0.02 0.1 0 0.04 0.1 0 0.06 0.1 0 0.08 0.1 0
          0.1 0.1 0 0.12 0.1 0 0.14 0.1 0 0.16 0.1 0
          0.18 0.1 0 0.2 0.1 0 0.22 0.1 0 0.24 0.1 0
          0.26 0.1 0 0.28 0.1 0 0.3 0.1 0 0.32 0.1 0
          0.34 0.1 0 0.36 0.1 0 0.38 0.1 0 0.4 0.1 0
          0.42 0.1 0 0.44 0.1 0 0.46 0.1 0 0.48 0.1 0
          0.5 0.1 0 0.52 0.1 0 0.54 0.1 0 0.56 0.1 0
          0.58 0.1 0 0.6 0.1 0 0.62 0.1 0 0.64 0.1 0
          0.66 0.1 0 0.68 0.1 0 0.7 0.1 0 0.72 0.1 0
          0.74 0.1 0 0.76 0.1 0 0.78 0.1 0 0.8 0.1 0
          0.82 0.1 0 0.84 0.1 0 0.86 0.1 0 0.88 0.1 0
          0.9 0.1 0 0.92 0.1 0 0.94 0.1 0 0.96 0.1 0
          0.98 0.1 0 1 0.1 0 0 0.12 0 0.02 0.12 0
          0.04 0.12 0 0.06 0.12 0 0.08 0.12 0 0.1 0.12 0
          0.12 0.12 0 0.14 0.12 0 0.16 0.12 0 0.18 0.12 0
          0.2 0.12 0 0.22 0.12 0 0.24 0.12 0 0.26 0.12 0
          0.28 0.12 0 0.3 0.12 0 0.32 0.12 0 0.34 0.12 0
          0.36 0.12 0 0.38 0.12 0 0.4 0.12 0 0.42 0.12 0
          0.44 0.12 0 0.46 0.12 0 0.48 0.12 0 0.5 0.12 0
          0.52 0.12 0 0.54 0.12 0 0.56 0.12 0 0.58 0.12 0
          0.6 0.12 0 0.62 0.12 0 0.64 0.12 0 0.66 0.12 0
          0.68 0.12 0 0.7 0.12 0 0.72 0.12 0 0.74 0.12 0
          0.76 0.12 0 0.78 0.12 0 0.8 0.12 0 0.82 0.12 0
          0.84 0.12 0 0.86 0.12 0 0.88 0.12 0 0.9 0.12 0
          0.92 0.12 0 0.94 0.12 0 0.96 0.12 0 0.98 0.12 0
          1 0.12 0 0 0.14 0 0.02 0.14 0 0.04 0.14 0
          0.06 0.14 0 0.08 0.14 0 0.1 0.14 0 0.12 0.14 0
          0.14 0.14 0 0.16 0.14 0 0.18 0.14 0 0.2 0.14 0
          0.22 0.14 0 0.24 0.14 0 0.26 0.14 0 0.28 0.14 0
          0.3 0.14 0 0.32 0.14 0 0.34 0.14 0 0.36 0.14 0
          0.38 0.14 0 0.4 0.14 0 0.42 0.14 0 0.44 0.14 0
          0.46 0.14 0 0.48 0.14 0 0.5 0.14 0 0.52 0.14 0
          0.54 0.14 0 0.56 0.14 0 0.58 0.14 0 0.6 0.14 0
          0.62 0.14 0 0.64 0.14 0 0.66 0.14 0 0.68 0.14 0
          0.7 0.14 0 0.72 0.14 0 0.74 0.14 0 0.76 0.14 0
          0.78 0.14 0 0.8 0.14 0 0.82 0.14 0 0.84 0.14 0
          0.86 0.14 0 0.88 0.14 0 0.9 0.14 0 0.92 0.14 0
          0.94 0.14 0 0.96 0.14 0 0.98 0.14 0 1 0.14 0
          0 0.16 0 0.02 0.16 0 0.04 0.16 0 0.06 0.16 0
          0.08 0.16 0 0.1 0.16 0 0.12 0.16 0 0.14 0.16 0
          0.16 0.16 0 0.18 0.16 0 0.2 0.16 0 0.22 0.16 0
          0.24 0.16 0 0.26 0.16 0 0.28 0.16 0 0.3 0.16 0
          0.32 0.16 0 0.34 0.16 0 0.36 0.16 0 0.38 0.16 0
          0.4 0.16 0 0.42 0.16 0 0.44 0.16 0 0.46 0.16 0
          0.48 0.16 0 0.5 0.16 0 0.52 0.16 0 0.54 0.16 0
          0.56 0.16 0 0.58 0.16 0 0.6 0.16 0 0.62 0.16 0
          0.64 0.16 0 0.66 0.16 0 0.68 0.16 0 0.7 0.16 0
          0.72 0.16 0 0.74 0.16 0 0.76 0.16 0 0.78 0.16 0
          0.8 0.16 0 0.82 0.16 0 0.84 0.16 0 0.86 0.16 0
          0.88 0.16 0 0.9 0.16 0 0.92 0.16 0 0.94 0.16 0
          0.96 0.16 0 0.98 0.16 0 1 0.16 0 0 0.18 0
          0.02 0.18 0 0.04 0.18 0 0.06 0.18 0 0.08 0.18 0
          0.1 0.18 0 0.12 0.18 0 0.14 0.18 0 0.16 0.18 0
          0.18 0.18 0 0.2 0.18 0 0.22 0.18 0 0.24 0.18 0
          0.26 0.18 0 0.28 0.18 0 0.3 0.18 0 0.32 0.18 0
          0.34 0.18 0 0.36 0.18 0 0.38 0.18 0 0.4 0.18 0
          0.42 0.18 0 0.44 0.18 0 0.46 0.18 0 0.48 0.18 0
          0.5 0.18 0 0.52 0.18 0 0.54 0.18 0 0.56 0.18 0
          0.58 0.18 0 0.6 0.18 0 0.62 0.18 0 0.64 0.18 0
          0.66 0.18 0 0.68 0.18 0 0.7 0.18 0 0.72 0.18 0
          0.74 0.18 0 0.76 0.18 0 0.78 0.18 0 0.8 0.18 0
          0.82 0.18 0 0.84 0.18 0 0.86 0.18 0 0.88 0.18 0
          0.9 0.18 0 0.92 0.18 0 0.94 0.18 0 0.96 0.18 0
          0.98 0.18 0 1 0.18 0 0 0.2 0 0.02 0.2 0
          0.04 0.2 0 0.06 0.2 0 0.08 0.2 0 0.1 0.2 0
          0.12 0.2 0 0.14 0.2 0 0.16 0.2 0 0.18 0.2 0
          0.2 0.2 0 0.22 0.2 0 0.24 0.2 0 0.26 0.2 0
          0.28 0.2 0 0.3 0.2 0 0.32 0.2 0 0.34 0.2 0
          0.36 0.2 0 0.38 0.2 0 0.4 0.2 0 0.42 0.2 0
          0.44 0.2 0 0.46 0.2 0 0.48 0.2 0 0.5 0.2 0
          0.52 0.2 0 0.54 0.2 0 0.56 0.2 0 0.58 0.2 0
          0.6 0.2 0 0.62 0.2 0 0.64 0.2 0 0.66 0.2 0
          0.68 0.2 0 0.7 0.2 0 0.72 0.2 0 0.74 0.2 0
          0.76 0.2 0 0.78 0.2 0 0.8 0.2 0 0.82 0.2 0
          0.84 0.2 0 0.86 0.2 0 0.88 0.2 0 0.9 0.2 0
          0.92 0.2 0 0.94 0.2 0 0.96 0.2 0 0.98 0.2 0
          1 0.2 0 0 0.22 0 0.02 0.22 0 0.04 0.22 0
          0.06 0.22 0 0.08 0.22 0 0.1 0.22 0 0.12 0.22 0
          0.14 0.22 0 0.16 0.22 0 0.18 0.22 0 0.2 0.22 0
          0.22 0.22 0 0.24 0.22 0 0.26 0.22 0 0.28 0.22 0
          0.3 0.22 0 0.32 0.22 0 0.34 0.22 0 0.36 0.22 0
          0.38 0.22 0 0.4 0.22 0 0.42 0.22 0 0.44 0.22 0
          0.46 0.22 0 0.48 0.22 0 0.5 0.22 0 0.52 0.22 0
          0.54 0.22 0 0.56 0.22 0 0.58 0.22 0 0.6 0.22 0
          0.62 0.22 0 0.64 0.22 0 0.66 0.22 0 0.68 0.22 0
          0.7 0.22 0 0.72 0.22 0 0.74 0.22 0 0.76 0.22 0
          0.78 0.22 0 0.8 0.22 0 0.82 0.22 0 0.84 0.22 0
          0.86 0.22 0 0.88 0.22 0 0.9 0.22 0 0.92 0.22 0
          0.94 0.22 0 0.96 0.22 0 0.98 0.22 0 1 0.22 0
          0 0.24 0 0.02 0.24 0 0.04 0.24 0 0.06 0.24 0
          0.08 0.24 0 0.1 0.24 0 0.12 0.24 0 0.14 0.24 0
          0.16 0.24 0 0.18 0.24 0 0.2 0.24 0 0.22 0.24 0
          0.24 0.24 0 0.26 0.24 0 0.28 0.24 0 0.3 0.24 0
          0.32 0.24 0 0.34 0.24 0 0.36 0.24 0 0.38 0.24 0
          0.4 0.24 0 0.42 0.24 0 0.44 0.24 0 0.46 0.24 0
          0.48 0.24 0 0.5 0.24 0 0.52 0.24 0 0.54 0.24 0
          0.56 0.24 0 0.58 0.24 0 0.6 0.24 0 0.62 0.24 0
          0.64 0.24 0 0.66 0.24 0 0.68 0.24 0 0.7 0.24 0
          0.72 0.24 0 0.74 0.24 0 0.76 0.24 0 0.78 0.24 0
          0.8 0.24 0 0.82 0.24 0 0.84 0.24 0 0.86 0.24 0
          0.88 0.24 0 0.9 0.24 0 0.92 0.24 0 0.94 0.24 0
          0.96 0.24 0 0.98 0.24 0 1 0.24 0 0 0.26 0
          0.02 0.26 0 0.04 0.26 0 0.06 0.26 0 0.08 0.26 0
          0.1 0.26 0 0.12 0.26 0 0.14 0.26 0 0.16 0.26 0
          0.18 0.26 0 0.2 0.26 0 0.22 0.26 0 0.24 0.26 0
          0.26 0.26 0 0.28 0.26 0 0.3 0.26 0 0.32 0.26 0
          0.34 0.26 0 0.36 0.26 0 0.38 0.26 0 0.4 0.26 0
          0.42 0.26 0 0.44 0.26 0 0.46 0.26 0 0.48 0.26 0
          0.5 0.26 0 0.52 0.26 0 0.54 0.26 0 0.56 0.26 0
          0.58 0.26 0 0.6 0.26 0 0.62 0.26 0 0.64 0.26 0
          0.66 0.26 0 0.68 0.26 0 0.7 0.26 0 0.72 0.26 0
          0.74 0.26 0 0.76 0.26 0 0.78 0.26 0 0.8 0.26 0
          0.82 0.26 0 0.84 0.26 0 0.86 0.26 0 0.88 0.26 0
          0.9 0.26 0 0.92 0.26 0 0.94 0.26 0 0.96 0.26 0
          0.98 0.26 0 1 0.26 0 0 0.28 0 0.02 0.28 0
          0.04 0.28 0 0.06 0.28 0 0.08 0.28 0 0.1 0.28 0
          0.12 0.28 0 0.14 0.28 0 0.16 0.28 0 0.18 0.28 0
          0.2 0.28 0 0.22 0.28 0 0.24 0.28 0 0.26 0.28 0
          0.28 0.28 0 0.3 0.28 0 0.32 0.28 0 0.34 0.28 0
          0.36 0.28 0 0.38 0.28 0 0.4 0.28 0 0.42 0.28 0
          0.44 0.28 0 0.46 0.28 0 0.48 0.28 0 0.5 0.28 0
          0.52 0.28 0 0.54 0.28 0 0.56 0.28 0 0.58 0.28 0
          0.6 0.28 0 0.62 0.28 0 0.64 0.28 0 0.66 0.28 0
          0.68 0.28 0 0.7 0.28 0 0.72 0.28 0 0.74 0.28 0
          0.76 0.28 0 0.78 0.28 0 0.8 0.28 0 0.82 0.28 0
          0.84 0.28 0 0.86 0.28 0 0.88 0.28 0 0.9 0.28 0
          0.92 0.28 0 0.94 0.28 0 0.96 0.28 0 0.98 0.28 0
          1 0.28 0 0 0.3 0 0.02 0.3 0 0.04 0.3 0
          0.06 0.3 0 0.08 0.3 0 0.1 0.3 0 0.12 0.3 0
          0.14 0.3 0 0.16 0.3 0 0.18 0.3 0 0.2 0.3 0
          0.22 0.3 0 0.24 0.3 0 0.26 0.3 0 0.28 0.3 0
          0.3 0.3 0 0.32 0.3 0 0.34 0.3 0 0.36 0.3 0
          0.38 0.3 0 0.4 0.3 0 0.42 0.3 0 0.44 0.3 0
          0.46 0.3 0 0.48 0.3 0 0.5 0.3 0 0.52 0.3 0
          0.54 0.3 0 0.56 0.3 0 0.58 0.3 0 0.6 0.3 0
          0.62 0.3 0 0.64 0.3 0 0.66 0.3 0 0.68 0.3 0
          0.7 0.3 0 0.72 0.3 0 0.74 0.3 0 0.76 0.3 0
          0.78 0.3 0 0.8 0.3 0 0.82 0.3 0 0.84 0.3 0
          0.86 0.3 0 0.88 0.3 0 0.9 0.3 0 0.92 0.3 0
          0.94 0.3 0 0.96 0.3 0 0.98 0.3 0 1 0.3 0
          0 0.32 0 0.02 0.32 0 0.04 0.32 0 0.06 0.32 0
          0.08 0.32 0 0.1 0.32 0 0.12 0.32 0 0.14 0.32 0
          0.16 0.32 0 0.18 0.32 0 0.2 0.32 0 0.22 0.32 0
          0.24 0.32 0 0.26 0.32 0 0.28 0.32 0 0.3 0.32 0
          0.32 0.32 0 0.34 0.32 0 0.36 0.32 0 0.38 0.32 0
          0.4 0.32 0 0.42 0.32 0 0.44 0.32 0 0.46 0.32 0
          0.48 0.32 0 0.5 0.32 0 0.52 0.32 0 0.54 0.32 0
          0.56 0.32 0 0.58 0.32 0 0.6 0.32 0 0.62 0.32 0
          0.64 0.32 0 0.66 0.32 0 0.68 0.32 0 0.7 0.32 0
          0.72 0.32 0 0.74 0.32 0 0.76 0.32 0 0.78 0.32 0
          0.8 0.32 0 0.82 0.32 0 0.84 0.32 0 0.86 0.32 0
          0.88 0.32 0 0.9 0.32 0 0.92 0.32 0 0.94 0.32 0
          0.96 0.32 0 0.98 0.32 0 1 0.32 0 0 0.34 0
          0.02 0.34 0 0.04 0.34 0 0.06 0.34 0 0.08 0.34 0
          0.1 0.34 0 0.12 0.34 0 0.14 0.34 0 0.16 0.34 0
          0.18 0.34 0 0.2 0.34 0 0.22 0.34 0 0.24 0.34 0
          0.26 0.34 0 0.28 0.34 0 0.3 0.34 0 0.32 0.34 0
          0.34 0.34 0 0.36 0.34 0 0.38 0.34 0 0.4 0.34 0
          0.42 0.34 0 0.44 0.34 0 0.46 0.34 0 0.48 0.34 0
          0.5 0.34 0 0.52 0.34 0 0.54 0.34 0 0.56 0.34 0
          0.58 0.34 0 0.6 0.34 0 0.62 0.34 0 0.64 0.34 0
          0.66 0.34 0 0.68 0.34 0 0.7 0.34 0 0.72 0.34 0
          0.74 0.34 0 0.76 0.34 0 0.78 0.34 0 0.8 0.34 0