<?xml version="1.0"?>
<VTKFile type="UnstructuredGrid" version="0.1" byte_order="LittleEndian">
  <UnstructuredGrid>
    <Piece NumberOfCells="973" NumberOfPoints="612">
      <CellData Scalars="bedSurface">
        <DataArray type="Float32" Name="bedSurface" NumberOfComponents="1" format="ascii">
          9.96021 9.95611 9.94903 9.96736 9.95401 9.95183 9.9522 9.94959 9.9429 9.97193 9.97329 9.97298
          9.96814 9.95579 9.96353 9.95987 9.97785 9.94976 9.9523 9.96492 9.95912 9.95356 9.94674 9.96855
          9.97209 9.95263 9.95999 9.97595 9.96922 9.95229 9.96529 9.96267 9.95606 9.94156 9.9617 9.95993
          9.95464 9.96672 9.95718 9.97288 9.94683 9.96307 9.95418 9.94602 9.94674 9.96885 9.96219 9.95589
          9.95145 9.95074 9.95768 9.96935 9.97739 9.95189 9.98041 9.95244 9.97246 9.97688 9.94698 9.98439
          9.9905 9.98166 9.99037 9.98001 9.97765 9.98934 9.98489 9.98893 9.98496 9.97921 9.99028 9.98827
          9.99214 9.97846 9.95883 9.96792 9.97403 9.97985 9.97903 9.97995 9.97021 9.97611 9.97541 9.97038
          9.97519 9.97722 9.96386 9.9657 9.96054 9.97584 9.97697 9.97745 9.97129 9.97937 9.97971 9.97446
          9.98116 9.96665 9.97669 9.96931 9.97838 9.9767 9.95814 9.97531 9.96222 9.97502 9.97585 9.97908
          9.97427 9.97638 9.97824 9.98695 9.97698 9.9841 9.99078 9.9831 9.99185 9.98034 9.97848 9.98701
          9.98002 9.993 9.99034 9.98525 9.9894 9.98925 9.99174 9.97946 9.97743 9.97488 9.96828 9.97956
          9.96947 9.9661 9.94794 9.94537 9.96158 9.96128 9.97919 9.96588 9.96334 9.97686 9.97497 9.94118
          9.97477 9.97814 9.96256 9.9782 9.96278 9.97504 9.9767 9.96786 9.97327 9.97902 9.97104 9.96447
          9.99345 9.93195 9.96948 9.96684 9.93403 9.99283 9.98971 9.98278 9.98155 9.9896 9.98393 9.98827
          9.99156 9.9787 9.97749 9.99226 9.98688 9.97905 9.97843 9.9882 9.99154 9.97693 9.98652 9.99142
          9.98178 9.99055 9.98421 9.98881 9.97823 9.97878 9.99044 9.98965 9.99273 9.98629 9.98005 9.98085
          9.97658 9.99263 9.97978 9.98843 9.99372 9.93098 9.93067 9.99397 9.97654 9.97733 9.99327 9.97517
          9.96839 9.99349 9.93119 9.97187 9.93197 9.93267 9.93148 9.99304 9.99281 9.99279 9.97211 9.93169
          9.92819 9.97719 9.93411 9.97779 9.93073 9.97736 9.93172 9.97758 9.99236 9.93312 9.99168 9.99099
          9.93565 9.99122 9.93594 9.99169 9.97871 9.98444 9.98349 9.99146 9.98539 9.98062 9.9811 9.98634
          9.98325 9.98821 9.98516 9.98134 9.98421 9.9861 9.99008 9.98254 9.97848 9.98798 9.98728 9.9823
          9.98038 9.98984 9.98704 9.93246 9.97966 9.97942 9.93388 9.93985 9.94051 9.98586 9.93341 9.94533
          9.94009 9.93789 9.94622 9.99145 9.94646 9.98088 9.9353 9.94306 9.99214 9.94694 9.94425 9.94645
          9.94716 9.94459 9.93359 9.94562 9.94342 9.93845 9.98112 9.94685 9.98915 9.947 9.94604 9.9418
          9.99123 9.9363 9.94217 9.98563 9.94088 9.99192 9.98891 9.93957 9.97824 9.94238 9.98302 9.94657
          9.98014 9.94554 9.98397 9.9458 9.98775 9.98868 9.98158 9.94322 9.94721 9.93731 9.98492 9.98586
          9.94366 9.98961 9.98681 9.94243 9.98206 9.94707 9.99215 9.935 9.93826 9.97895 9.94109 9.98938
          9.98563 9.97802 9.93891 9.94401 9.9353 9.98468 9.98086 9.94513 9.9467 9.98278 9.94676 9.98751
          9.98373 9.98182 9.94153 9.94607 9.94717 9.98657 9.9428 9.9799 9.94485 9.94481 9.97918 9.99031
          9.98845 9.9376 9.94023 9.94421 9.94697 9.98041 9.94412 9.93926 9.98136 9.98516 9.97756 9.96808
          9.98065 9.98326 9.94114 9.95956 9.95192 9.93842 9.93497 9.97849 9.97945 9.9861 9.98984 9.98421
          9.94237 9.94015 9.93586 9.93406 9.98231 9.98891 9.99076 9.93758 9.98704 9.93217 9.99259 9.93673
          9.98798 9.991 9.97873 9.93834 9.98634 9.95689 9.94116 9.9392 9.93854 9.97826 9.98397 9.99054
          9.93661 9.98821 9.98914 9.93572 9.99077 9.93527 9.98961 9.97779 9.97897 9.9816 9.95547 9.9835
          9.97802 9.98445 9.9401 9.93659 9.95334 9.97921 9.99007 9.93481 9.93435 9.99053 9.93705 9.98774
          9.98937 9.98374 9.93791 9.98681 9.938 9.98657 9.93542 9.98539 9.9935 9.93314 9.94807 9.98017
          9.93965 9.98492 9.93724 9.98728 9.98303 9.94165 9.93748 9.93451 9.9903 9.93617 9.98868 9.97969
          9.95038 9.98208 9.9397 9.98468 9.98255 9.94228 9.9363 9.98844 9.93716 9.98751 9.94386 9.93695
          9.98184 9.93265 9.94911 9.97993 9.93294 9.99191 9.98279 9.94172 9.9463 9.94058 9.96072 9.93878
          9.94299 9.93921 9.94493 9.94109 9.9646 9.94315 9.94535 9.93884 9.94063 9.96383 9.97712 9.9245
          9.97688 9.9785 9.96837 9.92741 9.96605 9.93099 9.94125 9.93429 9.93157 9.93469 9.92829 9.95617
          9.92707 9.94307 9.93436 9.93493 9.9362 9.92908 9.93451 9.92972 9.93421 9.93511 9.92708 9.94694
          9.94503 9.92666 9.92867 9.97616 9.97624 9.95812 9.97798 9.93249 9.99398 9.99345 9.93263 9.93359
          9.9928 9.92816 9.99325 9.93213 9.93437 9.99261 9.99328 9.93303 9.99257 9.93342 9.96729 9.95125
          9.97514 9.96528 9.96582 9.93161 9.99369 9.93381 9.99325 9.93249 9.99302 9.99258 9.93466 9.93298
          9.99237 9.97688 9.97706 9.97669 9.95933 9.97737 9.97729 9.95706 9.95637 9.94351 9.94287 9.97751
          9.97706 9.9542 9.94115 9.93375 9.99306 9.93439 9.99213 9.99212 9.93356 9.94144 9.97766 9.95237
          9.97798 9.94312 9.97793 9.95472 9.97775 9.94528 9.94326 9.94653 9.9464 9.94431 9.94213 9.93916
          9.93657 9.99007 9.9396 9.94722 9.93796 9.93838 9.94363 9.98867 9.93899 9.99053 9.98937 9.94096
          9.93718 9.98727 9.9903 9.94081 9.93557 9.93736 9.98797 9.94258 9.94608 9.93778 9.93597 9.942
          9.98821 9.98914 9.94473 9.94141 9.98891 9.94588 9.9402 9.98563 9.99076 9.98539 9.94036 9.93677
          9.93617 9.98444 9.9437 9.93976 9.94658 9.98657 9.98087 9.98633 9.94564 9.93856 9.99122 9.98774
          9.94152 9.94602 9.98421 9.94315 9.98704 9.94423 9.98349 9.98983 9.94468 9.98468 9.98844 9.99099
          9.9896 9.99145 9.98062 9.94346 9.98158 9.9452 9.98182 9.97943 9.94633 9.94155 9.9823 9.98751
          9.98586 9.94544 9.98254 9.9861 9.97943 9.94653 9.98373 9.9868 9.94607 9.98492 9.9811 9.98397
          9.97844 9.94234 9.98302 9.98014 9.94689 9.94985 9.97847 9.97868 9.93537 9.94384 9.94645 9.97965
          9.98278 9.94454 9.98206 9.94256 9.94546 9.98325 9.98039 9.95278 9.97818 9.98231 9.97871 9.97917
          9.97968 9.98088 9.94473 9.97894 9.94312 9.94543 9.94995 9.98135 9.9792 9.97823 9.98515 9.97895
          9.94637 9.9919 9.94778 9.94481 9.98254 9.94047 9.94604 9.98207 9.98421 9.98111 9.9438 9.9488
          9.94102 9.98657 9.95123 9.98016 9.98183 9.98302 9.94888 9.95094 9.98278 9.98937 9.93783 9.97991
          9.94612 9.98468 9.94205 9.98397 9.98797 9.93477 9.9835 9.9427 9.98633 9.94423 9.9804 9.98492
          9.94529 9.98159 9.98586 9.9457 9.98064 9.9868 9.98444 9.9861 9.94258 9.94366 9.98373 9.98563
          9.98704 9.98326 9.94051 9.98821 9.93942 9.948 9.94 9.9896 9.97992 9.98914 9.93498 9.94154
          9.98774 9.93845 9.93889 9.93583 9.98135 9.93896 9.93676 9.93623 9.93948 9.98727 9.94481 9.93635
          9.9374 9.93792 9.98539 9.9889 9.98867 9.99052 9.98983 9.99029 9.99075 9.98844 9.99006 9.99098
          9.93688 9.93995 9.93463 9.93836 9.9357 9.98515 9.9353 9.9875 9.99167 9.93478 9.94099 9.9373
          9.94204 9.94657 9.94418 9.94309 9.93516 9.94652 9.99121 9.93425 9.93409 9.99144 9.93372 9.9919
          9.99167 9.99235 9.93319 9.95654 9.9418 9.94264 9.96959 9.97718 9.9761 9.97254 9.95175 9.95314
          9.96503 9.96513 9.93092 9.99446 9.93279 9.99374 9.94619 9.93239 9.9937 9.94938 9.93322 9.99302
          9.93418 9.99236 9.96043 9.95347 9.96997 9.96746 9.95918 9.95361 9.9945 9.93149 9.97484 9.96545
          9.96846 9.96143 9.92446 9.94311 9.92883 9.93524 9.93224 9.93567 9.97554 9.9652 9.92993 9.93268
          9.94574 9.93816 9.96068 9.92837 9.94717 9.9307 9.9386 9.93565 9.9389 9.93396 9.93922 9.97591
          9.93097 9.93073 9.95693 9.95219 9.96464 9.92791 9.95849 9.9515 9.93234 9.93897 9.93203 9.93854
          9.94723 9.94763 9.9695 9.9526 9.94886 9.93803 9.93688 9.93785 9.93757 9.93502 9.93857 9.93609
          9.93873 9.93047 9.92831 9.95242 9.94286 9.9273 9.92722 9.93349 9.93679 9.99442 9.93027 9.932
          9.99444 9.95063 9.92807 9.93397 9.94207 9.94104 9.93318 9.96981 9.93782 9.9328 9.93287 9.93236
          9.93478 9.92411 9.97394 9.93656 9.93126 9.99426 9.97192 9.97875 9.92319 9.97915 9.97546 9.92742
          9.98122 9.97609 9.99416 9.93222 9.93205 9.95977 9.99419 9.93188 9.95807 9.99465 9.93029 9.93183
          9.99467 9.93824 9.97308 9.92946 9.93362 9.95845 9.94218 9.93049 9.99414 9.93114 9.93651 9.99404
          9.93185 9.9711 9.99387 9.93204 9.93143 9.99387 9.93078 9.99416 9.93122 9.99403 9.93061 9.99435
          9.99438 9.93164 9.95004 9.95645 9.96344 9.95387 9.9622 9.93139 9.99411 9.96754 9.95403 9.95998
          9.96724
        </DataArray>
        <DataArray type="Float32" Name="freeSurface" NumberOfComponents="1" format="ascii">
          10.0212 10.0161 10.0073 10.0127 10.0205 10.0175 10.0094 10.0097 10.0088 10.0301 10.0309 10.0306
          10.0262 10.0149 10.0224 10.019 10.0239 10.0095 10.0112 10.0262 10.0256 10.0129 10.0074 10.012
          10.0304 10.0148 10.0236 10.0059 10.029 10.0113 10.0262 10.0211 10.0161 10.0068 10.0248 10.0212
          10.0165 10.029 10.0191 10.0161 10.0073 10.0068 10.0184 10.0058 10.013 10.0173 10.0222 10.0152
          10.019 10.0116 10.0191 10.0147 10.0217 10.0125 10.0246 10.0184 10.0161 10.0196 10.0121 10.0291
          10.0213 10.0132 10.0218 10.0128 10.008 10.0189 10.0156 10.0267 10.016 10.0116 10.026 10.0181
          10.0243 10.0101 10.0197 10.027 10.0194 10.0265 10.027 10.0238 10.0159 10.02 10.0316 10.0295
          10.0045 10.0294 10.0063 10.0088 10.0054 10.0301 10.006 10.029 10.0138 10.0218 10.026 10.0185
          10.0259 10.0106 10.0184 10.0138 10.0223 10.0317 10.0262 10.0313 10.0251 10.0307 10.0065 10.0281
          10.0311 10.0047 10.0309 10.0282 10.032 10.0286 10.0206 10.0136 10.022 10.0125 10.0081 10.0164
          10.011 10.0234 10.019 10.0151 10.0263 10.0175 10.0249 10.0096 10.0067 10.0314 10.0104 10.0219
          10.0138 10.0084 10.008 10.0056 10.0063 10.0051 10.0253 10.0113 10.0084 10.0317 10.0307 10.0076
          10.0312 10.0285 10.0079 10.0307 10.0055 10.0052 10.0316 10.0113 10.0176 10.0207 10.0148 10.0078
          10.0502 9.98516 10.017 10.012 9.98608 10.0495 10.0204 10.0141 10.0299 10.0196 10.0148 10.0273
          10.0226 10.0122 10.0086 10.0234 10.0167 10.0108 10.0095 10.0174 10.0251 10.0072 10.0278 10.0213
          10.0128 10.0197 10.0144 10.0269 10.0074 10.0089 10.0256 10.0183 10.0226 10.0157 10.0116 10.0296
          10.0054 10.0241 10.0102 10.0169 10.0505 9.98482 9.98449 10.0507 10.0317 10.0325 10.0499 10.0044
          10.0038 10.0502 9.98514 10.004 9.9861 9.98608 9.98547 10.0497 10.0495 10.0495 10.0043 9.98577
          10.0065 10.0322 10.0052 10.0331 10.0058 10.0325 10.0057 10.0328 10.049 9.98764 10.0482 10.0475
          9.98765 10.0477 9.98795 10.0482 10.0341 10.0404 10.0394 10.048 10.0414 10.0363 10.0368 10.0425
          10.0391 10.0445 10.0412 10.037 10.0402 10.0422 10.0465 10.0383 10.0339 10.0442 10.0435 10.0381
          10.036 10.0462 10.0432 9.98673 10.0352 10.0349 9.98859 9.99162 9.99223 10.0419 9.98797 9.99703
          10.004 9.9898 9.99822 10.048 10.0017 10.0365 9.98733 9.99464 10.0487 10.0011 9.99584 9.99853
          10.0008 9.99616 9.98826 9.99735 9.99496 10.0044 10.0368 9.9994 10.0455 9.99969 10.0019 9.99344
          10.0477 9.98827 9.99376 10.0417 9.99255 10.0485 10.0452 9.99134 10.0336 10.0034 10.0389 9.99882
          10.0357 10.0023 10.0399 9.99763 10.044 10.045 10.0373 10.0031 10.0005 10.0046 10.0409 10.0419
          9.99524 10.046 10.043 9.99404 10.0378 9.99997 10.0487 9.98702 9.99012 10.0344 10.0037 10.0457
          10.0417 10.0333 9.99073 9.99556 10.005 10.0407 10.0365 9.99675 10.0014 10.0386 9.99912 10.0437
          10.0396 10.0376 9.99315 9.99794 10.0002 10.0427 9.99436 10.0355 10.0025 9.99644 10.0347 10.0467
          10.0447 9.9895 9.99194 10.0028 10.0017 10.036 10.0006 9.99607 10.037 10.0412 10.0328 10.0042
          10.0363 10.0391 9.99839 10.0035 10.0026 9.99489 9.9901 10.0339 10.0349 10.0422 10.0462 10.0402
          9.99953 9.99724 9.99131 9.98888 10.0381 10.0452 10.0472 9.9937 10.0432 9.9864 10.0492 9.99251
          10.0442 10.0475 10.0341 9.99463 10.0425 10.0031 9.99283 9.99102 9.99041 10.0336 10.0399 10.047
          9.99224 10.0445 10.0455 9.99103 10.0472 9.99043 10.046 10.0331 10.0344 10.0373 10.0031 10.0394
          10.0333 10.0404 9.997 9.98857 10.0027 10.0347 10.0465 9.98982 9.98921 10.047 9.99284 10.044
          10.0457 10.0396 9.99404 10.043 9.9943 10.0427 9.99071 10.0414 10.0502 9.98513 10.0019 10.0357
          9.99641 10.0409 9.98918 10.0435 10.0389 9.99874 9.99344 9.98949 10.0467 9.99164 10.045 10.0352
          10.0024 10.0378 9.99666 10.0407 10.0383 9.9993 9.99191 10.0447 9.99311 10.0437 10.0004 9.98889
          10.0376 9.98702 10.0022 10.0355 9.98735 10.0485 10.0386 9.99896 10.0015 9.99758 10.0034 9.99523
          9.99986 9.99582 10.0009 9.99816 10.0037 10.0001 10.0012 9.99548 9.99782 10.0039 10.0323 10.0078
          10.032 10.0235 10.0124 10.0083 10.031 10.0127 10.0272 10.0204 10.017 10.0236 10.0093 10.0302
          10.0124 10.0285 10.0189 10.0215 10.0257 10.0148 10.0249 10.0157 10.0175 10.0226 10.0108 10.0293
          10.0061 10.0064 10.0065 10.0281 10.0319 10.0049 10.0247 9.98447 10.0507 10.0502 9.98513 9.9861
          10.0495 10.0061 10.05 9.98544 9.9864 10.0492 10.0499 9.98642 10.0492 9.98544 10.0089 10.0105
          10.023 10.0137 10.0099 9.98481 10.0505 9.98639 10.0499 9.98579 10.0497 10.0492 9.9867 9.98546
          10.049 10.032 10.0322 10.0322 10.0047 10.0328 10.0325 10.0046 10.0045 10.0053 10.0049 10.0328
          10.0325 10.0042 10.0051 9.98577 10.0497 9.98701 10.0487 10.0487 9.98705 10.0047 10.033 10.0038
          10.0333 10.0045 10.0333 10.0044 10.0331 9.99847 9.9961 10.0008 10.0019 9.99729 9.99491 9.99191
          9.98921 10.0465 9.99226 10.0017 9.9907 9.99104 9.99849 10.045 9.99165 10.047 10.0457 9.99371
          9.98982 10.0435 10.0467 9.99346 9.98825 9.99009 10.0442 9.99526 9.99964 9.99043 9.98859 9.99466
          10.0445 10.0455 9.99763 9.99406 10.0452 10.0007 9.99286 10.0417 10.0472 10.0414 9.99311 9.98948
          9.98887 10.0404 9.99645 9.99251 10.001 10.0427 10.0365 10.0425 9.9988 9.99131 10.0477 10.044
          9.99615 9.99938 10.0402 9.99586 10.0432 9.99704 10.0394 10.0462 10.0035 10.0407 10.0447 10.0475
          10.046 10.048 10.0363 10.0038 10.0373 9.99822 10.0376 10.0349 9.99994 9.99431 10.0381 10.0437
          10.0419 10.0027 10.0383 10.0422 10.0349 10.0005 10.0396 10.043 10.0021 10.0409 10.0368 10.0399
          10.0339 10.0043 10.0389 10.0357 10.0016 10.0031 10.0339 10.0341 9.98797 10.004 10.0016 10.0352
          10.0386 10.0032 10.0378 9.99732 10.0029 10.0391 10.036 10.004 10.0336 10.0381 10.0341 10.0347
          10.0352 10.0365 9.99962 10.0344 9.99813 10.0004 10.0031 10.037 10.0347 10.0336 10.0412 10.0344
          10.0002 10.0485 10.0021 9.99987 10.0383 9.99496 10.0024 10.0378 10.0402 10.0368 9.9967 10.0026
          9.99578 10.0427 10.0036 10.0357 10.0376 10.0389 10.0027 10.0035 10.0386 10.0457 9.99196 10.0355
          10.001 10.0407 9.99696 10.0399 10.0442 9.98735 10.0394 9.99551 10.0425 9.9993 10.036 10.0409
          10.0002 10.0373 10.0419 9.99906 10.0363 10.043 10.0404 10.0422 9.99755 9.99872 10.0396 10.0417
          10.0432 10.0391 9.99519 10.0445 9.99376 10.0022 9.99459 10.046 10.0355 10.0455 9.98763 9.99637
          10.044 9.9928 9.99316 9.98978 10.037 9.9934 9.99074 9.99013 9.994 10.0435 9.99788 9.99039
          9.9916 9.9922 10.0414 10.0452 10.045 10.047 10.0462 10.0467 10.0472 10.0447 10.0465 10.0475
          9.991 9.99436 9.98829 9.99256 9.98952 10.0412 9.98917 10.0437 10.0482 9.98856 9.99555 9.99135
          9.99674 10.0014 9.99906 9.99791 9.98891 10.0012 10.0477 9.98794 9.98767 10.048 9.98732 10.0485
          10.0482 10.049 9.9867 10.0201 10.0053 10.0098 10.0154 10.0207 10.0276 10.0178 10.0166 10.0213
          10.0273 10.028 9.98368 10.0513 9.98479 10.0505 10.0086 9.98483 10.0505 10.0111 9.98576 10.0497
          9.98672 10.049 10.0227 10.0154 10.03 10.01 10.0223 10.016 10.0513 9.98368 10.0236 10.0131
          10.0295 10.0306 10.0097 10.0277 10.0123 10.0209 10.016 10.0241 10.0315 10.0308 10.0082 10.0121
          10.0273 10.0203 10.0305 10.0091 10.0276 10.0121 10.0205 10.0158 10.0236 10.0158 10.0238 10.0314
          10.0112 10.0108 10.0299 10.0296 10.0068 10.0115 10.0246 10.0136 10.0143 10.0254 10.0154 10.0245
          10.0282 10.0292 10.0311 10.0187 10.0107 10.0208 10.0189 10.0226 10.017 10.0167 10.0228 10.0172
          10.0222 10.0092 10.0111 10.0296 10.0275 10.0071 10.0088 10.0124 10.0205 10.0512 9.98389 9.98387
          10.0512 10.0129 10.0155 10.0254 10.0292 10.0258 10.0139 10.0313 10.0185 10.0222 10.0185 10.0173
          10.0231 10.0112 10.0315 10.027 9.98386 10.0512 10.0155 10.0199 10.0086 10.0279 10.0179 10.0144
          10.0252 10.0298 10.0509 9.98417 10.0202 10.0253 10.051 9.98415 10.0175 10.0514 9.98367 9.98364
          10.0514 10.0263 10.0314 10.014 10.0198 10.0168 10.0258 9.98422 10.0509 10.0142 10.019 10.0509
          9.98426 10.0165 10.0506 9.98453 9.98458 10.0506 9.98415 10.051 9.98429 10.0509 9.98385 10.0512
          10.0512 9.98379 10.0147 10.0244 10.0288 10.0151 10.0227 9.98411 10.051 10.0274 10.0131 10.0247
          10.0291
        </DataArray>
        <DataArray type="Float32" Name="massActiveLayer" NumberOfComponents="1" format="ascii">
          7.13478 6.98165 8.14136 6.29348 6.34915 6.3292 7.17734 6.85803 6.27983 7.68369 6.799 6.89387
          7.51452 5.82358 5.81811 7.48811 6.27386 5.76972 7.29766 6.95055 6.72421 6.02029 7.29257 6.71411
          5.80773 5.11819 5.11662 6.44929 5.74128 7.09524 5.84723 7.25026 7.25026 6.42785 5.82238 6.02576
          6.02576 5.1836 6.21534 5.54548 6.62835 7.06157 5.41893 7.29968 6.18756 4.85415 6.77988 6.77988
          5.38273 6.11398 6.75792 5.97521 5.97522 7.29908 6.73583 5.84391 6.92036 7.54663 5.66352 6.49907
          6.80408 6.80408 7.07967 7.10289 6.42645 6.47222 6.00124 7.28971 6.70035 6.5639 6.51549 6.43165
          6.09853 6.40111 7.52725 6.08982 7.6013 6.98166 6.28962 6.76839 6.76682 7.05629 6.30035 6.81978
          6.49956 6.05387 6.11774 6.67413 7.25379 7.18746 5.91949 6.56893 6.72746 6.72746 7.18013 7.19909
          6.73373 6.65906 6.70159 6.25695 6.25331 6.3851 5.78822 7.42958 6.85973 6.71798 6.41621 6.324
          6.275 6.10117 6.08533 6.33341 6.45584 5.94798 6.41335 6.41335 7.22237 7.21585 5.97041 6.94339
          6.30603 6.29593 6.01597 5.9962 7.25299 5.93628 5.94814 5.93002 6.24776 6.42852 6.07087 6.99797
          7.02966 6.17779 7.4715 6.39798 6.39496 6.32352 6.50503 6.42649 6.44026 6.20118 6.42698 5.87406
          7.03263 6.20894 7.52844 6.23356 7.03914 6.40836 6.33352 6.84407 7.83664 6.12375 6.12375 7.00201
          5.79588 5.79575 6.34263 7.55559 6.06825 6.06821 6.26268 6.26268 6.30032 6.27835 6.18979 7.03145
          7.3347 7.51889 6.24937 6.54964 7.53723 6.25308 6.22991 6.22727 6.40616 6.24069 6.32992 6.03838
          6.03838 6.1778 6.1778 6.08701 6.27571 6.22435 6.32992 6.26141 6.39927 6.09406 6.37426 6.08279
          6.24875 6.15047 6.27727 6.17506 6.51085 6.51056 6.29255 6.29255 5.94724 6.19125 6.23486 6.23581
          6.23635 6.18021 6.18007 6.23473 6.16585 6.05982 6.23464 6.19781 6.16591 6.05979 6.23527 6.19766
          6.23581 6.23581 6.23582 6.23582 6.2358 6.2358 6.23581 6.23581 6.20161 6.23581 6.23581 6.23581
          6.23581 6.23581 6.23581 6.23581 6.23581 6.23581 6.23581 6.23581 6.23581 6.23581 6.23581 6.23581
          6.23581 6.23581 6.23581 6.23581 6.23581 6.23581 6.23581 6.23581 6.23581 6.23581 6.23581 6.23581
          6.23581 6.23581 6.23581 6.20176 6.23581 6.23581 6.23581 6.23581 6.23581 6.23581 6.23581 6.23581
          6.23581 6.23581 6.23581 6.23581 6.23581 6.23581 6.23581 6.23581 6.21117 6.23581 6.23581 6.23581
          6.23581 6.23581 6.23581 6.23581 6.23581 6.23581 6.23581 6.23581 6.23581 6.23581 6.23581 6.23581
          6.23581 6.23581 6.23581 6.23581 6.23581 6.23581 6.23581 6.23581 6.23581 6.23581 6.23581 6.23581
          6.23581 6.23581 6.23581 6.23581 6.23581 6.23581 6.23581 6.23581 6.23581 6.23581 6.23581 6.23581
          6.23581 6.23581 6.23581 6.23581 6.23581 6.23581 6.23581 6.23581 6.23581 6.23581 6.23581 6.23581
          6.23581 6.23581 6.23581 6.23581 6.23581 6.23581 6.23581 6.23581 6.23581 6.23581 6.23581 6.23581
          6.23581 6.23581 6.23581 6.23581 6.23581 6.23581 6.23581 6.23581 6.23581 6.23581 6.23581 6.23581
          6.23581 6.23581 6.23581 6.23581 6.23581 6.23581 6.23581 6.23581 6.23581 6.23581 6.23581 6.23581
          6.23581 6.23581 6.23581 6.23581 6.23581 6.23581 6.23581 6.23581 6.23581 6.23581 6.23581 6.23581
          6.23581 6.23581 6.23581 6.23581 6.23581 6.23581 6.23581 6.23581 6.23581 6.19194 6.19205 6.23581
          6.23581 6.23581 6.23581 6.23581 6.23581 6.23581 6.23581 6.23581 6.23581 6.23581 6.23581 6.23581
          6.23581 6.23581 6.23581 6.23581 6.23581 6.23581 6.23581 6.23581 6.23581 6.23581 6.23581 6.23581
          6.23581 6.23581 6.23581 6.23581 6.23581 6.23581 6.23581 6.23581 6.23581 6.23581 6.23581 6.23581
          6.23581 6.23581 6.23581 6.23581 6.23581 6.23581 6.23581 6.23581 6.09549 6.09556 6.23581 6.23581
          6.23581 6.23581 6.23581 6.23581 6.23581 6.23581 6.23581 6.23581 6.23581 6.23581 6.23581 6.23581
          6.23581 6.23581 6.23581 6.23581 6.23581 6.23581 6.23581 6.23581 6.23581 6.23581 6.23581 6.23581
          6.23581 6.21116 6.23581 6.23581 6.2235 6.22349 6.23581 6.23581 6.23581 6.23581 6.23581 6.23581
          6.23581 6.23581 6.23581 6.23581 6.23581 6.23581 6.23581 6.23581 6.23581 6.23581 6.10018 6.05906
          6.13351 7.16521 7.22461 6.17342 6.19304 6.16956 6.18232 6.09994 5.98077 5.98077 5.97608 6.03271
          6.12745 6.01682 6.7752 6.00379 5.74513 5.74824 5.98507 5.98507 6.17233 6.17233 6.18746 5.83738
          6.36747 6.19312 6.30086 5.84763 6.28099 6.06268 7.1141 6.28661 6.2866 5.7417 5.74153 6.03337
          6.03329 6.29248 6.12927 6.12923 6.09259 6.09253 6.04797 5.98805 5.98768 6.04804 6.36757 6.81587
          5.5815 5.5406 6.07325 6.32817 6.32835 6.013 6.02 6.12314 6.12318 6.01262 6.15282 6.02004
          6.1526 6.23576 6.1268 6.08281 5.92886 6.00688 6.0315 5.96729 5.99642 6.04771 5.98623 5.96887
          6.0063 5.9775 5.9812 6.07835 6.07829 5.97376 5.97375 5.99834 5.99834 5.97498 5.97916 5.97435
          5.97292 5.97581 5.97925 5.97248 5.96829 5.97372 5.97372 5.97372 5.97372 5.97372 5.97372 5.97372
          5.97372 5.97372 5.97372 5.97372 5.97372 5.97372 5.97372 5.97372 5.97372 5.97372 5.97372 5.97372
          5.97372 5.97372 5.97372 5.97372 5.97372 5.97372 5.97372 5.97372 5.97372 5.97372 5.97372 5.97372
          5.97372 5.97372 5.97372 5.97372 5.97372 5.97372 5.97372 5.97372 5.97372 5.97372 5.97372 5.97372
          5.97372 5.97372 5.97372 5.97372 5.97372 5.97372 5.97372 5.97372 5.97372 5.97372 5.97372 5.97372
          5.97372 5.97372 5.97372 5.97372 5.97372 5.97372 5.97372 5.97372 5.97372 5.97372 5.97372 5.97372
          5.97372 5.97372 5.97372 5.97372 5.97372 5.97372 5.97372 5.97375 5.97372 5.97372 5.97372 5.97372
          5.97372 5.97372 5.97372 5.97372 5.97372 5.97372 5.97372 5.97372 5.97372 5.97372 5.97372 5.97372
          5.97464 5.97393 5.97372 5.97372 5.97372 5.97372 5.97359 5.97387 5.97372 5.9741 5.97372 5.97372
          5.97372 5.97372 5.97372 5.97372 5.97372 5.97372 5.97372 5.97352 5.97463 5.97372 5.97357 5.97375
          5.97372 5.97372 5.97372 5.97388 5.97372 5.97372 5.97372 5.97372 5.9737 5.97282 5.97372 5.9737
          5.97372 5.97372 5.97372 5.97372 5.97372 5.97372 5.97372 5.97372 5.97372 5.97372 5.97372 5.97372
          5.97372 5.97372 5.97372 5.97372 5.97372 5.97372 5.97372 5.97389 5.97372 5.97372 5.97372 5.97372
          5.97372 5.97372 5.97372 5.97372 5.97372 5.97372 5.97372 5.97372 5.97372 5.97372 5.97372 5.97372
          5.97372 5.97372 5.97372 5.97372 5.97372 5.97372 5.97372 5.97372 5.97372 5.97372 5.97372 5.97372
          5.97372 5.97372 5.97372 5.97372 5.97372 5.97372 5.97372 5.97372 5.97372 5.97372 5.97372 5.97372
          5.97372 5.97372 5.97372 5.97372 5.97372 5.97372 5.97372 5.97372 5.97372 5.97372 5.97372 5.97372
          5.97372 5.97372 5.97372 5.97372 5.97372 5.97372 5.97372 5.97372 5.97372 5.97372 5.97372 5.97372
          5.97372 5.97372 5.97372 5.97372 5.97372 5.97372 5.97372 5.97372 5.97372 5.97372 5.97372 5.97372
          5.97372 5.97372 5.97372 5.97372 5.97372 5.97372 5.97372 5.97372 5.97372 5.97372 5.98606 5.98604
          5.97372 6.00786 6.00811 6.38834 6.11512 5.67554 6.44794 6.44794 5.79606 6.53946 6.07329 5.82385
          6.32163 5.36195 4.48236 4.48236 6.51684 6.51692 6.38352 6.26987 6.26999 6.27845 6.10527 6.10526
          6.0345 6.03434 6.43476 6.43476 6.4144 6.35024 6.07597 6.07597 4.30587 4.30587 5.4691 5.58663
          6.2238 6.33881 5.91778 6.31148 6.38189 6.30389 6.32228 6.32228 5.48259 5.72849 6.07258 5.93072
          5.74767 6.14589 6.57748 6.11182 6.57948 6.49896 6.59162 6.54856 6.54856 5.67686 5.67686 6.06008
          6.59316 5.67878 6.37403 5.6278 6.68727 6.38699 5.3478 5.49564 5.48304 5.41671 5.44791 5.44901
          5.46519 5.21011 5.36224 5.05359 6.30785 4.94173 5.56336 5.28498 5.37718 6.03314 6.03314 5.77615
          5.77615 4.83747 5.24571 6.25731 5.31568 4.88143 5.21636 5.20704 4.93449 4.31089 4.31089 4.3449
          4.34489 6.1261 5.60123 5.58278 5.5475 5.85438 5.92567 4.77364 6.71553 4.8211 5.02539 6.05641
          6.05641 4.80734 5.44239 4.69308 4.26492 4.26492 6.07794 6.14718 4.88788 6.91692 6.26779 4.86767
          6.36878 6.32734 4.29917 4.29916 4.84279 6.01741 3.97575 3.97571 5.16708 3.89125 3.89125 3.86224
          3.86225 5.75994 4.73652 5.79412 5.79609 4.3152 4.56555 4.23366 4.23366 4.68425 4.45987 3.93225
          3.93221 4.70605 4.57622 4.57615 4.57633 4.57643 3.75979 3.75979 3.74588 3.7459 3.26276 3.26276
          3.28373 3.28372 4.01411 4.14045 3.5902 4.14646 4.1709 3.32849 3.32852 4.14596 4.21874 4.33024
          3.95756
        </DataArray>
        <DataArray type="Float32" Name="ticknessActiveLayer" NumberOfComponents="1" format="ascii">
          0.1 0.1 0.1 0.1 0.1 0.1 0.1 0.1 0.1 0.1 0.1 0.1
          0.1 0.1 0.1 0.1 0.1 0.1 0.1 0.1 0.1 0.1 0.1 0.1
          0.1 0.1 0.1 0.1 0.1 0.1 0.1 0.1 0.1 0.1 0.1 0.1
          0.1 0.1 0.1 0.1 0.1 0.1 0.1 0.1 0.1 0.1 0.1 0.1
          0.1 0.1 0.1 0.1 0.1 0.1 0.1 0.1 0.1 0.1 0.1 0.1
          0.1 0.1 0.1 0.1 0.1 0.1 0.1 0.1 0.1 0.1 0.1 0.1
          0.1 0.1 0.1 0.1 0.1 0.1 0.1 0.1 0.1 0.1 0.1 0.1
          0.1 0.1 0.1 0.1 0.1 0.1 0.1 0.1 0.1 0.1 0.1 0.1
          0.1 0.1 0.1 0.1 0.1 0.1 0.1 0.1 0.1 0.1 0.1 0.1
          0.1 0.1 0.1 0.1 0.1 0.1 0.1 0.1 0.1 0.1 0.1 0.1
          0.1 0.1 0.1 0.1 0.1 0.1 0.1 0.1 0.1 0.1 0.1 0.1
          0.1 0.1 0.1 0.1 0.1 0.1 0.1 0.1 0.1 0.1 0.1 0.1
          0.1 0.1 0.1 0.1 0.1 0.1 0.1 0.1 0.1 0.1 0.1 0.1
          0.1 0.1 0.1 0.1 0.1 0.1 0.1 0.1 0.1 0.1 0.1 0.1
          0.1 0.1 0.1 0.1 0.1 0.1 0.1 0.1 0.1 0.1 0.1 0.1
          0.1 0.1 0.1 0.1 0.1 0.1 0.1 0.1 0.1 0.1 0.1 0.1
          0.1 0.1 0.1 0.1 0.1 0.1 0.1 0.1 0.1 0.1 0.1 0.1
          0.1 0.1 0.1 0.1 0.1 0.1 0.1 0.1 0.1 0.1 0.1 0.1
          0.1 0.1 0.1 0.1 0.1 0.1 0.1 0.1 0.1 0.1 0.1 0.1
          0.1 0.1 0.1 0.1 0.1 0.1 0.1 0.1 0.1 0.1 0.1 0.1
          0.1 0.1 0.1 0.1 0.1 0.1 0.1 0.1 0.1 0.1 0.1 0.1
          0.1 0.1 0.1 0.1 0.1 0.1 0.1 0.1 0.1 0.1 0.1 0.1
          0.1 0.1 0.1 0.1 0.1 0.1 0.1 0.1 0.1 0.1 0.1 0.1
          0.1 0.1 0.1 0.1 0.1 0.1 0.1 0.1 0.1 0.1 0.1 0.1
          0.1 0.1 0.1 0.1 0.1 0.1 0.1 0.1 0.1 0.1 0.1 0.1
          0.1 0.1 0.1 0.1 0.1 0.1 0.1 0.1 0.1 0.1 0.1 0.1
          0.1 0.1 0.1 0.1 0.1 0.1 0.1 0.1 0.1 0.1 0.1 0.1
          0.1 0.1 0.1 0.1 0.1 0.1 0.1 0.1 0.1 0.1 0.1 0.1
          0.1 0.1 0.1 0.1 0.1 0.1 0.1 0.1 0.1 0.1 0.1 0.1
          0.1 0.1 0.1 0.1 0.1 0.1 0.1 0.1 0.1 0.1 0.1 0.1
          0.1 0.1 0.1 0.1 0.1 0.1 0.1 0.1 0.1 0.1 0.1 0.1
          0.1 0.1 0.1 0.1 0.1 0.1 0.1 0.1 0.1 0.1 0.1 0.1
          0.1 0.1 0.1 0.1 0.1 0.1 0.1 0.1 0.1 0.1 0.1 0.1
          0.1 0.1 0.1 0.1 0.1 0.1 0.1 0.1 0.1 0.1 0.1 0.1
          0.1 0.1 0.1 0.1 0.1 0.1 0.1 0.1 0.1 0.1 0.1 0.1
          0.1 0.1 0.1 0.1 0.1 0.1 0.1 0.1 0.1 0.1 0.1 0.1
          0.1 0.1 0.1 0.1 0.1 0.1 0.1 0.1 0.1 0.1 0.1 0.1
          0.1 0.1 0.1 0.1 0.1 0.1 0.1 0.1 0.1 0.1 0.1 0.1
          0.1 0.1 0.1 0.1 0.1 0.1 0.1 0.1 0.1 0.1 0.1 0.1
          0.1 0.1 0.1 0.1 0.1 0.1 0.1 0.1 0.1 0.1 0.1 0.1
          0.1 0.1 0.1 0.1 0.1 0.1 0.1 0.1 0.1 0.1 0.1 0.1
          0.1 0.1 0.1 0.1 0.1 0.1 0.1 0.1 0.1 0.1 0.1 0.1
          0.1 0.1 0.1 0.1 0.1 0.1 0.1 0.1 0.1 0.1 0.1 0.1
          0.1 0.1 0.1 0.1 0.1 0.1 0.1 0.1 0.1 0.1 0.1 0.1
          0.1 0.1 0.1 0.1 0.1 0.1 0.1 0.1 0.1 0.1 0.1 0.1
          0.1 0.1 0.1 0.1 0.1 0.1 0.1 0.1 0.1 0.1 0.1 0.1
          0.1 0.1 0.1 0.1 0.1 0.1 0.1 0.1 0.1 0.1 0.1 0.1
          0.1 0.1 0.1 0.1 0.1 0.1 0.1 0.1 0.1 0.1 0.1 0.1
          0.1 0.1 0.1 0.1 0.1 0.1 0.1 0.1 0.1 0.1 0.1 0.1
          0.1 0.1 0.1 0.1 0.1 0.1 0.1 0.1 0.1 0.1 0.1 0.1
          0.1 0.1 0.1 0.1 0.1 0.1 0.1 0.1 0.1 0.1 0.1 0.1
          0.1 0.1 0.1 0.1 0.1 0.1 0.1 0.1 0.1 0.1 0.1 0.1
          0.1 0.1 0.1 0.1 0.1 0.1 0.1 0.1 0.1 0.1 0.1 0.1
          0.1 0.1 0.1 0.1 0.1 0.1 0.1 0.1 0.1 0.1 0.1 0.1
          0.1 0.1 0.1 0.1 0.1 0.1 0.1 0.1 0.1 0.1 0.1 0.1
          0.1 0.1 0.1 0.1 0.1 0.1 0.1 0.1 0.1 0.1 0.1 0.1
          0.1 0.1 0.1 0.1 0.1 0.1 0.1 0.1 0.1 0.1 0.1 0.1
          0.1 0.1 0.1 0.1 0.1 0.1 0.1 0.1 0.1 0.1 0.1 0.1
          0.1 0.1 0.1 0.1 0.1 0.1 0.1 0.1 0.1 0.1 0.1 0.1
          0.1 0.1 0.1 0.1 0.1 0.1 0.1 0.1 0.1 0.1 0.1 0.1
          0.1 0.1 0.1 0.1 0.1 0.1 0.1 0.1 0.1 0.1 0.1 0.1
          0.1 0.1 0.1 0.1 0.1 0.1 0.1 0.1 0.1 0.1 0.1 0.1
          0.1 0.1 0.1 0.1 0.1 0.1 0.1 0.1 0.1 0.1 0.1 0.1
          0.1 0.1 0.1 0.1 0.1 0.1 0.1 0.1 0.1 0.1 0.1 0.1
          0.1 0.1 0.1 0.1 0.1 0.1 0.1 0.1 0.1 0.1 0.1 0.1