<?xml version="1.0"?>
<VTKFile type="UnstructuredGrid" version="0.1" byte_order="LittleEndian">
  <UnstructuredGrid>
    <Piece NumberOfCells="1928" NumberOfPoints="999">
      <CellData Scalars="p">
        <DataArray type="Float32" Name="p" NumberOfComponents="1" format="ascii">
          109531 109836 109194 108628 108860 109641 109304 108628 109075 108732 108245 107950
          107641 107357 107116 107051 108268 108118 108023 107734 107522 107178 107657 106910
          109804 109510 109535 109119 108795 109829 109682 109853 109147 109103 108801 108573
          109342 108751 108656 108497 108147 108008 108518 108232 107733 107356 106939 107412
          108118 108273 107792 108104 107767 107606 107238 107086 107110 106875 106708 106788
          106502 106377 106220 106138 106118 105994 105896 105794 105986 105890 105750 105784
          106630 106425 106273 106225 106625 106355 106129 105999 105899 105731 105799 106037
          105900 105752 105769 105712 105545 105385 105256 105633 105472 105504 105655 105592
          105336 105450 105368 105496 105330 105086 104826 105187 105191 105029 105252 105100
          105081 104926 104683 104892 104976 104779 105642 105582 105613 105544 105458 105484
          105377 105322 105440 105358 105659 105614 105547 105613 105550 105522 105464 105437
          105361 105514 105464 105439 105242 105161 105143 105209 105306 104948 104725 104811
          105035 105055 104770 105317 105166 105219 105368 105308 105209 105013 104888 105117
          105128 104852 104947 106593 106191 106181 106695 105911 105658 105668 105601 105664
          105574 105490 106373 105784 106535 106356 106100 105833 105547 105704 105821 105529
          105540 105506 105487 105452 105427 105482 105437 105460 105485 105477 105459 105453
          105446 105353 105312 105224 105373 105423 105342 105263 105057 105116 105206 105082
          104960 105432 105423 105383 105356 105430 105422 105388 105233 105144 105285 105074
          105284 105354 105110 105226 105451 105443 105434 105483 105563 105629 105499 105613
          105561 105555 105426 105384 105421 105432 105424 105422 105361 105243 105307 105398
          105289 105337 105458 105468 105439 105506 105499 105466 105390 105441 105417 105392
          105460 105416 105435 109632 109775 109595 109290 108951 109152 108850 109817 109511
          109487 109798 109069 108765 108446 108824 109121 108706 108381 108599 108305 108151
          107613 108391 107791 107615 107318 106831 107201 107319 106977 106869 108244 107911
          107680 107441 108122 107853 108078 107443 107625 107144 106919 107197 107217 107057
          106743 106673 109592 109202 109790 109514 109047 109705 109052 108716 108952 108621
          108283 108363 108151 107916 108664 108640 108321 107997 107824 109430 109707 108944
          109370 108642 108784 109596 108379 108829 108420 107833 108233 107322 107220 108189
          107904 108184 107827 107538 107415 107596 107421 107169 107681 107272 107274 106914
          106989 106767 107078 107049 106817 106839 106713 106723 106704 107742 107709 107501
          107519 107236 107255 107501 107566 107301 107193 106977 107100 106806 106810 106705
          106521 106923 106865 106723 106632 106386 106619 107200 107144 107116 107073 106925
          106838 106983 106914 106753 106869 106743 106695 106901 106749 106680 106616 106679
          106708 106601 106638 106627 106593 106528 106567 106504 106574 106676 106571 106564
          106501 106512 106502 106403 106362 106437 106416 106392 106361 106496 106453 106424
          106415 106500 106532 106453 106495 106400 106370 106364 106351 106406 106369 106356
          106821 106436 106268 106614 106659 106088 105973 105789 105974 105870 106264 106125
          106017 105929 106526 106563 106365 106445 106491 106447 106345 106303 106278 106149
          106086 105949 106007 106279 106194 106187 106135 106123 106074 106011 106087 105715
          105852 105729 105786 105673 105585 105673 105629 105790 105913 105841 105706 105639
          105681 105751 105693 105559 105522 105509 105576 105480 105474 105429 105447 105523
          105500 105468 105614 105554 105667 105628 105602 105565 105497 105518 105546 105509
          105556 105533 105901 105852 105982 105924 105769 105819 105738 105736 105841 105762
          105895 105990 105955 105913 105812 105897 105829 105798 105687 105672 105635 105693
          105671 105607 105580 105530 105590 105549 105637 105619 105576 105588 105736 105693
          105753 105732 105668 105635 105617 105690 105627 105662 106387 106322 106350 106330
          106276 106231 106290 106362 106293 106285 106270 106249 106262 106224 106236 106129
          106212 106162 106086 106057 106022 106077 106192 106154 106193 106165 106132 106113
          106040 106028 106106 106074 106043 106261 106280 106317 106327 106288 106272 106239
          106216 106243 106188 106187 106324 106311 106267 106283 106326 106313 106267 106285
          106218 106233 106217 106236 106188 106167 106188 106169 106121 106142 106131 106100
          106074 106096 106029 106051 106086 106051 106037 106005 106166 106140 106111 106087
          106112 106141 106086 106053 106057 106035 106039 105995 105972 105997 105959 105997
          105928 106003 105920 105941 105866 105880 105835 105867 105976 105992 105976 105944
          105892 105926 105856 105937 105882 105893 105805 105776 105746 105723 105781 105760
          105717 105679 105671 105732 105726 105702 105691 105835 105810 105811 105790 105832
          105852 105796 105821 105768 105748 105701 105754 105779 105731 105727 106006 105983
          105960 105955 105996 105968 105926 105915 105872 105900 105868 105900 105864 105838
          105834 105981 105951 105948 105920 105891 105939 105930 105897 105876 105860 105797
          105826 105808 105794 105763 105862 105826 105813 105779 105811 105778 105745 105771
          105724 105734 105746 105715 105688 105769 105737 105711 105720 105730 105680 105684
          105710 105677 105672 105642 105648 105650 105618 105618 104533 104420 104673 104527
          104246 104089 103826 103591 103266 104563 104484 104608 104295 104152 104584 104712
          104414 104243 104413 103889 103794 103189 103463 104016 104036 103366 102902 102537
          102021 101542 100801 102735 102567 102123 102925 101668 101392 101881 100810 104880
          104734 104608 104942 104260 104682 104855 105050 104931 104984 104524 104613 103917
          104290 104115 103644 103633 104204 104478 104020 105177 105099 104985 105211 105143
          105172 104846 104906 105079 105342 105281 105304 105399 105385 105357 105181 105199
          104706 104750 104183 104553 105041 105121 104816 102837 102217 103294 103458 102089
          101127 104004 102940 104541 104763 104245 103079 101801 100351 100496 100727 105397
          105444 105421 105431 105351 105373 105322 105379 105318 105461 105482 105414 105421
          105476 105449 105361 105387 105386 105303 105264 105223 105278 105293 105221 105150
          105121 105502 105454 105488 105544 105567 105511 105498 105427 105349 105373 105425
          105456 105565 105529 105523 105596 105591 105553 105456 105493 105418 105544 105508
          105485 105223 105362 105228 105307 105140 105009 105308 105429 105382 105213 105200
          105087 105181 105079 104866 104697 104451 102206 104992 104785 104858 104613 104328
          103830 104918 105093 104896 104764 104411 104113 103612 101366 102423 103584 102923
          102187 105614 105646 105600 105657 105643 105618 105612 105568 105566 105510 105592
          105546 105568 105652 105677 105633 105692 105682 105688 105652 105649 105592 105632
          105612 105567 105612 105592 105616 105585 105393 105459 105503 105542 105471 105321
          105336 105427 105488 105563 105594 105531 105566 105574 105518 105543 105549 105519
          105504 105445 105477 105344 105402 105262 105695 105669 105663 105654 105637 105659
          105667 105632 105621 105632 105630 105580 105625 105618 105616 105553 105642 105623
          105600 105588 105595 105559 105583 105561 105606 105596 105603 105591 105582 105566
          105589 105566 105439 105439 105329 105522 105327 105081 105238 105071 104969 104718
          105498 105389 105299 105144 105550 105444 105333 105171 105004 104611 104790 105023
          104774 105233 104938 105278 105434 105192 105362 104836 104360 105184 105402 104405
          105211 105485 105406 105150 105298 104972 104807 105257 104975 105170 104264 104327
          104128 103875 103105 101149 103928 102998 102441 101337 104890 104623 104262 104411
          103556 104106 103597 104333 104086 104199 103258 103634 103272 102873 102242 101199
          102557 102614 100871 100480 100605 109145 107519 107502 106975 107140 109133 108565
          107955 107658 109688 108788 109428 108587 109495 108804 109143 106893 106839 107056
          107784 107459 106912 106797 107009 107123 107390 108167 108197 107580 107939 108547
          108014 107450 107858 107629 109810 109578 109208 108952 109586 109261 109834 109297
          109627 108618 108348 108438 108979 108745 107997 108256 107836 108793 108497 109067
          108097 108426 106757 106821 107068 106959 107044 106966 106641 106748 106817 106774
          107263 107218 107464 107291 107178 107024 106959 106855 107227 107129 107015 106951
          106996 106595 106624 106512 106577 106701 106712 106588 106647 106487 106437 106412
          106527 106497 106432 106859 106791 106645 106798 106717 106586 106521 106474 106590
          106670 106518 106495 107605 107405 107461 107851 107652 107121 107206 107359 107151
          107621 108013 107749 107449 107389 107242 107462 107645 107336 106909 106924 107033
          106847 106949 106672 106750 106567 106680 106566 106937 107199 107056 107000 106804
          106699 106593 106839 106761 106627 109791 109518 109555 109833 109123 108893 108609
          108419 108946 109222 108703 108452 109566 109565 109834 109227 108913 108664 109230
          108915 108150 107971 107731 107365 107574 108261 108041 108217 107951 107847 107620
          107243 107086 107252 107018 107104 106795 106663 106891 106863 106748 107418 107385
          107185 107005 106708 106756 107030 106888 108376 108245 107800 107537 107936 108276
          107824 107603 107151 107402 107221 107004 106894 106764 106987 107114 106882 107429
          107217 107084 106926 106821 106821 106369 106338 106328 106285 106261 106352 106400
          106260 106217 106225 106161 106167 106218 106201 106420 106371 106328 106286 106270
          106351 106404 106291 106205 106231 106163 106142 106262 106222 106260 106191 106156
          106136 106103 106085 106143 106104 106082 106045 106029 105996 105978 105945 105973
          106021 105981 105943 106100 106040 106015 106080 106126 106091 106038 106028 105953
          105968 105907 105908 105930 105886 106362 106291 106495 106405 106293 106352 106212
          106273 106234 106203 106155 106223 106263 106145 106183 106504 106413 106374 106295
          106542 106420 106360 106264 106222 106181 106130 106275 106232 106294 106133 106195
          106123 106064 106080 105991 106055 106087 106001 105938 105898 105844 105906 105956
          105825 105863 106074 105961 106017 106072 106012 105947 105912 105843 105860 105814
          105908 105911 105892 105880 105835 105818 105829 105804 105768 105734 105759 105739
          105728 105696 105688 105843 105778 105807 105770 105803 105844 105753 105711 105748
          105714 105728 105682 105642 105608 105702 105647 105707 105671 105659 105624 105646
          105654 105590 105600 105620 105582 105582 105553 105552 105548 105499 105478 105617
          105582 105530 105560 105530 105516 105464 105503 105484 105466 105402 105420 105381
          105373 105820 105764 105735 105773 105737 105684 105684 105615 105654 105555 105641
          105577 105517 105526 105780 105644 105759 105708 105652 105599 105578 105466 105437
          105526 105540 105459 105475 105426 105405 105369 105443 105414 105304 105304 105301
          105261 105140 105192 105352 105269 105290 105363 105312 105218 105231 105138 105172
          105050 105142 105060 104965 104967 106557 106434 106436 106642 106538 106518 106362
          106416 106266 106286 106209 106184 106138 106241 106241 106173 106583 106550 106371
          106439 106645 106386 106437 106287 106263 106206 106162 106293 106256 106198 106141
          106080 105975 106034 106127 106070 105935 105946 105931 105867 105816 105754 105870
          105823 105758 106048 106094 105993 105955 106080 105962 106020 105914 105883 105824
          105887 105765 105712 105827 105848 105763 105694 106647 106549 106769 106655 106552
          106441 106370 106281 106246 106180 106390 106284 106147 106665 106443 106565 106659
          106559 106372 106237 106167 106272 106438 106385 106236 106283 106132 106063 106012
          105948 106075 105915 106028 105948 105809 105734 105843 105712 105783 106088 106070
          106148 105956 105937 105882 105790 105872 105709 105754 105720 105701 105634 105639
          105707 105604 105526 105496 105431 105408 105335 105484 105410 105386 105312 105278
          105600 105646 105629 105524 105486 105545 105524 105382 105346 105357 105283 105200
          105169 105146 105049 105076 104855 105007 104883 105196 104999 105109 105145 104894
          104816 104685 104801 104660 105676 105591 105440 105569 105633 105423 105485 105273
          105325 105257 105148 105624 105432 105507 105494 105321 105226 105067 104935 104942
          104811 104648 105078 105104 104841 104947 104674 104527 109493 108581 108012 107855
          107589 107377 107180 106974 106902 106604 106694 106452 106239 106273 106383 106211
          106151 106097 106009 105975 106125 106047 105819 105790 105874 105656 105610 105573
          105421 105366 105237 104924 105093 104537 104722 105529 105535 105516 105509 105494
          105454 105469 105549 105524 105492 105569 105543 105454 105476 105498 105466 105419
          105408 105373 105355 105340 105310 105242 105301 105230 105396 105409 105394 105329
          105248 105186 105220 105483 105118 105371 105561 105472 105510 105296 104460 105036
          104788 104459 105517 105430 105381 105042 105326 105184 105177 105446 105156 104724
          104356 104721 104159 104340 105233 105149 105179 105084 105064 104985 105042 104999
          105119 104994 104874 104850 104735 105052 104986 104886 104867 104800 104867 104671
          104723 104538 104551 104406 104929 104834 104645 104627 104585 104490 104565 104234
          103932 104433 104243 104238 104071 103954 103743 103386 103726 104168 103436 103716
          102738 103479 103743 102981 102538 102290 101218 103428 103520 102957 102624 103194
          102779 102432 101920 102046 101113 101906 104753 104646 104739 104593 104498 104457
          104410 104250 104569 104419 104266 104144 104254 104195 104124 103855 103859 103716
          103238 103444 103897 103689 103188 103294 104502 104479 104285 104060 104072 104310
          103791 103838 103780 103574 103063 103257 102924 102881 102515 102859 102489 102206
          101465 100786 101687 102329 102619 101722 102480 101357 100685 101503 100580 100458
          100346 100349 104142 104291 103584 103075 101972 100790
        </DataArray>
        <DataArray type="Float32" Name="process rank" NumberOfComponents="1" format="ascii">
          0 0 0 0 0 0 0 0 0 0 0 0
          0 0 0 0 0 0 0 0 0 0 0 0
          0 0 0 0 0 0 0 0 0 0 0 0
          0 0 0 0 0 0 0 0 0 0 0 0
          0 0 0 0 0 0 0 0 0 0 0 0
          0 0 0 0 0 0 0 0 0 0 0 0
          0 0 0 0 0 0 0 0 0 0 0 0
          0 0 0 0 0 0 0 0 0 0 0 0
          0 0 0 0 0 0 0 0 0 0 0 0
          0 0 0 0 0 0 0 0 0 0 0 0
          0 0 0 0 0 0 0 0 0 0 0 0
          0 0 0 0 0 0 0 0 0 0 0 0
          0 0 0 0 0 0 0 0 0 0 0 0
          0 0 0 0 0 0 0 0 0 0 0 0
          0 0 0 0 0 0 0 0 0 0 0 0
          0 0 0 0 0 0 0 0 0 0 0 0
          0 0 0 0 0 0 0 0 0 0 0 0
          0 0 0 0 0 0 0 0 0 0 0 0
          0 0 0 0 0 0 0 0 0 0 0 0
          0 0 0 0 0 0 0 0 0 0 0 0
          0 0 0 0 0 0 0 0 0 0 0 0
          0 0 0 0 0 0 0 0 0 0 0 0
          0 0 0 0 0 0 0 0 0 0 0 0
          0 0 0 0 0 0 0 0 0 0 0 0
          0 0 0 0 0 0 0 0 0 0 0 0
          0 0 0 0 0 0 0 0 0 0 0 0
          0 0 0 0 0 0 0 0 0 0 0 0
          0 0 0 0 0 0 0 0 0 0 0 0
          0 0 0 0 0 0 0 0 0 0 0 0
          0 0 0 0 0 0 0 0 0 0 0 0
          0 0 0 0 0 0 0 0 0 0 0 0
          0 0 0 0 0 0 0 0 0 0 0 0
          0 0 0 0 0 0 0 0 0 0 0 0
          0 0 0 0 0 0 0 0 0 0 0 0
          0 0 0 0 0 0 0 0 0 0 0 0
          0 0 0 0 0 0 0 0 0 0 0 0
          0 0 0 0 0 0 0 0 0 0 0 0
          0 0 0 0 0 0 0 0 0 0 0 0
          0 0 0 0 0 0 0 0 0 0 0 0
          0 0 0 0 0 0 0 0 0 0 0 0
          0 0 0 0 0 0 0 0 0 0 0 0
          0 0 0 0 0 0 0 0 0 0 0 0
          0 0 0 0 0 0 0 0 0 0 0 0
          0 0 0 0 0 0 0 0 0 0 0 0
          0 0 0 0 0 0 0 0 0 0 0 0
          0 0 0 0 0 0 0 0 0 0 0 0
          0 0 0 0 0 0 0 0 0 0 0 0
          0 0 0 0 0 0 0 0 0 0 0 0
          0 0 0 0 0 0 0 0 0 0 0 0
          0 0 0 0 0 0 0 0 0 0 0 0
          0 0 0 0 0 0 0 0 0 0 0 0
          0 0 0 0 0 0 0 0 0 0 0 0
          0 0 0 0 0 0 0 0 0 0 0 0
          0 0 0 0 0 0 0 0 0 0 0 0
          0 0 0 0 0 0 0 0 0 0 0 0
          0 0 0 0 0 0 0 0 0 0 0 0
          0 0 0 0 0 0 0 0 0 0 0 0
          0 0 0 0 0 0 0 0 0 0 0 0
          0 0 0 0 0 0 0 0 0 0 0 0
          0 0 0 0 0 0 0 0 0 0 0 0
          0 0 0 0 0 0 0 0 0 0 0 0
          0 0 0 0 0 0 0 0 0 0 0 0
          0 0 0 0 0 0 0 0 0 0 0 0
          0 0 0 0 0 0 0 0 0 0 0 0
          0 0 0 0 0 0 0 0 0 0 0 0
          0 0 0 0 0 0 0 0 0 0 0 0
          0 0 0 0 0 0 0 0 0 0 0 0
          0 0 0 0 0 0 0 0 0 0 0 0
          0 0 0 0 0 0 0 0 0 0 0 0
          0 0 0 0 0 0 0 0 0 0 0 0
          0 0 0 0 0 0 0 0 0 0 0 0
          0 0 0 0 0 0 0 0 0 0 0 0
          0 0 0 0 0 0 0 0 0 0 0 0
          0 0 0 0 0 0 0 0 0 0 0 0
          0 0 0 0 0 0 0 0 0 0 0 0
          0 0 0 0 0 0 0 0 0 0 0 0
          0 0 0 0 0 0 0 0 0 0 0 0
          0 0 0 0 0 0 0 0 0 0 0 0
          0 0 0 0 0 0 0 0 0 0 0 0
          0 0 0 0 0 0 0 0 0 0 0 0
          0 0 0 0 0 0 0 0 0 0 0 0
          0 0 0 0 0 0 0 0 0 0 0 0
          0 0 0 0 0 0 0 0 0 0 0 0
          0 0 0 0 0 0 0 0 0 0 0 0
          0 0 0 0 0 0 0 0 0 0 0 0
          0 0 0 0 0 0 0 0 0 0 0 0
          0 0 0 0 0 0 0 0 0 0 0 0
          0 0 0 0 0 0 0 0 0 0 0 0
          0 0 0 0 0 0 0 0 0 0 0 0
          0 0 0 0 0 0 0 0 0 0 0 0
          0 0 0 0 0 0 0 0 0 0 0 0
          0 0 0 0 0 0 0 0 0 0 0 0
          0 0 0 0 0 0 0 0 0 0 0 0
          0 0 0 0 0 0 0 0 0 0 0 0
          0 0 0 0 0 0 0 0 0 0 0 0
          0 0 0 0 0 0 0 0 0 0 0 0
          0 0 0 0 0 0 0 0 0 0 0 0
          0 0 0 0 0 0 0 0 0 0 0 0
          0 0 0 0 0 0 0 0 0 0 0 0
          0 0 0 0 0 0 0 0 0 0 0 0
          0 0 0 0 0 0 0 0 0 0 0 0
          0 0 0 0 0 0 0 0 0 0 0 0
          0 0 0 0 0 0 0 0 0 0 0 0
          0 0 0 0 0 0 0 0 0 0 0 0
          0 0 0 0 0 0 0 0 0 0 0 0
          0 0 0 0 0 0 0 0 0 0 0 0
          0 0 0 0 0 0 0 0 0 0 0 0
          0 0 0 0 0 0 0 0 0 0 0 0
          0 0 0 0 0 0 0 0 0 0 0 0
          0 0 0 0 0 0 0 0 0 0 0 0
          0 0 0 0 0 0 0 0 0 0 0 0
          0 0 0 0 0 0 0 0 0 0 0 0
          0 0 0 0 0 0 0 0 0 0 0 0
          0 0 0 0 0 0 0 0 0 0 0 0
          0 0 0 0 0 0 0 0 0 0 0 0
          0 0 0 0 0 0 0 0 0 0 0 0
          0 0 0 0 0 0 0 0 0 0 0 0
          0 0 0 0 0 0 0 0 0 0 0 0
          0 0 0 0 0 0 0 0 0 0 0 0
          0 0 0 0 0 0 0 0 0 0 0 0
          0 0 0 0 0 0 0 0 0 0 0 0
          0 0 0 0 0 0 0 0 0 0 0 0
          0 0 0 0 0 0 0 0 0 0 0 0
          0 0 0 0 0 0 0 0 0 0 0 0
          0 0 0 0 0 0 0 0 0 0 0 0
          0 0 0 0 0 0 0 0 0 0 0 0
          0 0 0 0 0 0 0 0 0 0 0 0
          0 0 0 0 0 0 0 0 0 0 0 0
          0 0 0 0 0 0 0 0 0 0 0 0
          0 0 0 0 0 0 0 0 0 0 0 0
          0 0 0 0 0 0 0 0 0 0 0 0
          0 0 0 0 0 0 0 0 0 0 0 0
          0 0 0 0 0 0 0 0 0 0 0 0
          0 0 0 0 0 0 0 0 0 0 0 0
          0 0 0 0 0 0 0 0 0 0 0 0
          0 0 0 0 0 0 0 0 0 0 0 0
          0 0 0 0 0 0 0 0 0 0 0 0
          0 0 0 0 0 0 0 0 0 0 0 0
          0 0 0 0 0 0 0 0 0 0 0 0
          0 0 0 0 0 0 0 0 0 0 0 0
          0 0 0 0 0 0 0 0 0 0 0 0
          0 0 0 0 0 0 0 0 0 0 0 0
          0 0 0 0 0 0 0 0 0 0 0 0
          0 0 0 0 0 0 0 0 0 0 0 0
          0 0 0 0 0 0 0 0 0 0 0 0
          0 0 0 0 0 0 0 0 0 0 0 0
          0 0 0 0 0 0 0 0 0 0 0 0
          0 0 0 0 0 0 0 0 0 0 0 0
          0 0 0 0 0 0 0 0 0 0 0 0
          0 0 0 0 0 0 0 0 0 0 0 0
          0 0 0 0 0 0 0 0 0 0 0 0
          0 0 0 0 0 0 0 0 0 0 0 0
          0 0 0 0 0 0 0 0 0 0 0 0
          0 0 0 0 0 0 0 0 0 0 0 0
          0 0 0 0 0 0 0 0 0 0 0 0
          0 0 0 0 0 0 0 0 0 0 0 0
          0 0 0 0 0 0 0 0 0 0 0 0
          0 0 0 0 0 0 0 0 0 0 0 0
          0 0 0 0 0 0 0 0 0 0 0 0
          0 0 0 0 0 0 0 0 0 0 0 0
          0 0 0 0 0 0 0 0
        </DataArray>
      </CellData>
      <Points>
        <DataArray type="Float32" Name="Coordinates" NumberOfComponents="3" format="ascii">
          0 0 0 0.466523 0.491992 0 0.878185 0 0 0 0.932307 0
          0.961615 0.822875 0 1.64269 0 0 1.42747 0.492645 0 0.551789 1.32642 0
          1.53311 1.14845 0 1.10139 1.52125 0 1.99943 0.357377 0 2.30823 0 0
          2.57212 0.468357 0 2.88762 0 0 3.07243 0.315753 0 3.06052 0.71411 0
          2.00204 0.853365 0 2.10121 1.51602 0 2.59792 1.12015 0 3.31085 1.2944 0
          0 1.7629 0 0.812499 1.99958 0 0.465807 2.34738 0 1.43203 2.1837 0
          0 2.50287 0 0.384303 2.8568 0 0 3.16211 0 1.04959 2.40394 0
          0.899731 2.84135 0 1.40955 2.7214 0 1.24877 3.27592 0 1.60492 1.68453 0
          1.88819 1.9831 0 2.36102 2.17694 0 2.80645 1.75673 0 1.88539 2.49588 0
          1.84585 3.08121 0 2.37176 2.83889 0 2.94792 2.57867 0 2.73736 3.28788 0
          3.392 0 0 3.4499 0.396298 0 3.83109 0 0 3.8498 0.418347 0
          4.09727 0.255625 0 4.21334 0 0 4.2158 0.542786 0 4.45214 0.290038 0
          4.54611 0 0 4.69096 0.172055 0 4.51426 0.550192 0 4.75228 0.475731 0
          3.56763 0.770573 0 3.98032 0.771483 0 3.87858 1.13946 0 4.32703 0.927642 0
          4.69975 0.769258 0 4.35491 1.48167 0 4.67155 1.11257 0 4.83581 0 0
          5.088 0 0 4.91281 0.235072 0 5.16083 0.218083 0 5.33147 0 0
          5.61114 0 0 5.44341 0.247865 0 5.02266 0.416367 0 5.23367 0.436167 0
          5.00771 0.638678 0 5.4416 0.483095 0 5.9324 0 0 5.70445 0.196076 0
          6.30143 0 0 6.16857 0.247778 0 5.63884 0.402162 0 5.89647 0.330353 0
          5.85275 0.58119 0 6.51338 0.224078 0 6.13168 0.536007 0 6.3752 0.438783 0
          4.92565 0.910737 0 5.15306 0.826699 0 5.3065 0.65425 0 5.5856 0.675032 0
          5.37933 0.872333 0 4.96446 1.15936 0 5.2065 1.05126 0 4.81914 1.42598 0
          5.19945 1.29625 0 5.45217 1.09042 0 5.63883 0.927262 0 5.525 1.3085 0
          5.81402 0.809448 0 6.10783 0.830237 0 6.44363 0.684984 0 5.88509 1.03352 0
          6.3976 0.978143 0 5.6719 1.1349 0 5.80441 1.31686 0 6.10825 1.20343 0
          5.97819 1.45383 0 6.41017 1.31688 0 6.18041 1.47049 0 3.422 1.941 0
          3.84168 1.60316 0 4.24205 2.15925 0 4.81566 1.8359 0 4.86354 2.32465 0
          3.61506 2.65603 0 3.26108 3.17828 0 3.7278 3.14514 0 4.13169 2.83123 0
          4.65208 2.77416 0 4.41409 3.15826 0 5.07347 1.56651 0 5.18097 1.78701 0
          5.35216 1.48743 0 5.59783 1.52658 0 5.4447 1.69893 0 5.16969 2.105 0
          5.44703 1.91532 0 5.49288 2.16765 0 5.80972 1.5864 0 5.67067 1.74467 0
          5.84625 1.81216 0 6.01927 1.66289 0 6.24374 1.72283 0 6.5434 1.58042 0
          5.7435 1.96275 0 5.90603 2.02052 0 5.81633 2.18083 0 6.0964 1.92353 0
          6.45076 1.84898 0 6.03755 2.22495 0 6.2866 2.12552 0 5.33453 2.45001 0
          5.64488 2.34848 0 5.13994 2.72732 0 4.98338 3.00267 0 5.4754 2.78213 0
          5.28913 3.12366 0 5.61888 3.03275 0 5.88917 2.39892 0 5.69148 2.545 0
          5.962 2.617 0 6.125 2.49178 0 6.26196 2.34268 0 6.43627 2.52012 0
          6.20569 2.68095 0 5.766 2.80924 0 5.8906 3.03325 0 6.03817 2.84525 0
          6.50275 2.75891 0 6.2557 2.89949 0 6.11433 3.0735 0 0.555975 3.43027 0
          0 3.74943 0 0.413182 3.86352 0 1.07268 3.78076 0 0 4.27267 0
          0.668413 4.24234 0 0.389493 4.59206 0 0 4.73882 0 1.08408 4.175 0
          1.47702 4.19742 0 0.714889 4.57039 0 1.05248 4.50733 0 1.00124 4.86221 0
          1.72696 3.73769 0 2.25972 3.52822 0 2.22288 4.0144 0 2.66756 3.79837 0
          3.03889 3.59787 0 3.06689 4.01314 0 1.88407 4.25987 0 2.26684 4.45775 0
          1.62733 4.60737 0 1.34275 4.85742 0 2.00124 4.60393 0 2.67965 4.34873 0
          2.3949 4.84009 0 3.21779 4.42897 0 3.043 4.818 0 0.335684 4.97337 0
          0.68332 4.86271 0 0 5.15412 0 0.368907 5.36131 0 0.702823 5.18765 0
          0 5.5241 0 1.06466 5.18991 0 1.39405 5.18954 0 0.757068 5.50005 0
          0.515458 5.63682 0 1.13106 5.53207 0 0.257937 5.69239 0 0 5.85372 0
          0.210371 5.91992 0 0.479868 5.88511 0 0 6.14738 0 0 6.409 0
          0.243615 6.37169 0 0.332959 6.12773 0 0.595976 6.12715 0 0.487231 6.33438 0
          0.807274 5.75476 0 0.74973 5.96733 0 1.03422 5.88336 0 1.51484 5.48684 0
          1.313 5.72213 0 1.3045 5.97274 0 0.832101 6.14421 0 0.730846 6.29708 0
          0.974462 6.25977 0 1.07267 6.09651 0 1.21808 6.22246 0 1.11603 6.45202 0
          1.46169 6.18515 0 1.69732 5.07898 0 1.98637 4.91282 0 2.16004 5.17545 0
          1.87108 5.40211 0 2.21482 5.49141 0 2.45063 5.26709 0 2.67621 5.07969 0
          2.81638 5.33844 0 2.51707 5.56879 0 3.09751 5.30423 0 1.53341 5.79037 0
          1.73489 5.64249 0 1.78439 5.89401 0 1.55907 6.0062 0 1.98842 5.66688 0
          2.27169 5.77604 0 2.03751 5.89725 0 1.70531 6.14785 0 1.38444 6.45725 0
          1.61219 6.3493 0 1.86341 6.37712 0 1.94892 6.11054 0 2.19254 6.07323 0
          2.14759 6.27686 0 2.58172 5.81141 0 2.43615 6.03592 0 2.8058 5.65089 0
          3.13757 5.66149 0 2.96427 5.79566 0 2.79099 5.84358 0 2.67977 5.99862 0
          2.92338 5.96131 0 2.35793 6.20376 0 2.61055 6.25337 0 2.40283 6.37942 0
          2.82162 6.11234 0 3.01307 6.12377 0 2.88958 6.29128 0 3.08376 6.29758 0
          3.54279 3.64085 0 4.08839 3.41933 0 4.74865 3.22731 0 4.51016 3.45479 0
          3.91466 3.81258 0 4.42264 3.78136 0 4.82718 3.54608 0 3.60679 4.16186 0
          3.56533 4.52576 0 3.38099 4.7298 0 3.88105 4.49151 0 3.70539 4.84914 0
          4.08969 4.14464 0 4.44575 4.19054 0 4.72883 4.07733 0 4.84136 3.83383 0
          4.23102 4.47732 0 4.08806 4.79033 0 4.36101 4.71235 0 4.55466 4.52787 0
          4.82627 4.40647 0 5.0946 3.39843 0 5.56976 3.29907 0 5.36166 3.41099 0
          5.10031 3.79313 0 5.33371 3.68776 0 5.5587 3.60834 0 5.51544 3.87332 0
          5.81933 3.26483 0 6.01693 3.23284 0 5.80195 3.54402 0 6.1905 3.30175 0
          6.4123 3.1009 0 6.03244 3.48133 0 6.26667 3.53 0 6.41381 3.35722 0
          5.76966 3.83487 0 6.01096 3.75305 0 6.17463 3.68755 0 6.34283 3.75825 0
          6.2125 3.9279 0 4.99901 4.11381 0 5.31651 4.1099 0 5.60886 4.10554 0
          5.16602 4.47853 0 5.46561 4.40864 0 4.74321 4.70419 0 4.96358 4.65032 0
          5.13499 4.78698 0 5.39289 4.78122 0 5.63578 4.62268 0 5.83926 4.07538 0
          6.02568 3.9822 0 5.79085 4.35592 0 5.98508 4.22174 0 6.419 3.9865 0
          6.16462 4.18983 0 6.32386 4.13329 0 6.328 4.34748 0 6.09326 4.4347 0
          5.83909 4.56628 0 6.0068 4.66792 0 6.31859 4.6579 0 3.37344 5.02712 0
          3.69658 5.24168 0 3.96098 5.06095 0 3.431 5.29189 0 3.3108 5.49017 0
          3.53335 5.51202 0 3.78835 5.53454 0 4.25023 5.00244 0 4.56056 4.88784 0
          4.45081 5.23809 0 4.07149 5.33379 0 4.0317 5.59666 0 4.28956 5.51599 0
          4.72119 5.13365 0 4.74432 5.4175 0 4.52427 5.52593 0 3.34449 5.68935 0
          3.167 5.924 0 3.41427 5.88613 0 3.66153 5.84827 0 3.9088 5.8104 0
          3.69661 6.06267 0 3.194 6.16376 0 3.42675 6.12223 0 3.221 6.40353 0
          3.43465 6.38011 0 3.61853 6.2588 0 3.80127 6.28355 0 3.9189 6.12148 0
          3.66627 6.44175 0 4.15607 5.77253 0 4.09455 5.97315 0 4.30414 5.97062 0
          4.40333 5.73467 0 4.6506 5.6968 0 4.56336 5.9815 0 4.76589 5.89204 0
          4.18483 6.19073 0 3.99188 6.31668 0 4.15907 6.4313 0 4.38078 6.35575 0
          4.41387 6.16693 0 4.63623 6.33605 0 4.74251 6.09876 0 4.89635 4.91481 0
          5.17087 5.03233 0 4.95394 5.21002 0 5.4158 5.1329 0 5.61382 4.96464 0
          4.99096 5.45188 0 5.21352 5.35187 0 5.44304 5.39025 0 5.60048 5.2837 0
          5.14513 5.62107 0 5.3924 5.5832 0 5.83796 4.83496 0 5.80001 5.13237 0
          5.98963 5.05486 0 6.1001 4.88243 0 6.29415 4.92991 0 6.14564 5.18024 0
          6.41668 5.07825 0 5.77755 5.35375 0 5.96065 5.29987 0 5.63967 5.54533 0
          5.88693 5.50747 0 6.32573 5.24768 0 6.1342 5.4696 0 6.38147 5.43173 0
          4.89787 5.65893 0 4.95266 5.82995 0 5.12348 5.9201 0 5.3405 5.7949 0
          5.53611 5.69539 0 5.32337 6.03177 0 5.55684 5.89367 0 4.91592 6.03893 0
          5.09532 6.19002 0 4.83114 6.2453 0 4.93442 6.4365 0 5.55815 6.13413 0
          5.32435 6.23168 0 5.242 6.45581 0 5.4654 6.33862 0 5.78606 5.73748 0
          6.03879 5.66624 0 5.77573 5.96372 0 6.06345 5.89131 0 6.30771 5.71051 0
          6.26917 5.9306 0 5.77486 6.15453 0 5.96389 6.11079 0 5.66524 6.33192 0
          5.88577 6.30339 0 6.18343 6.08796 0 6.40624 6.08405 0 6.08785 6.28547 0
          6.30813 6.26613 0 6.72533 0 0 6.73678 0.455023 0 7.12553 0.368632 0
          7.21227 0 0 7.56147 0.500559 0 7.77162 0 0 8.08675 0.374517 0
          6.74453 0.865349 0 7.12116 0.74204 0 6.68429 1.21684 0 7.0774 1.15652 0
          6.99972 1.51839 0 7.54786 1.12771 0 8.05896 0.870331 0 7.31899 1.45726 0
          8.07724 1.43982 0 8.41413 0 0 8.62759 0.501696 0 9.15219 0 0
          9.38622 0.615849 0 10 0 0 8.59652 1.16704 0 8.98155 0.943441 0
          9.255 1.3968 0 10 1 0 6.78516 1.96366 0 6.50706 2.06785 0