<?xml version="1.0"?>
<VTKFile type="UnstructuredGrid" version="0.1" byte_order="LittleEndian">
  <UnstructuredGrid>
    <Piece NumberOfCells="1758" NumberOfPoints="5274">
      <PointData Scalars="p">
        <DataArray type="Float32" Name="p" NumberOfComponents="1" format="ascii">
          125000 123413 122349 125000 123413 125000 120529 120044 122349 122349 123413 121615
          121615 120529 122349 119671 120529 121615 123111 123413 125000 123111 121615 123413
          125000 123111 125000 120952 119671 121615 121615 123111 120952 120044 118950 118086
          120044 120529 118950 118950 117241 118086 119671 118950 120529 117801 117241 118950
          118086 117241 116509 117241 115869 116509 115329 116509 115869 116091 115869 117241
          116091 117241 117801 114816 115869 116091 117801 118950 119671 118575 117801 119671
          118575 119671 120952 116144 117801 118575 116144 116091 117801 114336 114816 116091
          114336 116091 116144 112162 114336 116144 123032 123111 125000 123032 125000 125000
          125000 123601 123032 120952 123111 123032 123032 121319 120952 120952 121319 119653
          123032 122183 121319 119653 121319 120790 125000 123601 125000 123601 122183 123032
          122418 122183 123601 123601 125000 123772 123772 122418 123601 120790 122183 122418
          121319 122183 120790 120790 122418 121456 121456 119825 120790 120952 119653 118575
          118575 117252 116144 117252 118575 119653 119653 118755 117252 118755 116515 117252
          112162 116144 117252 117252 116515 112162 116515 114448 112162 120790 118755 119653
          120790 119825 118755 118755 119825 118139 118755 118139 116515 116379 114448 116515
          118139 116379 116515 115329 114816 114503 115869 114816 115329 114503 114157 113961
          114816 114157 114503 114816 114255 114157 115869 114816 114816 114816 114255 114816
          113762 114157 114255 113759 114255 114816 113762 114255 113759 113733 113961 114157
          113961 113733 113622 113438 113622 113733 114157 113762 113733 113733 113426 113438
          113438 113424 113622 113424 113352 113349 113438 113352 113424 113247 113352 113438
          113240 113247 113438 113733 113762 113426 113300 113762 113759 113300 113426 113762
          113426 113240 113438 113240 113088 113247 113056 113240 113426 113056 113426 113300
          113088 113240 113056 113759 114816 114336 114336 113003 113759 112162 113003 114336
          113003 112971 113759 113759 112971 113300 112971 112831 113300 113300 112831 113056
          112692 112866 113056 112831 112692 113056 112395 112692 112831 112971 112540 112831
          113003 112466 112971 112466 112540 112971 112039 112540 112466 112831 112540 112395
          112395 112540 112039 112019 112395 112039 106971 106977 106982 113352 113287 113349
          106972 106971 106982 113287 113352 113247 113287 113247 113154 106972 106982 107002
          107002 107006 106972 106971 106972 106941 106941 106972 106940 106858 106941 106940
          106940 106972 107006 113154 113247 113088 113088 112973 113154 107006 107002 107047
          112973 113088 112866 112866 113088 113056 112866 112756 112973 107121 107073 107047
          107006 107047 107073 107073 107014 107006 107006 107014 106940 106940 107014 106967
          107181 107093 107073 107093 107014 107073 106967 107014 107093 106817 106688 106858
          106817 106858 106940 106940 106967 106817 106688 106586 106378 106688 106817 106586
          106817 106967 106850 106967 107093 107071 106967 107071 106850 107071 106992 106850
          106817 106850 106586 106586 106850 106632 106850 106992 106632 112692 112634 112866
          112866 112634 112756 112756 112634 112511 112340 112634 112692 112511 112634 112340
          112340 112246 112511 107073 107121 107181 107121 107231 107181 107093 107181 107260
          107181 107231 107299 107384 107299 107231 107181 107299 107260 107260 107299 107442
          112395 112340 112692 112340 112089 112246 112019 112340 112395 112019 112089 112340
          111831 112089 112019 112089 111967 112246 107589 107442 107384 107442 107299 107384
          107675 107470 107442 111967 112089 111831 111674 111967 111831 107442 107589 107675
          107854 107675 107589 107260 107071 107093 106992 107071 107252 107260 107252 107071
          107470 107252 107260 106992 106935 106632 107252 107237 106992 107237 106935 106992
          107260 107442 107470 107714 107450 107470 107470 107450 107252 107252 107450 107237
          107470 107675 107714 107970 107714 107675 107579 107450 107714 107579 107714 107971
          107237 107450 107579 107217 107237 107579 107217 106935 107237 107217 107579 107811
          111798 112466 113003 111798 113003 112162 112162 114448 113397 112162 113397 111798
          112039 112466 111798 112039 111708 112019 111368 111708 112039 112655 111798 113397
          111798 112655 111368 111368 112039 111798 116379 114919 114448 114919 113397 114448
          113397 114919 113931 116379 116297 114919 114919 115206 113931 113931 112655 113397
          112655 112122 111368 113326 112122 112655 112655 113931 113326 113931 114435 113326
          113326 112706 112122 113326 113497 112706 111708 111691 112019 112019 111691 111831
          111831 111691 111528 111528 111691 111356 111356 111691 111708 111831 111528 111674
          107675 107854 107970 111674 111528 111369 107970 107854 108194 111356 111263 111528
          111528 111263 111369 111049 111369 111263 111356 111708 111368 111368 110965 111356
          110965 111020 111356 111020 111263 111356 111049 111263 111020 110615 111020 110965
          110707 111049 111020 111020 110615 110707 107971 107714 107970 107971 107970 108351
          108351 107970 108194 108194 108635 108351 107971 108351 108428 107811 107579 107971
          107811 107971 108428 107811 108428 108254 108635 108827 108351 108635 109254 108827
          108351 108827 108428 108827 108938 108428 109457 108827 109254 109254 110317 109457
          109457 108938 108827 108428 108938 108738 108428 108738 108254 109328 108738 108938
          109328 108938 109457 108254 108738 108883 108738 109328 108883 111368 112122 110965
          112122 111935 110965 110965 111935 111477 112706 111935 112122 111477 110615 110965
          110615 111477 111358 111358 110317 110615 111477 111935 112406 112176 111358 111477
          112406 111935 112706 113497 113111 112706 113111 112406 112706 111477 112406 112176
          112176 112047 111358 112892 112176 112406 112406 113111 112892 112700 112176 112892
          110317 110707 110615 110042 109457 110317 109328 109457 110042 110317 111358 111593
          112047 111593 111358 110317 110005 110042 110005 109879 110042 109731 109328 110042
          108883 109328 109731 110042 109879 109731 109879 109696 109731 109731 109696 109377
          111593 112047 112340 112700 112047 112176 112340 112047 112700 109855 109879 110005
          109778 109879 109855 112886 112340 112700 109855 109810 109778 109879 109778 109696
          109638 109696 109778 109780 109778 109810 109780 109638 109778 109638 109780 109663
          125000 123772 125000 123772 125000 123891 123772 122753 122418 123891 122753 123772
          125000 125000 123891 123891 122931 122753 122753 121456 122418 121456 122753 122006
          122006 120813 121456 122753 122931 122006 120813 122006 121490 125000 124338 123891
          125000 124338 125000 124338 123480 123891 123480 122931 123891 124338 125000 124326
          124338 124326 123648 125000 124326 125000 123648 123480 124338 123480 123648 122967
          123661 123648 124326 122967 123648 123661 122520 122931 123480 122006 122931 122520
          122520 121490 122006 121490 122520 122044 122967 122520 123480 122967 122044 122520
          122967 122442 122044 121490 122044 121105 122044 122442 121646 122044 121646 121105
          121456 120813 119825 120813 119330 119825 118139 119825 119330 120813 120309 119330
          120813 121490 120309 120309 119278 119330 116379 118139 117899 118139 119330 117899
          117899 116297 116379 117899 119330 119278 119278 118527 117899 117899 117309 116297
          118527 117309 117899 121490 121105 120309 121105 120229 120309 119278 120309 120229
          120229 119514 119278 121646 120862 121105 120229 121105 120862 120862 120177 120229
          119514 120229 120177 119514 118527 119278 118527 117990 117309 119088 117990 118527
          119514 119088 118527 120177 119620 119514 119088 119514 119620 117990 119088 118178
          125000 124316 124326 124316 125000 125000 124316 123661 124326 124316 123783 123661
          123107 123661 123783 123783 123419 123107 125000 124508 124316 124316 124508 123984
          125000 124508 125000 123984 124508 124271 124271 124508 125000 123984 123783 124316
          123419 123783 123984 123716 123984 124271 123419 123984 123716 123716 123148 123419
          123661 123107 122967 122967 123107 122442 122442 123107 122781 122442 122097 121646
          122442 122781 122097 121646 122097 121301 123419 122781 123107 122781 123419 123148
          122487 122781 123148 122097 122781 122487 122097 121804 121301 121804 122097 122487
          122487 122077 121804 125000 125000 124479 124479 124271 125000 123970 124271 124479
          124547 124479 125000 124271 123970 123716 123716 123445 123148 123445 123716 123970
          124094 123970 124479 123970 124094 123642 123642 123445 123970 125000 125000 124547
          125000 124659 124547 124479 124547 124094 124547 124265 124094 125000 124659 125000
          124547 124659 124265 124265 124659 124485 123642 124094 123868 123868 123417 123642
          124265 123868 124094 123868 124265 124076 123417 123868 123676 123445 122970 123148
          122487 123148 122970 122970 122512 122487 123190 122970 123445 123642 123190 123445
          122970 122738 122512 123190 122738 122970 122487 122512 122077 122077 122512 122287
          122287 122512 122738 122077 122287 121835 122287 122012 121835 123190 123642 123417
          123417 122923 123190 122738 123190 122923 122923 123417 123175 122361 122287 122738
          122738 122923 122361 122361 122012 122287 121904 122012 122361 122361 122923 122645
          122645 122020 122361 122020 121904 122361 121301 120862 121646 121301 120613 120862
          120613 120177 120862 120613 120091 120177 121301 121344 120855 121804 121344 121301
          121600 121344 121804 120855 121344 121147 121301 120855 120613 120855 120438 120613
          120091 120613 120438 120438 120855 120691 121147 120691 120855 120691 120246 120438
          120177 120091 119620 119620 120091 119672 119620 119672 119113 119088 119620 119113
          119113 118178 119088 119113 118820 118418 120438 120037 120091 120091 120037 119672
          119672 120037 119781 119781 119423 119672 120246 120037 120438 119781 120037 120246
          119781 119460 119423 119598 119460 119781 119672 119423 119113 119113 119423 119135
          119135 118820 119113 119460 119135 119423 119135 119460 119152 119135 118837 118820
          119152 118837 119135 122077 121600 121804 122077 121835 121600 121147 121344 121600
          121600 121386 121147 120937 121147 121386 121386 121600 121835 121386 121835 121583
          121147 120937 120691 120246 120691 120490 120490 120691 120937 121051 120937 121386
          120937 121051 120593 120593 120490 120937 120490 120593 120136 121835 122012 121583
          122012 121904 121583 121386 121583 121051 121583 121243 121051 121583 121904 121630
          122020 121630 121904 121583 121630 121243 121243 121630 121457 120777 120593 121051
          120593 120777 120317 120777 121051 121243 121243 120972 120777 120777 120491 120317
          119781 120246 120043 120490 120043 120246 120043 119598 119781 120043 119778 119598
          120136 120043 120490 120136 119778 120043 119710 119778 120136 119425 119778 119710
          119460 119598 119152 119598 119425 119152 119152 118745 118837 119152 118832 118745
          119425 119598 119778 119710 119375 119425 119375 119125 119425 119152 119425 119125
          119152 119125 118832 118766 118832 119125 120136 120593 120317 120317 119934 120136
          120136 119934 119710 119710 119934 119519 119973 119934 120317 119973 120317 120491
          119519 119934 119973 119519 119375 119710 119097 119375 119519 119125 119375 119097
          119097 118766 119125 119973 119479 119519 119519 119479 119069 119069 119097 119519
          118728 119097 119069 116297 115206 114919 116297 116190 115206 117309 116190 116297
          117309 116979 116190 115206 116190 115383 116090 115383 116190 115206 114435 113931
          115383 114435 115206 115383 114743 114435 114435 114040 113326 114040 113497 113326
          114743 114040 114435 113497 114040 114163 114163 114040 114743 115383 116090 115446
          115446 114743 115383 114163 114743 114909 115446 114909 114743 117990 116979 117309
          117990 117445 116979 116190 116979 116090 116979 117445 116748 116979 116748 116090
          118178 117445 117990 117358 117445 118178 116748 117445 117358 117358 116682 116748
          116090 116093 115446 116090 116748 116093 116093 115519 115446 114909 115446 115519
          115519 115046 114909 115046 115519 115587 116093 116748 116682 116093 116085 115519
          116682 116085 116093 116682 116568 116085 116085 115587 115519 115587 116085 116035
          116035 115683 115587 113497 113650 113111 113111 113650 113483 114163 113650 113497
          113983 113650 114163 113483 113650 113983 113483 112892 113111 112700 112892 113324
          113483 113324 112892 113798 113324 113483 113666 113324 113798 114549 113983 114163
          114163 114909 114549 114549 114256 113983 113483 113983 113798 114256 113798 113983
          114066 113666 113798 113798 114256 114066 113324 113230 112700 113230 112886 112700
          113230 113316 112886 113666 113230 113324 113230 113529 113316 113666 113529 113230
          109810 109845 109780 109845 109884 109780 109955 109884 109845 113316 113529 113648
          109884 109955 110039 109780 109884 109878 110039 109878 109884 113797 113529 113666
          113797 113648 113529 113666 113930 113797 114066 113930 113666 114066 114101 113930
          113797 113930 114015 114015 113930 114101 113648 113797 113898 110139 110039 109955
          109878 110039 110158 110039 110239 110158 114015 113898 113797 114073 113898 114015
          110039 110139 110239 110396 110239 110139 115046 114549 114909 114549 114672 114256
          115046 114672 114549 115046 115024 114672 114672 114416 114256 114256 114416 114066
          114416 114273 114066 114672 114731 114416 114672 115024 114731 114501 114273 114416
          114731 114501 114416 115024 115046 115587 115587 115371 115024 115587 115683 115371
          115371 115033 115024 115033 115371 115353 115033 114731 115024 115033 114744 114731
          114744 114501 114731 114744 115033 115014 115014 114718 114744 114273 114101 114066
          114101 114177 114015 114177 114101 114273 114334 114273 114501 114334 114177 114273
          114220 114177 114334 114015 114132 114073 114177 114132 114015 110239 110396 110485
          114073 114132 114167 110735 110485 110396 114220 114132 114177 114167 114132 114220
          114167 114220 114224 114511 114334 114501 114744 114511 114501 114220 114334 114338
          114511 114338 114334 114511 114744 114718 114718 114462 114511 114338 114511 114462
          114462 114269 114338 114338 114224 114220 114224 114185 114167 114185 114224 114144
          114224 114338 114269 114269 114144 114224 114144 114107 114185 117826 117358 118178
          119113 118418 118178 118178 118418 117826 117358 117826 117210 116682 117358 117210
          117826 117641 117210 118418 118820 118503 118418 118097 117826 118418 118503 118097
          118820 118837 118503 118503 118837 118745 118340 118503 118745 118097 118503 118340
          117826 118097 117641 117210 117641 117235 117539 117235 117641 117938 117641 118097
          118097 118340 117938 117641 117938 117539 117210 116568 116682 117210 116929 116568
          117235 116929 117210 116451 116568 116929 116929 116819 116451 116035 116085 116568
          116568 116451 116035 115739 115683 116035 116110 115739 116035 116035 116451 116110
          116451 116492 116110 116819 116929 117235 117235 117145 116819 117145 117235 117539
          117145 116754 116819 116754 117145 116870 116819 116492 116451 116754 116492 116819
          116367 116492 116754 116110 116492 116367 116110 116367 115987 116754 116475 116367
          116075 116367 116475 118745 118832 118484 118745 118484 118340 118101 118340 118484
          118484 118832 118766 118484 118766 118429 118108 118101 118484 118484 118429 118108
          118340 118101 117938 117938 118101 117730 117539 117938 117730 117730 117291 117539
          117730 118101 118108 117730 118108 117759 117759 117377 117730 118429 118766 118728
          119097 118728 118766 118108 118429 118129 118728 118407 118429 118407 118129 118429
          118624 118728 119069 118624 118407 118728 118129 118407 118171 118171 118407 118624
          118108 118129 117759 117759 118129 117774 117376 117377 117759 118171 117774 118129
          117759 117774 117376 117378 117376 117774 117145 117539 117291 117291 116870 117145
          117291 116946 116870 117377 117291 117730 116946 117291 117377 116585 116870 116946
          116870 116475 116754 116870 116585 116475 116475 116585 116203 116075 116475 116203
          116946 116577 116585 116203 116585 116577 117377 116976 116946 117377 117376 116976
          116577 116946 116976 116976 116555 116577 116965 116976 117376 117376 117378 116965
          116555 116976 116965 116555 116965 116533 116156 116577 116555 116577 116156 116203
          116156 115773 116203 116113 116555 116533 116113 116156 116555 115712 116156 116113
          115371 115683 115739 115353 115371 115739 115691 115739 116110 115353 115739 115691
          115691 115316 115353 115353 115014 115033 115014 115353 115316 114718 115014 114952
          115316 114952 115014 114952 115316 115240 115987 115691 116110 115316 115691 115611
          115691 115987 115611 116367 116075 115987 115691 115987 116075 115987 115691 115611
          115611 115240 115316 115240 114873 114952 115240 114936 114873 115241 115611 115691
          115241 115240 115611 115241 114936 115240 114762 114936 115241 114462 114718 114634
          114952 114634 114718 114339 114269 114462 114634 114339 114462 114634 114952 114873
          114873 114511 114634 114339 114634 114511 114269 114339 114088 114088 114144 114269
          113884 114144 114088 114088 114339 114151 114511 114151 114339 113884 114088 113791
          114151 113791 114088 114511 114873 114565 114565 114225 114511 114873 114936 114565
          114565 114936 114762 114565 114223 114225 114511 114225 114151 113885 114151 114225
          113885 113791 114151 113885 113673 113791 114225 113992 113885 114223 113992 114225
          113885 113992 113731 113885 113731 113633 115691 116075 115764 116203 115764 116075
          115764 115432 115691 116203 115773 115764 115407 115432 115764 115773 115407 115764
          115691 115432 115241 115241 115432 115071 115241 115071 114762 115071 115432 115407
          114905 115071 115407 115071 114721 114762 114905 114721 115071 116156 115712 115773
          115712 115330 115773 115773 115330 115407 115224 115330 115712 115224 114928 115330
          115407 115330 114905 115330 114928 114905 114379 114721 114905 114905 114570 114379
          114905 114928 114570 114570 114928 114649 114762 114417 114565 114410 114417 114762
          114565 114417 114223 114223 114417 114122 114762 114721 114410 114122 114417 114410
          113999 114122 114410 113903 113992 114223 113903 114223 114122 113731 113992 113903
          113548 113731 113903 113727 113903 114122 113727 114122 113999 113903 113727 113548
          113548 113727 113300 114410 114721 114379 113999 114410 114379 113829 113999 114379
          114379 114570 114168 114379 114168 113829 113525 113999 113829 113525 113727 113999
          113300 113727 113525 113829 113291 113525 113002 113525 113291 113002 113300 113525
          106378 106182 105863 106378 106586 106182 105863 105583 105051 105863 106182 105583
          106182 106586 106632 106125 106182 106632 106182 106125 105583 106125 105612 105583
          105051 105583 104680 103848 105051 104680 105583 105612 104680 106632 106935 106654
          106632 106654 106125 106654 106935 107217 106654 106188 106125 106188 105612 106125
          106817 106654 107217 107217 107553 106817 106654 106817 106188 106223 106188 106817
          106817 107121 106223 104680 105612 105442 105442 105612 106188 105442 104236 104680
          106188 106223 105442 105328 105442 106223 105442 105328 104236 103136 103848 104680
          103848 103136 102179 103136 101551 102179 104680 104236 103136 102490 101551 103136
          102179 101551 100000 100000 101551 100000 103136 104236 102490 105328 104185 104236
          104236 104185 102490 102490 104185 103758 100000 101551 102490 100000 100000 102490
          107217 107811 107553 107811 108254 107553 107553 108254 107976 107553 107976 107121
          106817 107553 107121 107976 108254 108883 108457 107976 108883 107516 107121 107976
          107976 108457 107516 106412 106223 107121 106223 106412 105328 107121 107516 106412
          105448 105328 106412 106776 106412 107516 107516 107932 106776 106412 106776 105448
          105448 106776 105916 108883 109731 109377 108883 109377 108457 107932 107516 108457
          108967 108457 109377 108457 108967 107932 109377 109696 109638 109638 109427 109377
          109377 109427 108967 109663 109427 109638 108967 109427 109474 108967 109474 109146
          107932 108495 107371 107371 106776 107932 106776 107371 105916 108495 107932 108967
          108967 109146 108495 107962 107371 108495 108495 108803 107962 104185 105328 105448
          103758 104185 105448 103758 105448 105916 103758 105916 104239 102490 103758 100000
          100000 103758 104239 105916 107371 107962 104239 105916 107962 107962 107438 104239
          104239 100000 100000 100000 104239 107438 109780 109878 109663 109427 109663 109474
          109474 109663 109835 109663 109878 109835 109146 109474 109685 109474 109835 109685
          109685 109404 109146 110158 109835 109878 109835 110158 110136 110158 110239 110485
          110158 110485 110531 110531 110136 110158 109685 109835 110136 109685 110136 110027
          109404 109685 110027 110136 110530 110027 109146 108803 108495 108803 109146 109404
          108935 108803 109404 107962 108803 108935 108935 108456 107962 108935 109404 109808
          110027 109808 109404 109808 109406 108935 109406 108456 108935 110883 110531 110485
          110136 110531 110530 110986 110530 110531 110485 110735 110883 111159 110883 110735
          110531 110883 110986 110883 111361 110986 110027 110530 110479 110530 110986 111016
          110530 111016 110479 110479 111016 111057 110883 111159 111361 111361 111159 111690
          110986 111361 111488 111361 111690 111947 113884 114107 114144 112372 111947 111690
          111488 111361 111947 110986 111488 111016 111016 111488 111630 111016 111630 111057
          111488 111947 112264 112264 111630 111488 111630 112177 111763 109808 110027 110479
          110479 110341 109808 109808 110341 109406 110479 111057 110341 109406 110341 110232
          110232 108847 109406 111057 111056 110341 111057 111630 111763 111763 111056 111057
          111763 111622 111056 110341 111056 110232 111056 111231 110232 111056 111622 111231
          110232 111231 110908 111813 110908 111231 107450 107438 107962 107962 108456 107450
          108456 109406 108847 107450 108456 108847 107438 107450 105191 100000 107438 100000
          105191 100000 107438 108847 107930 107450 110232 109820 108847 109820 107930 108847
          107450 107930 105191 107930 107130 105191 110232 110908 109820 109820 109385 107930
          109820 110908 111653 111653 109385 109820 111653 111535 109385 109385 107130 107930
          109385 111535 107521 107521 107130 109385 107130 107521 105017 100000 105191 100000
          105191 107130 105017 105191 105017 100000 112372 112562 111947 111947 112562 112264
          113791 113427 113884 113427 112562 112372 113089 112562 113427 112264 112562 113089
          112264 112177 111630 112781 112177 112264 112498 112177 112781 112264 113089 112781
          112781 113089 112158 112498 112781 111860 113791 113673 113427 113427 113673 113607
          113607 113673 113633 113089 113427 112407 113633 113673 113885 113491 113607 113633
          112407 111531 111549 112407 112158 113089 112407 111549 112158 112158 111860 112781
          111287 111860 112158 112158 111549 111287 111860 111287 110959 110692 111287 111549
          111763 112177 112498 111763 112498 112242 112242 111622 111763 111860 111552 112498
          112242 112498 111552 111552 111251 112242 111231 111622 112012 112012 111622 112242
          111231 112012 111813 112012 112242 111251 111251 110897 112012 110897 111813 112012
          110897 110496 111813 111552 111860 110959 110599 111251 111552 110599 111552 110959
          110425 110959 111287 110959 110005 110599 111251 110277 110897 110599 110277 111251
          110897 110277 109285 109537 110277 110599 109537 110599 110005 109285 110277 109537
          109285 109537 108401 113428 113633 113731 113731 113548 113428 113428 113491 113633
          113428 113252 113491 113428 113548 113158 113548 113300 113158 113107 113252 113428
          113158 113107 113428 111549 111531 110758 110758 110692 111549 111287 110692 110425
          110692 110758 110084 113252 113107 112907 110425 110692 109941 110084 109941 110692
          112809 113158 113300 112782 113107 113158 112782 112907 113107 112809 112782 113158
          113300 113002 112809 112425 112809 113002 112215 112782 112809 112809 112425 112215
          109941 110084 109530 112907 112782 112442 109530 109291 109941 112215 112442 112782
          112215 111847 112442 109291 109530 109132 109132 108910 109291 110005 110959 110425
          110005 110425 109513 110425 109941 109513 108894 110005 109513 109537 110005 108894
          108894 108401 109537 108401 108894 107666 109513 109941 109291 109513 109291 108604
          108894 109513 108604 108604 109291 108910 107666 108894 108604 108604 107652 107666
          105994 107666 107652 110908 111813 111653 110496 111653 111813 109864 111535 111653
          109864 111653 110496 107910 109864 110496 106939 111535 109864 105017 107521 106939
          106939 107521 111535 106939 109864 107910 109285 110496 110897 107910 110496 109285
          106731 107910 109285 104355 106939 107910 104355 107910 106731 100000 105017 104355
          105017 106939 104355 100000 104355 100000 109285 108401 106731 106731 108401 107666
          104355 106731 103374 106731 107666 105994 103374 106731 105994 103374 100000 104355
          100000 103374 100000 124485 124659 125000 124485 125000 125000 124485 124076 124265
          124485 125000 124423 124423 124000 124485 123868 124076 123676 124000 124076 124485
          123676 124076 124000 123458 123676 124000 125000 124423 125000 124204 124423 125000
          123798 124000 124423 123798 123458 124000 124204 123798 124423 123532 123191 123798
          123417 123676 123175 123458 123175 123676 122923 123175 122645 122645 123175 122905
          123175 123458 122905 122645 122338 122020 122338 122645 122905 122338 121755 122020
          123191 122905 123458 123458 123798 123191 122584 122905 123191 122584 123191 122918
          122584 122338 122905 121987 121755 122338 121987 122338 122584 122236 121987 122584
          125000 125000 124204 124217 124204 125000 124204 123532 123798 123544 123532 124204
          125000 124217 125000 124217 123544 124204 123399 123544 124217 123191 123532 122918
          122918 123532 123544 122918 122236 122584 122918 122422 122236 122236 122422 121902
          123544 122836 122918 123399 122836 123544 122836 122422 122918 122219 122422 122836
          121902 122422 122219 122545 122219 122836 121457 121630 122020 121755 121457 122020
          120972 121243 121457 120972 121457 121198 121198 121457 121755 120491 120777 120972
          120972 120695 120491 120695 120259 120491 120695 120972 121198 121198 120911 120695
          121755 121987 121434 121434 121198 121755 121657 121434 121987 122236 121657 121987
          121657 121120 121434 120911 121198 121434 120695 120911 120401 120911 120705 120401
          121120 120911 121434 121120 120705 120911 120401 120705 120340 120491 120259 119973
          120259 119790 119973 119973 119790 119479 120401 120259 120695 119825 119790 120259
          119041 119069 119479 119479 119790 119439 119479 119439 119041 119825 119439 119790
          119013 119041 119439 120259 120401 119825 120401 120091 119825 120340 120091 120401
          119825 120091 119797 119797 120091 120340 119404 119439 119825 119439 119404 119013
          119404 118985 119013 119797 119404 119825 119797 119319 119404 119319 118985 119404
          121657 122236 121902 121312 121120 121657 121312 121657 121902 120685 121120 121312
          120685 120705 121120 120685 120340 120705 120685 121312 120925 121558 121902 122219
          121312 121902 121558 120925 121312 121558 121558 122219 121826 121163 121558 121826
          120685 120925 120316 121558 121163 120925 120541 120316 120925 120541 120925 121163
          120070 120340 120685 120340 120070 119797 120070 119577 119797 120316 120070 120685
          119748 119577 120070 119577 119319 119797 119319 118959 118985 119577 119215 119319
          119319 119215 118959 119748 119288 119577 119288 119215 119577 118959 119215 118932