<?xml version="1.0"?>
<VTKFile type="UnstructuredGrid" version="0.1" byte_order="LittleEndian">
  <UnstructuredGrid>
    <Piece NumberOfCells="1728" NumberOfPoints="2197">
      <PointData Scalars="S_liq">
        <DataArray type="Float32" Name="S_liq" NumberOfComponents="1" format="ascii">
          0.208924 0.208888 0.208918 0.208879 0.208723 0.208669 0.208708 0.208644 0.208805 0.20879 0.208539 0.208482
          0.208734 0.208719 0.208425 0.208316 0.208738 0.208716 0.208418 0.208312 0.208838 0.208806 0.208542 0.208467
          0.209015 0.208979 0.208752 0.208691 0.209241 0.209205 0.209004 0.208949 0.209488 0.209456 0.209274 0.209227
          0.209727 0.209703 0.209534 0.209501 0.209927 0.209911 0.209751 0.20973 0.21006 0.210049 0.209896 0.209882
          0.210106 0.210097 0.209947 0.209935 0.208914 0.208869 0.208684 0.208601 0.208774 0.208363 0.208683 0.208214
          0.208665 0.208172 0.208739 0.208298 0.208892 0.208534 0.209111 0.208789 0.209374 0.209093 0.209643 0.209411
          0.209871 0.209676 0.210023 0.209848 0.210076 0.209908 0.208942 0.208896 0.208694 0.208606 0.208798 0.20835
          0.208688 0.208218 0.208657 0.208108 0.208695 0.208201 0.208815 0.208347 0.209018 0.208527 0.209283 0.208899
          0.209576 0.209298 0.20983 0.209614 0.209998 0.209813 0.210056 0.20988 0.209025 0.208983 0.208766 0.208693
          0.208882 0.208504 0.208786 0.208294 0.208727 0.208227 0.208732 0.20826 0.208818 0.208258 0.208997 0.208338
          0.20925 0.208754 0.209547 0.20923 0.209817 0.209581 0.209995 0.2098 0.210057 0.209874 0.209164 0.209128
          0.2089 0.208844 0.20904 0.208702 0.208944 0.208561 0.208883 0.208478 0.208872 0.208444 0.208923 0.208427
          0.209067 0.20851 0.209302 0.208854 0.209592 0.209262 0.209855 0.209607 0.210033 0.209831 0.210095 0.209908
          0.209352 0.209321 0.209086 0.209034 0.209249 0.208905 0.209171 0.208777 0.209106 0.208728 0.209086 0.208697
          0.209123 0.208686 0.209247 0.208765 0.209452 0.209029 0.209708 0.209392 0.209951 0.209704 0.210118 0.209917
          0.210177 0.209992 0.209578 0.209554 0.209325 0.209271 0.209493 0.209162 0.209415 0.209115 0.209372 0.208996
          0.209345 0.20899 0.209383 0.208956 0.209471 0.209123 0.209662 0.20926 0.209879 0.209581 0.210094 0.209862
          0.210244 0.210053 0.210298 0.210121 0.209829 0.209808 0.209604 0.209564 0.209757 0.209466 0.2097 0.20937
          0.209647 0.209338 0.209627 0.209312 0.209652 0.2093 0.209743 0.209355 0.20989 0.209553 0.21008 0.209813
          0.210264 0.210054 0.210394 0.210219 0.210441 0.210276 0.210075 0.210058 0.209883 0.209858 0.210013 0.209794
          0.20996 0.209724 0.209918 0.209668 0.209899 0.20963 0.209917 0.209633 0.209992 0.209684 0.210118 0.209852
          0.210281 0.210051 0.210435 0.210249 0.210546 0.210386 0.210586 0.210434 0.210279 0.210265 0.210115 0.210097
          0.210229 0.21005 0.210183 0.209991 0.210142 0.209934 0.210123 0.209894 0.21014 0.209893 0.210202 0.209962
          0.210314 0.210084 0.21045 0.210252 0.210581 0.210414 0.210675 0.210528 0.210709 0.210568 0.210413 0.210402
          0.210264 0.21025 0.21037 0.21021 0.210328 0.210156 0.210289 0.210103 0.21027 0.210067 0.210285 0.210069
          0.210343 0.210126 0.210442 0.21024 0.210563 0.210385 0.210679 0.210525 0.210762 0.210623 0.210792 0.210658
          0.21046 0.210449 0.210316 0.210302 0.210418 0.210264 0.210378 0.210213 0.21034 0.210161 0.210321 0.210128
          0.210336 0.210131 0.210392 0.210188 0.210486 0.210295 0.210602 0.210432 0.210713 0.210564 0.210793 0.210657
          0.210821 0.21069 0.208204 0.208118 0.20817 0.208063 0.20791 0.207733 0.20771 0.2074 0.207664 0.207354
          0.207804 0.207611 0.208056 0.207939 0.208354 0.208256 0.208673 0.208593 0.208984 0.208929 0.209247 0.209214
          0.209422 0.209402 0.209484 0.209467 0.208099 0.207948 0.207387 0.205601 0.205938 0.207187 0.207613 0.207942
          0.208339 0.208769 0.209125 0.209349 0.209425 0.208051 0.207884 0.207253 0.205029 0.205769 0.206859 0.207102
          0.207271 0.207846 0.208549 0.209012 0.209287 0.209378 0.208071 0.207928 0.207481 0.206986 0.206861 0.206959
          0.206817 0.204669 0.207462 0.208365 0.208924 0.209248 0.209355 0.20817 0.208054 0.207811 0.207518 0.207368
          0.207289 0.207063 0.206972 0.207466 0.208291 0.208903 0.209264 0.209382 0.208353 0.208225 0.207915 0.207709
          0.20768 0.207654 0.207451 0.207412 0.20791 0.208393 0.20899 0.209357 0.209474 0.208628 0.208485 0.207843
          0.206943 0.208003 0.208035 0.207818 0.206554 0.20804 0.208691 0.209204 0.209522 0.209626 0.208984 0.208885
          0.20864 0.208484 0.208474 0.208444 0.208251 0.208185 0.20854 0.20906 0.209471 0.209729 0.209816 0.209352
          0.209304 0.209194 0.209077 0.208978 0.208858 0.208688 0.208896 0.208963 0.209394 0.209729 0.209937 0.210008
          0.209652 0.209623 0.209549 0.209449 0.209341 0.209224 0.209125 0.209119 0.209368 0.209678 0.209943 0.210113
          0.210171 0.20984 0.209818 0.209756 0.209667 0.209569 0.209479 0.209433 0.209483 0.20965 0.209879 0.210089
          0.21023 0.21028 0.209904 0.209883 0.209825 0.20974 0.209647 0.20957 0.209544 0.209603 0.209752 0.209952
          0.210141 0.210272 0.210318 0.207517 0.207427 0.207467 0.207356 0.207196 0.207059 0.206947 0.206716 0.20682
          0.206569 0.206877 0.206674 0.207086 0.206918 0.207395 0.20725 0.207762 0.207646 0.208138 0.208059 0.208462
          0.208415 0.208679 0.20865 0.208755 0.208731 0.207344 0.207189 0.206691 0.206105 0.205819 0.206027 0.206439
          0.206791 0.20728 0.207829 0.208287 0.208575 0.208672 0.207206 0.207017 0.206393 0.204775 0.202837 0.205396
          0.205674 0.205848 0.206593 0.207503 0.208122 0.208485 0.208605 0.207116 0.206899 0.206313 0.205539 0.204469
          0.205252 0.205145 0.202978 0.205973 0.2072 0.207979 0.208424 0.208568 0.207136 0.206897 0.206117 0.206022
          0.205792 0.205691 0.205312 0.20516 0.205666 0.206903 0.207908 0.208435 0.208596 0.207311 0.20707 0.206603
          0.206337 0.206319 0.206228 0.205903 0.204762 0.203152 0.206552 0.208004 0.208547 0.208709 0.207653 0.207416
          0.206327 0.20622 0.206761 0.206725 0.206434 0.206128 0.206557 0.207431 0.208289 0.208756 0.2089 0.208114
          0.207957 0.207629 0.20741 0.207362 0.20721 0.206803 0.206637 0.207208 0.208057 0.208657 0.209018 0.209137
          0.208587 0.208517 0.208349 0.208161 0.207968 0.207711 0.207163 0.204466 0.207572 0.208474 0.208988 0.209279
          0.209375 0.208965 0.208921 0.208802 0.208637 0.20844 0.208194 0.20783 0.207719 0.208192 0.208848 0.20926
          0.209498 0.209577 0.209199 0.209163 0.209064 0.208918 0.208747 0.208575 0.208464 0.208521 0.208783 0.209139
          0.209448 0.209644 0.209711 0.209277 0.209244 0.209151 0.209013 0.208857 0.208719 0.20866 0.208738 0.208958
          0.209249 0.209517 0.209696 0.209758 0.206718 0.206626 0.20666 0.206555 0.206381 0.206274 0.206071 0.205918
          0.205818 0.205621 0.205731 0.205505 0.205857 0.205649 0.206169 0.20598 0.206594 0.206444 0.207048 0.206946
          0.207442 0.207381 0.207706 0.207669 0.207799 0.207769 0.206502 0.206364 0.205983 0.205462 0.205022 0.204967
          0.205021 0.205389 0.205975 0.206654 0.207219 0.207573 0.207693 0.206285 0.206103 0.205576 0.20482 0.204339
          0.20407 0.204058 0.204185 0.205127 0.206246 0.207017 0.207462 0.207609 0.206084 0.205786 0.205132 0.204046
          0.201881 0.203574 0.203186 0.201227 0.20429 0.205919 0.206871 0.207397 0.207567 0.206016 0.205623 0.203648
          0.204282 0.204042 0.203835 0.203366 0.201276 0.204276 0.205852 0.206859 0.207432 0.207614 0.206191 0.205792
          0.205017 0.2047 0.204653 0.204461 0.204199 0.203819 0.205121 0.206114 0.207037 0.20759 0.207769 0.206607
          0.206309 0.20494 0.204589 0.205234 0.205151 0.204999 0.205121 0.205692 0.206599 0.207378 0.207858 0.208017
          0.20716 0.206967 0.206549 0.206195 0.205984 0.205683 0.205236 0.205349 0.206138 0.207104 0.207776 0.208178
          0.208312 0.207707 0.207611 0.207365 0.207052 0.206706 0.206158 0.205526 0.203159 0.206494 0.207551 0.208153
          0.208494 0.208606 0.20814 0.208074 0.207889 0.20762 0.207286 0.206888 0.206413 0.206501 0.207186 0.207978
          0.208473 0.208758 0.208851 0.20841 0.208355 0.208202 0.207974 0.207709 0.207459 0.207341 0.207477 0.207857
          0.208315 0.208697 0.208934 0.209015 0.208501 0.208451 0.208307 0.208098 0.207864 0.207675 0.207618 0.207757
          0.208066 0.208444 0.208778 0.208997 0.209073 0.205798 0.205686 0.205738 0.205617 0.20538 0.205283 0.204951
          0.204803 0.204524 0.204264 0.204275 0.203918 0.204334 0.203988 0.204685 0.204434 0.205203 0.205016 0.205751
          0.205628 0.206225 0.20615 0.206543 0.206496 0.206655 0.206616 0.205573 0.205426 0.205014 0.204404 0.203683
          0.202424 0.203222 0.20367 0.204448 0.205275 0.205951 0.206375 0.206519 0.205342 0.20515 0.204615 0.203792
          0.20287 0.202073 0.20188 0.202209 0.203393 0.204803 0.205706 0.206234 0.206411 0.20512 0.204825 0.204106
          0.20307 0.201235 0.201518 0.201166 0.196765 0.202562 0.20445 0.205527 0.206152 0.206361 0.205039 0.204604
          0.203077 0.202867 0.200397 0.200763 0.201247 0.200686 0.202764 0.204478 0.205616 0.206204 0.206435 0.205221
          0.204799 0.202878 0.202945 0.20159 0.202363 0.202442 0.202833 0.203798 0.204898 0.205851 0.206453 0.206658
          0.205662 0.20535 0.204721 0.203527 0.203491 0.203266 0.203348 0.203785 0.204584 0.205523 0.206312 0.206819
          0.206992 0.206234 0.206048 0.205537 0.204944 0.204302 0.203706 0.203537 0.204147 0.205228 0.206121 0.206799
          0.207227 0.207372 0.206797 0.206663 0.206296 0.205763 0.205021 0.20442 0.200257 0.204784 0.205785 0.206654
          0.207253 0.207616 0.207738 0.207254 0.207154 0.206869 0.206432 0.205883 0.205168 0.205016 0.205513 0.20644
          0.20713 0.207632 0.207937 0.20804 0.20755 0.20747 0.207241 0.206903 0.206521 0.206232 0.206194 0.20648
          0.206969 0.207481 0.207891 0.208151 0.20824 0.207653 0.207579 0.207372 0.207073 0.206762 0.20655 0.206543
          0.206773 0.207171 0.20761 0.207983 0.208226 0.20831 0.204778 0.204625 0.204719 0.204556 0.2042 0.204098
          0.203606 0.203434 0.203018 0.202676 0.202629 0.202137 0.202638 0.202143 0.203035 0.202679 0.203644 0.20342
          0.204289 0.204141 0.204849 0.204753 0.205231 0.205167 0.205368 0.205315 0.204565 0.204374 0.203832 0.203037
          0.201741 0.200066 0.20005 0.201765 0.202769 0.203714 0.204499 0.205004 0.205182 0.204372 0.204138 0.203485
          0.20255 0.201285 0.199252 0.199312 0.200226 0.201732 0.203133 0.204167 0.204817 0.205038 0.204222 0.203937
          0.203066 0.201989 0.200814 0.199601 0.196205 0.197856 0.200892 0.202691 0.203874 0.204682 0.204979 0.204213
          0.203886 0.202944 0.199745 0.200713 0.198505 0.199012 0.198758 0.200676 0.20255 0.203227 0.204766 0.205095
          0.204421 0.204095 0.203267 0.202055 0.200762 0.200595 0.200564 0.200437 0.200624 0.203194 0.204381 0.205122
          0.205406 0.204831 0.204558 0.203772 0.202743 0.201757 0.201208 0.201415 0.202014 0.202962 0.204069 0.205048
          0.205643 0.205849 0.205361 0.205126 0.204399 0.203116 0.202098 0.200196 0.201442 0.202893 0.204059 0.204881
          0.205676 0.206167 0.206335 0.205909 0.205716 0.205129 0.204175 0.203082 0.198642 0.202494 0.203703 0.204772
          0.205611 0.206253 0.206657 0.206795 0.206384 0.206238 0.205811 0.20514 0.204211 0.203688 0.203871 0.204759
          0.205546 0.206213 0.20673 0.20706 0.207173 0.206707 0.206596 0.206279 0.205814 0.205342 0.205066 0.20515
          0.205548 0.206092 0.206619 0.207048 0.207326 0.207422 0.206822 0.206723 0.206445 0.206059 0.205686 0.205475
          0.205529 0.205837 0.206291 0.206763 0.207159 0.207419 0.207509 0.203762 0.203543 0.203701 0.203465 0.202929
          0.202782 0.202063 0.2018 0.2012 0.201086 0.200822 0.200428 0.200909 0.200455 0.201347 0.200972 0.201988
          0.201713 0.202707 0.202483 0.203374 0.203224 0.203854 0.203756 0.204029 0.203951 0.203552 0.203275 0.202437
          0.20104 0.200175 0.199536 0.19889 0.199956 0.200913 0.201959 0.202813 0.203507 0.203759 0.203392 0.20308
          0.202123 0.200528 0.199564 0.196748 0.197236 0.198396 0.199646 0.201074 0.202361 0.203236 0.203572 0.203311
          0.202985 0.201994 0.200305 0.19949 0.198085 0.196579 0.194393 0.198028 0.199704 0.202059 0.203141 0.203531
          0.203379 0.203061 0.202117 0.200966 0.199325 0.198665 0.197816 0.197947 0.198735 0.199809 0.202286 0.203347
          0.203719 0.203625 0.203326 0.202452 0.20116 0.199184 0.198458 0.197835 0.19896 0.200405 0.201632 0.202904
          0.203814 0.204119 0.204037 0.203735 0.202807 0.20141 0.199325 0.198753 0.198561 0.200273 0.201323 0.202596
          0.203657 0.204405 0.204656 0.204562 0.204271 0.203297 0.20018 0.199613 0.197695 0.199878 0.20131 0.200854
          0.203425 0.204413 0.205039 0.205249 0.205125 0.204879 0.20406 0.202668 0.199109 0.200579 0.200816 0.202536
          0.203462 0.204343 0.205162 0.205653 0.205821 0.205631 0.205447 0.204899 0.203953 0.203026 0.202647 0.203104
          0.203794 0.204541 0.205223 0.20579 0.206165 0.206295 0.205984 0.205848 0.205459 0.204906 0.20438 0.204123
          0.204244 0.20466 0.205201 0.205743 0.206199 0.206501 0.206607 0.20611 0.205991 0.205661 0.20521 0.20479
          0.204567 0.204636 0.204961 0.20543 0.205921 0.206339 0.206618 0.206716 0.202953 0.202675 0.202885 0.20258
          0.201877 0.201647 0.200568 0.200246 0.199417 0.197026 0.198957 0.198017 0.19918 0.198749 0.199646 0.199254
          0.200336 0.199869 0.201158 0.200748 0.201981 0.201705 0.202597 0.202453 0.202826 0.202719 0.202721 0.20236
          0.201182 0.198476 0.198336 0.196379 0.19754 0.198025 0.198843 0.199052 0.201014 0.202067 0.202464 0.202548
          0.202145 0.200826 0.198104 0.197857 0.196907 0.195588 0.19609 0.197303 0.198464 0.199636 0.201681 0.202242
          0.202468 0.202044 0.200848 0.19799 0.196573 0.196396 0.195372 0.19326 0.196587 0.196983 0.199338 0.201667
          0.20223 0.20255 0.202148 0.200995 0.199578 0.198236 0.197332 0.19649 0.195521 0.197622 0.199328 0.200776
          0.202008 0.202473 0.202835 0.202427 0.201484 0.199927 0.198849 0.197951 0.197428 0.197046 0.198709 0.200132
          0.201518 0.202511 0.202912 0.203311 0.202953 0.201908 0.200685 0.199334 0.198473 0.198327 0.19878 0.199687
          0.19998 0.202207 0.203139 0.203507 0.203916 0.203607 0.202682 0.201363 0.199788 0.199153 0.198919 0.199838
          0.200556 0.201284 0.203046 0.203922 0.204207 0.204544 0.204296 0.203549 0.202212 0.199216 0.199162 0.200643
          0.201418 0.20218 0.203199 0.204083 0.204699 0.204908 0.205092 0.204905 0.204349 0.203407 0.202406 0.201936
          0.202148 0.202754 0.203521 0.20427 0.20491 0.205338 0.205488 0.205466 0.205324 0.204919 0.204337 0.203764
          0.203431 0.203465 0.203816 0.204348 0.204921 0.205417 0.20575 0.205867 0.205599 0.205474 0.205126 0.204645
          0.204181 0.2039 0.203905 0.204183 0.204637 0.205143 0.20559 0.205892 0.205999 0.202542 0.202266 0.202471
          0.20217 0.201485 0.201252 0.200381 0.199875 0.199241 0.198842 0.198453 0.19789 0.19807 0.196901 0.198331
          0.197188 0.199103 0.198448 0.200079 0.199473 0.201028 0.200684 0.201746 0.201588 0.202013 0.201901 0.202288
          0.201933 0.200813 0.19802 0.195638 0.196734 0.195316 0.195911 0.195612 0.197199 0.199858 0.201172 0.201647
          0.20208 0.201636 0.200385 0.198716 0.196423 0.194907 0.194142 0.193339 0.193843 0.196407 0.198233 0.200852
          0.201446 0.201949 0.201447 0.199356 0.198073 0.196989 0.195531 0.193724 0.191646 0.195708 0.197955 0.199634
          0.20091 0.201455 0.201997 0.201418 0.199985 0.197905 0.196829 0.195525 0.194432 0.194389 0.196457 0.198376
          0.199975 0.201183 0.201671 0.202291 0.201717 0.198808 0.197242 0.196988 0.195319 0.195064 0.195152 0.197148
          0.19829 0.19924 0.201486 0.202059 0.202834 0.202351 0.201005 0.197469 0.197179 0.194767 0.194053 0.195452
          0.19699 0.198533 0.199541 0.202084 0.202648 0.203524 0.203204 0.20222 0.20082 0.199072 0.196167 0.195928
          0.197888 0.198685 0.20068 0.202008 0.203014 0.203414 0.204217 0.203985 0.203315 0.202244 0.200875 0.197159
          0.197136 0.197873 0.201035 0.20221 0.203294 0.203971 0.204208 0.204793 0.204624 0.20413 0.203358 0.20233
          0.201489 0.201215 0.201644 0.202487 0.203469 0.204218 0.204699 0.204866 0.205175 0.205043 0.204669 0.204116
          0.20352 0.203074 0.202943 0.203169 0.203664 0.204263 0.204802 0.205163 0.205289 0.205309 0.20519 0.204859
          0.204387 0.203899 0.203546 0.203445 0.20363 0.204036 0.204538 0.205002 0.205322 0.205436 0.202515 0.202296
          0.20245 0.202214 0.201682 0.201545 0.200806 0.200572 0.199848 0.199495 0.198874 0.198463 0.198242 0.196914
          0.198309 0.197542 0.198992 0.198429 0.199879 0.199397 0.200777 0.200484 0.201454 0.201335 0.201706 0.201621
          0.20228 0.202002 0.201194 0.200066 0.198838 0.197349 0.19551 0.196421 0.197163 0.19704 0.199933 0.201049
          0.201433 0.202078 0.201739 0.200741 0.199273 0.197003 0.195824 0.193339 0.192902 0.196361 0.198185 0.199194
          0.200838 0.201289 0.201944 0.201532 0.200367 0.197705 0.196493 0.194046 0.190841 0.190355 0.195858 0.198198
          0.199792 0.200884 0.201299 0.201982 0.201536 0.200118 0.197195 0.194472 0.191964 0.189491 0.193118 0.195912
          0.198175 0.199901 0.201068 0.201471 0.202268 0.201805 0.200546 0.1977 0.192775 0.189831 0.191769 0.193747
          0.195341 0.197253 0.200043 0.201339 0.201807 0.202793 0.202416 0.201244 0.199431 0.196572 0.195369 0.192482
          0.194826 0.19705 0.197364 0.200333 0.201888 0.202352 0.203463 0.20318 0.202354 0.201051 0.19956 0.19814
          0.196923 0.195412 0.198293 0.200219 0.201707 0.20273 0.203082 0.204137 0.203935 0.203353 0.202468 0.201344
          0.200448 0.199631 0.198583 0.198331 0.201719 0.202928 0.203616 0.203852 0.204698 0.20455 0.204128 0.203489
          0.202733 0.202007 0.201569 0.201528 0.202086 0.202993 0.203844 0.204336 0.204502 0.205067 0.20495 0.204621
          0.204138 0.2036 0.203146 0.202916 0.202997 0.203374 0.203918 0.204442 0.204803 0.204929 0.205196 0.20509
          0.204792 0.204363 0.2039 0.203525 0.203351 0.203438 0.20376 0.204211 0.204653 0.204965 0.205078 0.202649
          0.202477 0.202594 0.202411 0.201993 0.201899 0.201285 0.201149 0.200473 0.200284 0.199712 0.19944 0.199189
          0.198925 0.199154 0.198779 0.199562 0.1992 0.20025 0.199981 0.200985 0.200861 0.201535 0.201464 0.201735
          0.201682 0.202451 0.20224 0.201644 0.200754 0.199704 0.198708 0.198025 0.19751 0.197521 0.199648 0.200572
          0.201307 0.20156 0.202282 0.202028 0.201299 0.200177 0.198908 0.197561 0.196744 0.196205 0.197752 0.199147
          0.200414 0.201169 0.201458 0.202177 0.201879 0.200982 0.199674 0.197871 0.195625 0.195019 0.195824 0.197154
          0.198919 0.200269 0.201147 0.201454 0.20223 0.2019 0.200909 0.199347 0.197186 0.194261 0.192466 0.193642
          0.196376 0.198654 0.200261 0.201258 0.201592 0.202498 0.202177 0.201188 0.19957 0.197461 0.193735 0.187964
          0.19248 0.195812 0.198245 0.200471 0.201557 0.201904 0.202972 0.202687 0.201845 0.200436 0.198593 0.196243
          0.194104 0.193571 0.197522 0.199672 0.201102 0.202083 0.202412 0.203574 0.203346 0.202681 0.201636 0.200317
          0.198946 0.197925 0.198243 0.199317 0.200812 0.202024 0.202802 0.20307 0.20419 0.204018 0.203523 0.20277
          0.201887 0.201032 0.200472 0.200506 0.201247 0.202066 0.202982 0.203564 0.203765 0.204711 0.204582 0.204214
          0.203668 0.203047 0.202496 0.202151 0.202137 0.202507 0.203169 0.203793 0.204217 0.204365 0.205058 0.204954
          0.204661 0.204236 0.203767 0.203363 0.203137 0.203164 0.203446 0.203886 0.204334 0.204653 0.204767 0.205179
          0.205083 0.204816 0.204431 0.204012 0.203659 0.203471 0.203506 0.203755 0.204135 0.204524 0.204806 0.204909
          0.202721 0.202565 0.202671 0.202506 0.202125 0.202042 0.201479 0.201358 0.200746 0.200578 0.20008 0.199875
          0.199652 0.199397 0.199571 0.199304 0.19989 0.199647 0.200487 0.200351 0.201138 0.201055 0.201617 0.201566
          0.201792 0.201751 0.202541 0.202353 0.201819 0.201025 0.200114 0.199278 0.198723 0.198676 0.199274 0.199972
          0.200869 0.201445 0.201653 0.202389 0.202166 0.201529 0.200567 0.199406 0.19835 0.197728 0.197896 0.198524
          0.199645 0.200645 0.201329 0.201565 0.2023 0.20204 0.201297 0.200114 0.198634 0.197278 0.196464 0.196727
          0.197918 0.199299 0.200503 0.201283 0.201553 0.202359 0.202076 0.201252 0.199916 0.198098 0.195996 0.194782
          0.195514 0.19731 0.199074 0.200494 0.201377 0.201678 0.202619 0.202337 0.201513 0.200163 0.198201 0.195562
          0.190512 0.194809 0.197273 0.199328 0.20075 0.201674 0.201984 0.203069 0.202818 0.202075 0.200873 0.199187
          0.196852 0.192705 0.195344 0.198096 0.199988 0.201365 0.202193 0.202476 0.20364 0.203433 0.202831 0.201876
          0.200633 0.199192 0.198267 0.198505 0.199817 0.201145 0.202194 0.202871 0.203105 0.204228 0.204068 0.203608
          0.202906 0.202059 0.201257 0.200788 0.200895 0.201482 0.202322 0.203068 0.203584 0.203766 0.20473 0.204608
          0.20426 0.203746 0.203162 0.202644 0.202351 0.202395 0.202761 0.203288 0.203822 0.204203 0.20434 0.205066
          0.204966 0.204688 0.204284 0.20384 0.20346 0.203249 0.203274 0.203526 0.203921 0.204326 0.20462 0.204728
          0.205183 0.205092 0.204837 0.204469 0.204069 0.203731 0.203547 0.20357 0.203794 0.204142 0.204503 0.204768
          0.204865
        </DataArray>
        <DataArray type="Float32" Name="S_gas" NumberOfComponents="1" format="ascii">
          0.791076 0.791112 0.791082 0.791121 0.791277 0.791331 0.791292 0.791356 0.791195 0.79121 0.791461 0.791518
          0.791266 0.791281 0.791575 0.791684 0.791262 0.791284 0.791582 0.791688 0.791162 0.791194 0.791458 0.791533
          0.790985 0.791021 0.791248 0.791309 0.790759 0.790795 0.790996 0.791051 0.790512 0.790544 0.790726 0.790773
          0.790273 0.790297 0.790466 0.790499 0.790073 0.790089 0.790249 0.79027 0.78994 0.789951 0.790104 0.790118
          0.789894 0.789903 0.790053 0.790065 0.791086 0.791131 0.791316 0.791399 0.791226 0.791637 0.791317 0.791786
          0.791335 0.791828 0.791261 0.791702 0.791108 0.791466 0.790889 0.791211 0.790626 0.790907 0.790357 0.790589
          0.790129 0.790324 0.789977 0.790152 0.789924 0.790092 0.791058 0.791104 0.791306 0.791394 0.791202 0.79165
          0.791312 0.791782 0.791343 0.791892 0.791305 0.791799 0.791185 0.791653 0.790982 0.791473 0.790717 0.791101
          0.790424 0.790702 0.79017 0.790386 0.790002 0.790187 0.789944 0.79012 0.790975 0.791017 0.791234 0.791307
          0.791118 0.791496 0.791214 0.791706 0.791273 0.791773 0.791268 0.79174 0.791182 0.791742 0.791003 0.791662
          0.79075 0.791246 0.790453 0.79077 0.790183 0.790419 0.790005 0.7902 0.789943 0.790126 0.790836 0.790872
          0.791101 0.791156 0.79096 0.791298 0.791056 0.791439 0.791117 0.791522 0.791128 0.791556 0.791077 0.791573
          0.790933 0.79149 0.790698 0.791146 0.790408 0.790738 0.790145 0.790393 0.789967 0.790169 0.789905 0.790092
          0.790648 0.790679 0.790914 0.790966 0.790751 0.791095 0.790829 0.791223 0.790894 0.791272 0.790914 0.791303
          0.790877 0.791314 0.790753 0.791235 0.790548 0.790971 0.790292 0.790608 0.790049 0.790296 0.789882 0.790083
          0.789823 0.790008 0.790422 0.790446 0.790675 0.790729 0.790507 0.790838 0.790585 0.790885 0.790628 0.791004
          0.790655 0.79101 0.790617 0.791044 0.790529 0.790877 0.790339 0.79074 0.790121 0.790419 0.789906 0.790138
          0.789756 0.789947 0.789702 0.789879 0.790171 0.790192 0.790396 0.790436 0.790243 0.790534 0.7903 0.79063
          0.790353 0.790662 0.790373 0.790688 0.790348 0.7907 0.790257 0.790645 0.79011 0.790447 0.78992 0.790187
          0.789736 0.789946 0.789606 0.789781 0.789559 0.789724 0.789925 0.789942 0.790117 0.790142 0.789987 0.790206
          0.79004 0.790276 0.790082 0.790332 0.790101 0.79037 0.790083 0.790367 0.790008 0.790316 0.789882 0.790148
          0.789719 0.789949 0.789565 0.789751 0.789454 0.789614 0.789414 0.789566 0.789721 0.789735 0.789885 0.789903
          0.789771 0.78995 0.789817 0.790009 0.789858 0.790066 0.789877 0.790106 0.78986 0.790107 0.789798 0.790038
          0.789686 0.789916 0.78955 0.789748 0.789419 0.789586 0.789325 0.789472 0.789291 0.789432 0.789587 0.789598
          0.789736 0.78975 0.78963 0.78979 0.789672 0.789844 0.789711 0.789897 0.78973 0.789933 0.789715 0.789931
          0.789657 0.789874 0.789558 0.78976 0.789437 0.789615 0.789321 0.789475 0.789238 0.789377 0.789208 0.789342
          0.78954 0.789551 0.789684 0.789698 0.789582 0.789736 0.789622 0.789787 0.78966 0.789839 0.789679 0.789872
          0.789664 0.789869 0.789608 0.789812 0.789514 0.789705 0.789398 0.789568 0.789287 0.789436 0.789207 0.789343
          0.789179 0.78931 0.791796 0.791882 0.79183 0.791937 0.79209 0.792267 0.79229 0.7926 0.792336 0.792646
          0.792196 0.792389 0.791944 0.792061 0.791646 0.791744 0.791327 0.791407 0.791016 0.791071 0.790753 0.790786
          0.790577 0.790598 0.790516 0.790533 0.791901 0.792052 0.792613 0.794399 0.794062 0.792813 0.792387 0.792058
          0.791661 0.791231 0.790875 0.790651 0.790575 0.791949 0.792116 0.792747 0.794971 0.794231 0.793141 0.792898
          0.792729 0.792154 0.791451 0.790987 0.790713 0.790622 0.791929 0.792072 0.792519 0.793014 0.793139 0.793041
          0.793183 0.795331 0.792538 0.791635 0.791076 0.790752 0.790645 0.79183 0.791946 0.792189 0.792482 0.792632
          0.792711 0.792937 0.793028 0.792534 0.791709 0.791097 0.790736 0.790618 0.791647 0.791775 0.792085 0.792291
          0.79232 0.792346 0.792549 0.792588 0.79209 0.791607 0.79101 0.790644 0.790526 0.791372 0.791515 0.792157
          0.793057 0.791997 0.791965 0.792182 0.793446 0.79196 0.791309 0.790796 0.790479 0.790374 0.791016 0.791115
          0.79136 0.791516 0.791526 0.791556 0.791749 0.791815 0.79146 0.79094 0.790529 0.790271 0.790184 0.790648
          0.790695 0.790806 0.790923 0.791022 0.791142 0.791312 0.791104 0.791037 0.790606 0.790271 0.790063 0.789992
          0.790348 0.790377 0.790451 0.790551 0.790659 0.790776 0.790875 0.790881 0.790632 0.790322 0.790057 0.789887
          0.789829 0.79016 0.790182 0.790244 0.790333 0.790431 0.790521 0.790567 0.790517 0.79035 0.790121 0.789911
          0.78977 0.78972 0.790096 0.790117 0.790175 0.79026 0.790353 0.79043 0.790456 0.790397 0.790248 0.790048
          0.789859 0.789728 0.789682 0.792482 0.792573 0.792533 0.792644 0.792804 0.792941 0.793053 0.793284 0.79318
          0.793431 0.793123 0.793326 0.792914 0.793082 0.792605 0.79275 0.792238 0.792354 0.791862 0.791941 0.791538
          0.791585 0.791321 0.79135 0.791245 0.791269 0.792656 0.792811 0.793309 0.793895 0.794181 0.793973 0.793561
          0.793209 0.79272 0.792171 0.791713 0.791425 0.791328 0.792794 0.792983 0.793607 0.795225 0.797163 0.794604
          0.794326 0.794152 0.793407 0.792497 0.791878 0.791515 0.791395 0.792884 0.793101 0.793687 0.794461 0.795531
          0.794748 0.794855 0.797022 0.794027 0.7928 0.792021 0.791576 0.791432 0.792864 0.793103 0.793883 0.793978
          0.794208 0.794309 0.794688 0.79484 0.794334 0.793097 0.792093 0.791565 0.791404 0.792689 0.79293 0.793397
          0.793663 0.79368 0.793772 0.794097 0.795238 0.796848 0.793448 0.791996 0.791453 0.791291 0.792347 0.792584
          0.793673 0.79378 0.793239 0.793275 0.793566 0.793872 0.793443 0.792569 0.791711 0.791244 0.7911 0.791886
          0.792043 0.792371 0.79259 0.792638 0.79279 0.793197 0.793363 0.792792 0.791943 0.791343 0.790982 0.790863
          0.791413 0.791483 0.791651 0.791839 0.792032 0.792289 0.792837 0.795534 0.792428 0.791526 0.791012 0.790721
          0.790625 0.791035 0.791079 0.791198 0.791363 0.79156 0.791806 0.79217 0.792281 0.791808 0.791152 0.79074
          0.790502 0.790423 0.790801 0.790837 0.790936 0.791082 0.791253 0.791425 0.791536 0.791479 0.791217 0.790861
          0.790552 0.790356 0.790289 0.790723 0.790756 0.79085 0.790987 0.791143 0.791281 0.79134 0.791262 0.791042
          0.790751 0.790483 0.790304 0.790242 0.793282 0.793374 0.79334 0.793445 0.79362 0.793726 0.793929 0.794082
          0.794182 0.794379 0.794269 0.794495 0.794143 0.794351 0.793831 0.79402 0.793406 0.793556 0.792952 0.793054
          0.792558 0.792619 0.792294 0.792331 0.792201 0.792231 0.793499 0.793636 0.794017 0.794538 0.794978 0.795033
          0.794979 0.794611 0.794025 0.793346 0.792781 0.792427 0.792307 0.793715 0.793897 0.794424 0.79518 0.795661
          0.79593 0.795942 0.795815 0.794873 0.793754 0.792983 0.792538 0.792391 0.793916 0.794214 0.794868 0.795954
          0.798119 0.796426 0.796814 0.798773 0.79571 0.794081 0.793129 0.792603 0.792433 0.793984 0.794377 0.796352
          0.795718 0.795958 0.796165 0.796634 0.798724 0.795724 0.794148 0.793141 0.792568 0.792386 0.793809 0.794208
          0.794983 0.7953 0.795347 0.795539 0.795801 0.796181 0.794879 0.793886 0.792963 0.79241 0.792231 0.793393
          0.793691 0.79506 0.795411 0.794766 0.794849 0.795001 0.794879 0.794308 0.793401 0.792622 0.792142 0.791983
          0.79284 0.793033 0.793451 0.793805 0.794016 0.794317 0.794764 0.794651 0.793862 0.792896 0.792224 0.791822
          0.791688 0.792293 0.792389 0.792635 0.792948 0.793294 0.793842 0.794474 0.796841 0.793506 0.792449 0.791847
          0.791506 0.791394 0.79186 0.791926 0.792111 0.79238 0.792714 0.793112 0.793587 0.793499 0.792814 0.792022
          0.791527 0.791242 0.791149 0.79159 0.791645 0.791798 0.792026 0.792291 0.792541 0.792659 0.792523 0.792143
          0.791685 0.791303 0.791066 0.790985 0.791499 0.791549 0.791692 0.791902 0.792136 0.792325 0.792382 0.792243