<?xml version="1.0"?>
<VTKFile type="UnstructuredGrid" version="0.1" byte_order="LittleEndian">
  <UnstructuredGrid>
    <Piece NumberOfCells="1928" NumberOfPoints="999">
      <CellData Scalars="x^tracer_0">
        <DataArray type="Float32" Name="x^tracer_0" NumberOfComponents="1" format="ascii">
          0 0 0 0 0 0 0 0 0 0 0 0
          0 0 0 0 0 0 0 0 0 0 0 0
          0 0 0 0 0 0 0 0 0 0 0 0
          0 0 0 0 0 0 0 0 0 0 0 0
          0 0 0 0 0 0 0 0 0 0 0 0
          0 0 0 0 0 0 0 0 0 0 0 0
          0 0 0 0 0 0 0 0 0 0 0 0
          0 0 0 0 0 0 0 0 0 0 0 0
          0 0 0 0 0 0 0 0 0 0 0 0
          2.08616e-30 0 0 1.44775e-33 6.05808e-32 4.68756e-35 0 0 0 0 0 0
          0 7.44187e-26 0 4.41471e-24 0 0 0 0 0 0 0 0
          1.43605e-20 0 0 0 2.66018e-27 7.59242e-29 3.31003e-25 1.19652e-23 2.72161e-22 1.07489e-27 6.9867e-31 2.72617e-29
          3.66433e-26 2.56054e-24 8.44681e-26 6.80937e-20 8.22142e-23 2.66229e-21 2.94351e-18 3.77013e-18 1.49142e-19 1.16434e-22 3.55147e-24 4.53095e-21
          4.89461e-19 2.81857e-23 1.52048e-21 0 0 0 0 0 0 0 0 0
          0 0 0 0 0 0 0 0 0 0 0 0
          0 0 0 0 0 0 0 0 0 0 0 0
          0 1.83258e-16 2.9423e-16 1.62897e-17 1.22283e-14 0 1.48156e-14 7.70012e-16 4.09222e-20 1.34126e-18 2.75427e-17 6.18791e-19
          1.67727e-20 0 0 4.19341e-13 3.41156e-13 0 0 9.22969e-12 5.06685e-16 2.36582e-17 1.52695e-14 3.14676e-18
          1.59787e-13 3.68654e-12 1.62448e-16 5.53051e-15 0 0 0 0 0 0 0 0
          0 0 0 1.10799e-10 0 0 0 0 3.54303e-11 6.68691e-14 1.71386e-12 1.16654e-09
          1.13075e-11 2.51463e-10 0 0 0 0 0 0 6.99625e-09 0 7.52302e-09 3.32745e-12
          0 3.12378e-10 2.07978e-08 0 0 0 0 0 0 0 0 0
          0 0 0 0 0 0 0 0 0 0 0 0
          0 0 0 0 0 0 0 0 0 0 0 0
          0 0 0 0 0 0 0 0 0 0 0 0
          0 0 0 0 0 0 0 0 0 0 0 0
          0 0 0 0 0 0 0 0.0547274 0.141058 0 0 0
          0 0 0 0 0 0 0 0 0 0 0 0
          0.0681653 0 0 0.0649849 0.236824 0.156919 0.293581 0.386218 0 0.0837364 0.000885191 0.000209686
          0.00090268 0.0255349 0.0907334 0.328207 0.295402 0.0872739 0.141954 0 0.162092 0 0 0
          0 0 0 0.0718821 0.234865 0.0452493 0.00705894 0.00234174 0 0 0 0
          0 0 0.000390323 8.7261e-05 0 0 8.36631e-06 0.187279 0.0236282 0.0781832 0.2644 0.0356827
          0.0506343 0.00941258 0.00127043 0.000309938 0.00657471 0.00210855 0.000194784 0.208088 0.129033 0.0245265 0.0523624 0
          0 0 0 0.000505761 0.00609551 8.32497e-05 0 0 0 3.51532e-05 3.78597e-05 6.05303e-06
          6.11901e-07 1.19524e-06 4.48193e-07 1.08117e-07 5.77418e-09 6.48946e-08 5.57599e-09 6.34789e-09 4.82348e-10 4.24479e-06 0 7.27302e-08
          0 0 0 0 0 0 4.56171e-10 0 0 0 0 0
          0 0 0 0 0 0 0 0 0 0 0 0
          0 0 0 0 0 0 0 0 0 0 0 0
          0 0 0 0 0 0 0 0 0 0 0 0
          0 0 0 0 0 0 0 0 0 0 0 0
          0 0 0 0 0 0 0 0 0 5.43903e-10 3.49774e-08 0
          0 1.22588e-07 0 0 0 0 0 0 0 0 0 0
          0 0 0 0 0 0 0 0 0 0 0 0
          0 0 0 0 0 0 0 0 0 0 0 0
          0 0 0 1.00294e-30 0 6.69936e-29 0 0 2.72453e-27 5.39327e-25 0 0
          0 0 0 0 1.90439e-23 0 3.97672e-21 1.88242e-19 0 0 0 0
          0 0 0 6.3736e-09 2.1127e-12 6.44383e-15 0 1.09427e-18 1.29361e-16 2.48472e-20 0 0
          0 0 0 0 0 0 0 0 2.85757e-22 6.26468e-24 1.22723e-25 0
          0 1.88455e-33 8.98545e-28 1.73599e-29 2.64463e-31 7.36963e-16 3.86625e-14 3.71912e-10 2.43539e-11 4.74923e-13 1.87228e-05 3.05381e-09
          7.65717e-11 8.61863e-07 2.57559e-12 3.46806e-05 0 0 0.000108708 0 0 0 0 0
          0.000127976 5.5003e-06 1.35271e-07 0 8.04404e-09 3.78502e-10 0 6.50534e-14 3.16492e-17 2.05314e-15 0.000200654 1.36677e-05
          1.56813e-20 8.14154e-19 4.67022e-24 3.61967e-22 0.000141717 7.90038e-06 0.000126138 1.00168e-05 1.54964e-06 7.57414e-08 2.6187e-09 2.95799e-07
          5.5714e-13 1.78429e-11 1.66212e-14 5.80938e-16 1.633e-08 2.13401e-07 4.08251e-10 8.18723e-09 1.07163e-09 1.54827e-11 0 0
          0 0 1.96868e-41 2.26468e-39 1.4013e-45 2.71852e-43 5.15384e-40 3.38363e-38 1.50261e-37 3.13305e-35 3.04076e-30 4.72222e-32
          5.32877e-36 3.54362e-34 4.78449e-39 2.51046e-31 2.82531e-37 5.70882e-35 5.49169e-42 6.44597e-44 1.4013e-45 0 5.60519e-45 2.1208e-12
          1.1112e-15 1.93408e-17 9.15828e-15 6.17105e-14 2.09708e-11 6.02308e-13 1.05325e-11 4.58225e-41 5.64723e-43 2.89387e-10 1.70138e-08 1.17094e-08
          2.7362e-07 2.24419e-06 4.36968e-05 5.7206e-10 6.9443e-10 1.04111e-09 9.28455e-07 2.36929e-05 3.0157e-08 4.19555e-05 8.38603e-26 1.412e-27
          2.19258e-29 0.000149193 0.000154938 1.46737e-05 9.59292e-06 3.35161e-33 7.26342e-06 0.000173104 1.37167e-05 1.77926e-06 9.84798e-08 8.25533e-07
          1.43692e-08 6.27326e-07 3.79943e-08 7.59704e-07 1.38571e-07 5.84267e-09 7.30039e-11 1.90469e-09 7.35724e-11 2.09624e-12 9.47569e-10 6.11006e-10
          5.01618e-11 8.12659e-13 8.60758e-12 3.84781e-13 0.000168146 1.01304e-05 9.04905e-05 5.58431e-06 3.41101e-07 1.85276e-08 3.49701e-09 8.25135e-05
          4.08863e-05 3.63079e-06 2.36385e-07 9.67811e-08 5.32368e-09 3.03902e-10 1.65913e-11 1.78127e-12 4.0599e-13 1.57998e-14 7.18688e-14 1.71522e-14
          1.43943e-10 5.54781e-12 1.68241e-10 5.74118e-12 1.98526e-13 2.70583e-15 7.36858e-15 1.89174e-13 0 2.60772e-36 1.08106e-36 1.2175e-34
          5.72387e-38 1.04244e-39 7.11157e-36 1.33851e-37 2.89105e-39 1.71677e-32 4.64271e-29 2.42335e-27 1.16556e-30 2.68677e-32 2.1415e-26 8.61364e-25
          8.8025e-28 2.12252e-29 8.23566e-26 6.3036e-34 6.55652e-28 3.51148e-31 1.55361e-29 3.13372e-26 4.02059e-24 1.76762e-24 5.2864e-41 9.85159e-35
          2.02711e-36 4.07543e-33 7.74845e-35 8.13996e-33 8.63978e-28 3.27299e-29 4.93201e-26 7.72729e-31 5.01789e-24 1.52067e-22 1.31053e-25 4.58238e-22
          1.50142e-23 2.89428e-24 9.57515e-20 1.36364e-22 2.8952e-22 1.24499e-20 1.00279e-17 4.21292e-19 1.20951e-17 3.23481e-19 3.03429e-17 2.46517e-21
          1.41689e-20 8.3144e-20 7.38047e-23 4.01358e-18 8.61588e-18 2.15782e-16 1.0354e-16 1.12429e-14 4.89999e-16 5.14885e-15 5.15398e-13 1.99792e-13
          6.68903e-12 1.05772e-15 9.21696e-14 2.18282e-12 3.3745e-09 1.53362e-10 1.58202e-09 6.50857e-12 4.5325e-14 4.28123e-16 5.07868e-11 3.2869e-10
          7.2112e-15 5.55676e-13 6.53383e-15 1.51472e-13 1.43566e-11 1.06829e-10 5.39095e-12 1.89084e-19 5.2619e-21 5.97169e-18 8.67072e-16 1.58244e-17
          5.11531e-19 1.99193e-14 5.31352e-16 4.56973e-13 1.68561e-11 8.44601e-13 5.31193e-14 7.58493e-15 1.51298e-27 1.09806e-20 2.98685e-16 3.72476e-13
          1.74184e-09 2.44976e-11 1.03506e-10 2.40592e-17 2.94893e-15 1.35173e-19 1.51289e-14 6.97816e-18 5.1932e-09 2.48917e-07 1.26216e-12 6.75309e-12
          1.64266e-08 3.55453e-10 8.45361e-16 8.84767e-14 3.12627e-13 9.18459e-21 4.94238e-12 4.66249e-14 3.76571e-19 1.65395e-16 1.25813e-16 1.44049e-18
          3.92663e-20 7.6178e-07 9.67666e-10 3.40434e-08 2.05419e-28 1.0834e-26 1.19522e-06 5.96093e-08 1.89314e-11 1.12654e-14 7.4089e-13 3.94609e-11
          1.65619e-09 1.1746e-24 2.38852e-06 2.07869e-07 6.19068e-23 5.99036e-19 6.40365e-06 1.98779e-10 6.77966e-09 4.2116e-12 3.65425e-07 1.42025e-08
          2.098e-10 2.28384e-18 8.25465e-14 3.60024e-17 1.91937e-15 2.3518e-18 7.53915e-20 5.04375e-15 5.49067e-12 1.78833e-13 9.69978e-17 5.13031e-13
          2.85069e-13 3.58556e-12 5.52769e-14 7.59854e-16 1.74886e-12 4.34028e-12 3.61164e-13 1.1513e-21 6.1995e-18 2.64988e-16 8.60168e-18 3.56531e-13
          2.30167e-14 1.19795e-14 7.78695e-11 4.54172e-12 2.48379e-10 2.36375e-11 6.30476e-10 1.08798e-13 5.91641e-16 8.80144e-15 6.30627e-11 2.36347e-10
          2.48987e-11 4.61699e-17 2.02985e-15 9.05211e-15 3.02117e-13 1.62885e-11 5.12077e-13 2.2336e-11 8.1778e-06 5.56705e-07 4.01425e-10 1.67587e-05
          1.47734e-08 2.45305e-08 1.44796e-09 3.11108e-08 7.98006e-10 1.39319e-06 2.40198e-05 3.82261e-05 4.35358e-06 9.15848e-06 7.83871e-07 1.39653e-07
          1.92696e-05 2.68436e-08 1.93345e-05 8.17147e-07 1.95392e-05 5.39878e-07 1.11339e-11 3.12577e-10 5.28382e-10 1.74993e-08 2.81862e-08 1.97086e-11
          1.32503e-09 2.43164e-08 4.72207e-07 6.06513e-07 1.69218e-05 5.62406e-07 9.0458e-06 1.81719e-05 1.60498e-06 2.21868e-05 8.38763e-06 1.83876e-05
          4.02378e-06 8.62108e-06 3.15378e-06 3.49472e-07 2.33088e-06 2.71005e-07 1.98012e-06 6.66829e-08 1.73732e-06 2.88646e-08 8.18096e-10 1.48156e-09
          1.76278e-10 4.1978e-11 5.85566e-13 2.58845e-07 2.05491e-09 1.22108e-05 1.57527e-11 2.77496e-11 2.90804e-13 1.02187e-05 5.95257e-12 8.23102e-13
          1.13002e-14 3.84416e-15 1.71213e-14 1.33612e-16 2.90314e-16 9.95826e-14 3.2794e-15 7.55271e-17 1.20361e-06 2.09873e-08 3.48327e-10 1.14363e-11
          9.41193e-07 2.1419e-08 7.94507e-08 1.48589e-07 1.84242e-08 9.29362e-07 7.15136e-09 3.8151e-08 1.80019e-09 1.76379e-10 2.3562e-09 2.96812e-10
          1.33852e-06 1.84603e-07 1.37773e-08 1.65442e-09 7.28754e-06 7.66554e-07 1.0767e-07 1.32619e-08 1.3829e-10 1.65497e-11 1.41817e-11 3.17942e-09
          3.45332e-10 1.05277e-09 5.58417e-09 3.53119e-08 4.10918e-07 5.07828e-08 4.16164e-07 4.76983e-08 7.0358e-09 2.99789e-07 1.56502e-06 2.20615e-07
          7.53545e-07 3.29622e-06 5.30433e-06 9.18965e-07 1.60079e-06 2.49055e-07 1.63408e-07 1.93518e-06 5.29015e-07 9.40728e-07 3.73405e-07 1.45511e-07
          1.81156e-08 8.01175e-08 1.21887e-08 3.64217e-12 8.35803e-08 1.17302e-08 1.79582e-09 1.6906e-10 1.67235e-08 2.049e-09 2.27935e-10 3.17277e-08
          2.99056e-09 2.75327e-09 3.58113e-10 2.01341e-12 1.37153e-11 2.57824e-12 4.25423e-11 1.11911e-12 1.08765e-13 6.88601e-10 4.39078e-11 2.92023e-12
          3.68732e-12 7.81987e-15 1.63259e-14 2.69522e-13 8.95103e-12 0 0 0 0 0 0 0
          0 0 0 0 0 0 0 0 0 0 0 0
          0 0 0 0 0 0 0 0 0 0 0 0
          0 0 0 0 0 0 0 0 0 0 0 0
          0 0 0 0 0 0 0 0 0 0 0 0
          0 0 0 0 0 0 0 0 0 0 0 0
          0 0 0 0 0 0 0 0 0 0 0 0
          0 0 0 0 0 0 0 0 0 0 0 0
          0 0 0 0 0 0 0 0 0 0 0 0
          0 0 0 0 0 0 0 0 0 0 0 0
          0 0 0 0 0 0 0 0 0 0 0 0
          0 0 0 0 0 0 0 0 0 0 0 0
          0 0 0 0 0 0 0 0 0 0 0 0
          0 0 0 0 0 0 0 0 0 0 0 0
          0 0 0 0 0 0 0 0 0 0 0 0
          0 0 0 0 0 0 0 0 0 0 0 0
          0 0 0 0 0 0 0 0 0 0 0 0
          0 0 0 0 0 0 0 0 0 0 0 0
          0 0 0 0 0 0 0 0 0 0 0 0
          0 0 0 0 0 0 0 0 0 0 0 0
          0 0 0 0 0 0 0 0 0 0 0 0
          1.74876e-14 7.31881e-16 1.37992e-17 0 0 0 5.39296e-19 1.16477e-17 5.38727e-19 4.92457e-13 2.3427e-14 1.20991e-20
          1.00312e-20 3.95735e-22 4.78296e-22 0 0 0 0 0 0 0 0 1.0354e-23
          0 1.12793e-23 3.25732e-25 0 5.29185e-27 0 0 0 0 0 0 0
          0 0 0 0 0 0 0 0 0 0 0 0
          0 0 0 0 0 0 0 0 0 0 0 0
          0 0 0 0 0 0 0 0 0 0 0 0
          0 0 0 0 0 0 0 0 0 0 0 0
          2.84635e-12 9.32075e-16 3.02612e-14 1.36182e-17 1.16016e-15 2.17544e-17 6.32771e-14 1.21641e-15 3.71894e-14 1.29649e-15 6.10463e-17 1.85402e-18
          1.77217e-17 7.53364e-20 5.88605e-19 6.27321e-19 1.21214e-18 1.69071e-20 1.20547e-20 6.4158e-24 1.74068e-28 1.72255e-25 6.13178e-27 5.53202e-20
          1.92226e-21 4.98128e-22 1.55411e-21 4.88724e-23 7.6421e-24 1.48272e-23 4.98968e-25 4.1127e-16 1.56401e-17 4.87843e-16 1.89842e-17 5.2423e-19
          2.22143e-20 5.00208e-19 1.87226e-20 8.96497e-17 2.79478e-18 2.02407e-16 7.24017e-18 1.85069e-20 8.89912e-20 2.79845e-21 4.65783e-21 8.88009e-22
          3.95771e-22 1.05229e-23 2.79199e-25 4.35145e-27 8.42368e-26 2.83278e-27 5.86554e-22 5.68511e-24 7.31446e-23 2.16652e-24 2.25196e-25 3.54056e-27
          4.50506e-26 2.03104e-30 6.06963e-32 2.19315e-33 0 0 8.35705e-35 0 9.56471e-27 1.65973e-28 3.05084e-28 1.43834e-30
          4.02733e-32 8.719e-30 1.3537e-33 0 0 0 0 0 0 0 5.12415e-35 7.57611e-37
          0 0 0 1.81795e-28 3.81462e-30 8.09955e-29 1.05662e-30 2.43556e-31 4.35911e-33 3.73874e-32 1.22072e-28 1.45923e-27
          3.02785e-30 3.96533e-32 1.29406e-31 1.41339e-34 7.31611e-34 4.97728e-36 2.74891e-38 6.69644e-40 1.33471e-37 2.16837e-41 2.13741e-33 2.18081e-35
          8.18946e-35 2.07705e-37 6.05085e-39 2.34492e-36 1.85155e-40 0 0 0 0 0 0 0
          0 0 0 0 0 0 0 0 0 0 0 0
          0 0 0 0 0 0 0 0 0 0 0 0
          0 0 0 0 0 0 0 0 0 0 0 0
          0 0 0 0 0 0 0 0 0 0 0 0
          0 0 0 0 0 0 0 0 0 0 0 0
          0 0 0 0 0 0 0 0 0 0 0 0
          0 0 0 0 0 0 0 0 0 0 0 0
          0 0 0 0 0 0 0 0 0 0 0 0
          0 0 0 0 0 0 0 0 0 0 0 0
          0 0 0 0 0 0 0 0 0 0 0 0
          0 0 0 0 0 0 0 0 0 0 0 0
          5.61921e-43 0 0 1.82169e-44 3.94045e-42 0 0 0 0 0 0 0
          0 0 0 0 0 0 0 0 0 0 0 0
          0 0 0 0 0 0 0 0 0 0 0 0
          0 0 0 0 0 0 0 0 0 0 0 0
          0 0 0 0 0 0 0 0 0 0 0 0
          0 0 0 0 0 0 0 0 0 0 0 0
          0 0 0 0 0 0 0 4.26485e-18 3.19067e-15 7.50771e-17 2.25175e-19 1.13355e-19
          3.31656e-20 2.13873e-18 5.92242e-10 2.34042e-11 9.82319e-13 4.72227e-07 2.58385e-08 2.8098e-14 4.86887e-11 1.56047e-09 1.36376e-09 1.615e-22
          1.07983e-21 3.85165e-24 3.75661e-23 1.65637e-15 1.67314e-25 6.17114e-27 1.6463e-24 5.75053e-19 3.71275e-14 1.98457e-12 8.00517e-11 1.62374e-11
          7.62527e-17 2.21391e-14 1.18577e-12 2.06395e-06 3.96695e-08 2.91982e-07 3.64304e-07 9.10429e-07 2.10741e-08 1.24826e-07 2.81625e-11 1.85159e-08
          2.99989e-09 2.85878e-10 1.089e-07 1.26694e-08 2.35818e-07 3.50603e-08 1.67593e-09 2.00058e-10 9.13937e-09 4.29806e-08 4.00879e-08 6.33257e-09
          1.07487e-09 1.13498e-08 2.06081e-10 1.96371e-09 7.96424e-29 3.19915e-30 2.10302e-20 9.70581e-22 1.09345e-23 5.39369e-25 1.48568e-15 3.57782e-17
          1.31879e-11 1.24492e-12 1.44712e-13 1.62805e-18 1.10254e-14 1.52887e-33 1.6154e-27 6.28974e-29 1.86396e-26 4.35065e-28 2.46046e-31 1.67606e-29
          9.21717e-20 5.55036e-31 3.87359e-21 2.74619e-17 2.0845e-09 2.12999e-10 2.79328e-10 3.03977e-11 8.43254e-13 2.34769e-11 1.21442e-09 2.28654e-10
          1.7968e-11 7.20253e-14 2.14278e-12 4.8425e-15 1.97539e-16 1.40398e-13 7.06499e-15 3.35725e-16 2.07158e-13 8.17356e-11 2.94907e-13 7.53053e-12
          1.95414e-14 1.54773e-12 2.39369e-11 1.26167e-13 6.6526e-15 8.53718e-16 3.14673e-17 1.52871e-12 1.25273e-12 1.05468e-13 6.18342e-15 6.06195e-14
          3.66296e-15 1.33779e-16 2.71175e-16 2.81554e-16 7.79171e-18 8.26526e-18 7.86422e-33 5.98116e-32 1.21913e-43 2.8026e-45 2.08215e-33 1.42849e-35
          1.61614e-32 6.29804e-34 0 0 4.01194e-37 8.65838e-36 2.67568e-40 1.39344e-18 2.14509e-20 1.35039e-17 8.77671e-22 3.78289e-19
          1.05416e-17 1.84711e-20 2.23433e-37 3.75453e-39 4.28141e-22 8.98975e-41 0 0 0 5.74813e-42 0 0
          0 0 1.33123e-43 1.4013e-45 1.25136e-42 0 0 5.76e-19 2.07362e-20 2.46778e-21 8.44696e-23 5.68624e-22
          2.56082e-19 7.99392e-21 1.7084e-23 6.31396e-25 2.66247e-44 1.48559e-26 0 2.27483e-25 5.87136e-27 7.5172e-29 6.36019e-14 2.17584e-19
          1.34437e-22 4.96032e-29 0 0 0 0 0 1.36148e-30
        </DataArray>
        <DataArray type="Float32" Name="X^tracer_0" NumberOfComponents="1" format="ascii">
          0 0 0 0 0 0 0 0 0 0 0 0
          0 0 0 0 0 0 0 0 0 0 0 0
          0 0 0 0 0 0 0 0 0 0 0 0
          0 0 0 0 0 0 0 0 0 0 0 0
          0 0 0 0 0 0 0 0 0 0 0 0
          0 0 0 0 0 0 0 0 0 0 0 0
          0 0 0 0 0 0 0 0 0 0 0 0
          0 0 0 0 0 0 0 0 0 0 0 0
          0 0 0 0 0 0 0 0 0 0 0 0
          3.47694e-32 0 0 2.41292e-35 1.00968e-33 7.81259e-37 0 0 0 0 0 0
          0 1.24031e-27 0 7.35784e-26 0 0 0 0 0 0 0 0
          2.39342e-22 0 0 0 4.43363e-29 1.2654e-30 5.51671e-27 1.9942e-25 4.53602e-24 1.79149e-29 1.16445e-32 4.54361e-31
          6.10722e-28 4.26756e-26 1.4078e-27 1.13489e-21 1.37024e-24 4.43715e-23 4.90586e-20 6.28356e-20 2.48571e-21 1.94057e-24 5.91912e-26 7.55158e-23
          8.15768e-21 4.69762e-25 2.53414e-23 0 0 0 0 0 0 0 0 0
          0 0 0 0 0 0 0 0 0 0 0 0
          0 0 0 0 0 0 0 0 0 0 0 0
          0 3.05431e-18 4.90383e-18 2.71494e-19 2.03804e-16 0 2.46926e-16 1.28335e-17 6.82036e-22 2.23544e-20 4.59046e-19 1.03132e-20
          2.79544e-22 0 0 6.98902e-15 5.68593e-15 0 0 1.53828e-13 8.44475e-18 3.94303e-19 2.54491e-16 5.2446e-20
          2.66312e-15 6.14424e-14 2.70747e-18 9.21751e-17 0 0 0 0 0 0 0 0
          0 0 0 1.84665e-12 0 0 0 0 5.90505e-13 1.11448e-15 2.85644e-14 1.94424e-11
          1.88459e-13 4.19105e-12 0 0 0 0 0 0 1.16604e-10 0 1.25384e-10 5.54576e-14
          0 5.2063e-12 3.4663e-10 0 0 0 0 0 0 0 0 0
          0 0 0 0 0 0 0 0 0 0 0 0
          0 0 0 0 0 0 0 0 0 0 0 0
          0 0 0 0 0 0 0 0 0 0 0 0
          0 0 0 0 0 0 0 0 0 0 0 0
          0 0 0 0 0 0 0 0.000912123 0.00235096 0 0 0
          0 0 0 0 0 0 0 0 0 0 0 0
          0.00113609 0 0 0.00108308 0.00394707 0.00261531 0.00489301 0.00643697 0 0.00139561 1.47532e-05 3.49477e-06
          1.50447e-05 0.000425581 0.00151222 0.00547011 0.00492337 0.00145457 0.0023659 0 0.00270153 0 0 0
          0 0 0 0.00119803 0.00391442 0.000754155 0.000117649 3.90291e-05 0 0 0 0
          0 0 6.50539e-06 1.45435e-06 0 0 1.39438e-07 0.00312131 0.000393804 0.00130305 0.00440666 0.000594712
          0.000843905 0.000156876 2.11738e-05 5.16563e-06 0.000109578 3.51425e-05 3.2464e-06 0.00346813 0.00215055 0.000408775 0.000872707 0
          0 0 0 8.42935e-06 0.000101592 1.3875e-06 0 0 0 5.85887e-07 6.30994e-07 1.00884e-07
          1.01984e-08 1.99207e-08 7.46989e-09 1.80195e-09 9.62363e-11 1.08158e-09 9.29332e-11 1.05798e-10 8.03913e-12 7.07466e-08 0 1.21217e-09
          0 0 0 0 0 0 7.60284e-12 0 0 0 0 0
          0 0 0 0 0 0 0 0 0 0 0 0
          0 0 0 0 0 0 0 0 0 0 0 0
          0 0 0 0 0 0 0 0 0 0 0 0
          0 0 0 0 0 0 0 0 0 0 0 0
          0 0 0 0 0 0 0 0 0 9.06504e-12 5.82957e-10 0
          0 2.04314e-09 0 0 0 0 0 0 0 0 0 0
          0 0 0 0 0 0 0 0 0 0 0 0
          0 0 0 0 0 0 0 0 0 0 0 0
          0 0 0 1.67156e-32 0 1.11656e-30 0 0 4.54088e-29 8.98877e-27 0 0
          0 0 0 0 3.17399e-25 0 6.62787e-23 3.13737e-21 0 0 0 0
          0 0 0 1.06227e-10 3.52117e-14 1.07397e-16 0 1.82378e-20 2.15601e-18 4.14121e-22 0 0
          0 0 0 0 0 0 0 0 4.76262e-24 1.04411e-25 2.04538e-27 0
          0 3.14091e-35 1.49757e-29 2.89332e-31 4.40772e-33 1.22827e-17 6.44375e-16 6.19854e-12 4.05898e-13 7.91539e-15 3.12046e-07 5.08968e-11
          1.27619e-12 1.43644e-08 4.29265e-14 5.78009e-07 0 0 1.81179e-06 0 0 0 0 0
          2.13294e-06 9.16717e-08 2.25452e-09 0 1.34067e-10 6.30836e-12 0 1.08422e-15 5.27486e-19 3.42191e-17 3.34424e-06 2.27796e-07
          2.61354e-22 1.35692e-20 7.78369e-26 6.03278e-24 2.36195e-06 1.31673e-07 2.10231e-06 1.66946e-07 2.58273e-08 1.26236e-09 4.3645e-11 4.92999e-09
          9.28566e-15 2.97381e-13 2.7702e-16 9.68229e-18 2.72167e-10 3.55668e-09 6.80418e-12 1.36454e-10 1.78606e-11 2.58045e-13 0 0
          0 0 3.27904e-43 3.7744e-41 0 4.2039e-45 8.58996e-42 5.63939e-40 2.50435e-39 5.22176e-37 5.06793e-32 7.87037e-34
          8.88129e-38 5.90604e-36 7.97409e-41 4.1841e-33 4.70885e-39 9.5147e-37 9.10844e-44 1.4013e-45 0 0 0 3.53466e-14
          1.852e-17 3.22346e-19 1.52638e-16 1.02851e-15 3.49513e-13 1.00385e-14 1.75542e-13 7.63708e-43 9.80909e-45 4.82311e-12 2.83563e-10 1.95156e-10
          4.56034e-09 3.74032e-08 7.2828e-07 9.53434e-12 1.15738e-11 1.73519e-11 1.54742e-08 3.94882e-07 5.02616e-10 6.99258e-07 1.39767e-27 2.35334e-29
          3.6543e-31 2.48656e-06 2.58229e-06 2.44562e-07 1.59882e-07 5.58602e-35 1.21057e-07 2.88506e-06 2.28611e-07 2.96543e-08 1.64133e-09 1.37589e-08
          2.39486e-10 1.04554e-08 6.33239e-10 1.26617e-08 2.30951e-09 9.73779e-11 1.21673e-12 3.17449e-11 1.22621e-12 3.49374e-14 1.57928e-11 1.01834e-11
          8.36031e-13 1.35443e-14 1.4346e-13 6.41301e-15 2.80244e-06 1.6884e-07 1.50817e-06 9.30719e-08 5.68502e-09 3.08793e-10 5.82835e-11 1.37523e-06
          6.81438e-07 6.05132e-08 3.93974e-09 1.61302e-09 8.87279e-11 5.06503e-12 2.76521e-13 2.96879e-14 6.76651e-15 2.63329e-16 1.19781e-15 2.8587e-16
          2.39905e-12 9.24635e-14 2.80402e-12 9.56863e-14 3.30877e-15 4.50972e-17 1.2281e-16 3.15291e-15 0 4.3462e-38 1.80176e-38 2.02916e-36
          9.53979e-40 1.73747e-41 1.18526e-37 2.23085e-39 4.81836e-41 2.86128e-34 7.73784e-31 4.03891e-29 1.9426e-32 4.47795e-34 3.56916e-28 1.43561e-26
          1.46708e-29 3.53753e-31 1.37261e-27 1.0506e-35 1.09275e-29 5.85246e-33 2.58935e-31 5.22287e-28 6.70098e-26 2.94603e-26 8.81417e-43 1.64193e-36
          3.37852e-38 6.79239e-35 1.29141e-36 1.35666e-34 1.43996e-29 5.45498e-31 8.22001e-28 1.28788e-32 8.36315e-26 2.53444e-24 2.18421e-27 7.63731e-24
          2.50236e-25 4.8238e-26 1.59586e-21 2.27273e-24 4.82534e-24 2.07499e-22 1.67132e-19 7.02154e-21 2.01585e-19 5.39135e-21 5.05716e-19 4.10861e-23
          2.36148e-22 1.38573e-21 1.23008e-24 6.6893e-20 1.43598e-19 3.59636e-18 1.72566e-18 1.87382e-16 8.16665e-18 8.58142e-17 8.58996e-15 3.32987e-15
          1.11484e-13 1.76287e-17 1.53616e-15 3.63804e-14 5.62417e-11 2.55604e-12 2.6367e-11 1.08476e-13 7.55417e-16 7.13538e-18 8.46447e-13 5.47817e-12
          1.20187e-16 9.26127e-15 1.08897e-16 2.52453e-15 2.39277e-13 1.78049e-12 8.98491e-14 3.15139e-21 8.76983e-23 9.95282e-20 1.44512e-17 2.63739e-19
          8.52552e-21 3.31988e-16 8.85587e-18 7.61621e-15 2.80935e-13 1.40767e-14 8.85321e-16 1.26415e-16 2.52164e-29 1.8301e-22 4.97808e-18 6.20793e-15
          2.90307e-11 4.08294e-13 1.7251e-12 4.00987e-19 4.91488e-17 2.25289e-21 2.52149e-16 1.16303e-19 8.65533e-11 4.14862e-09 2.1036e-14 1.12552e-13
          2.73776e-10 5.92422e-12 1.40893e-17 1.47461e-15 5.21044e-15 1.53076e-22 8.23731e-14 7.77082e-16 6.27618e-21 2.75659e-18 2.09689e-18 2.40081e-20
          6.54438e-22 1.26963e-08 1.61278e-11 5.67391e-10 3.42365e-30 1.80566e-28 1.99203e-08 9.93488e-10 3.15524e-13 1.87757e-16 1.23482e-14 6.57682e-13
          2.76032e-11 1.95767e-26 3.98087e-08 3.46448e-09 1.03178e-24 9.98394e-21 1.06728e-07 3.31298e-12 1.12994e-10 7.01934e-14 6.09042e-09 2.36708e-10
          3.49667e-12 3.80641e-20 1.37577e-15 6.0004e-19 3.19895e-17 3.91966e-20 1.25653e-21 8.40626e-17 9.15111e-14 2.98055e-15 1.61663e-18 8.55051e-15
          4.75115e-15 5.97593e-14 9.21281e-16 1.26642e-17 2.91477e-14 7.2338e-14 6.0194e-15 1.91883e-23 1.03325e-19 4.41646e-18 1.43361e-19 5.94218e-15
          3.83611e-16 1.99658e-16 1.29782e-12 7.56953e-14 4.13965e-12 3.93958e-13 1.05079e-11 1.81331e-15 9.86069e-18 1.46691e-16 1.05105e-12 3.93912e-12
          4.14979e-13 7.69499e-19 3.38308e-17 1.50869e-16 5.03529e-15 2.71475e-13 8.53461e-15 3.72267e-13 1.36297e-07 9.27841e-09 6.69042e-12 2.79312e-07
          2.46224e-10 4.08842e-10 2.41327e-11 5.18513e-10 1.33001e-11 2.32199e-08 4.00329e-07 6.37102e-07 7.25596e-08 1.52641e-07 1.30645e-08 2.32754e-09
          3.2116e-07 4.47394e-10 3.22241e-07 1.36191e-08 3.25653e-07 8.99797e-09 1.85566e-13 5.20962e-12 8.80637e-12 2.91656e-10 4.69769e-10 3.28477e-13
          2.20838e-11 4.05273e-10 7.87012e-09 1.01085e-08 2.8203e-07 9.37344e-09 1.50763e-07 3.02866e-07 2.67497e-08 3.6978e-07 1.39794e-07 3.06461e-07
          6.7063e-08 1.43685e-07 5.2563e-08 5.82453e-09 3.8848e-08 4.51675e-09 3.30019e-08 1.11138e-09 2.89554e-08 4.81077e-10 1.36349e-11 2.46927e-11
          2.93796e-12 6.99634e-13 9.75943e-15 4.31408e-09 3.42485e-11 2.03513e-07 2.62545e-13 4.62493e-13 4.84673e-15 1.70311e-07 9.92095e-14 1.37184e-14
          1.88337e-16 6.40694e-17 2.85356e-16 2.22687e-18 4.83857e-18 1.65971e-15 5.46567e-17 1.25878e-18 2.00601e-08 3.49789e-10 5.80545e-12 1.90605e-13
          1.56866e-08 3.56983e-10 1.32418e-09 2.47649e-09 3.0707e-10 1.54894e-08 1.19189e-10 6.35851e-10 3.00032e-11 2.93966e-12 3.927e-11 4.94687e-12
          2.23087e-08 3.07671e-09 2.29621e-10 2.75736e-11 1.21459e-07 1.27759e-08 1.7945e-09 2.21032e-10 2.30483e-12 2.75828e-13 2.36362e-13 5.29903e-11
          5.75554e-12 1.75462e-11 9.30695e-11 5.88531e-10 6.84863e-09 8.46381e-10 6.93607e-09 7.94972e-10 1.17263e-10 4.99648e-09 2.60837e-08 3.67692e-09
          1.25591e-08 5.49371e-08 8.84055e-08 1.53161e-08 2.66798e-08 4.15092e-09 2.72346e-09 3.22531e-08 8.81691e-09 1.56788e-08 6.22342e-09 2.42519e-09
          3.01926e-10 1.33529e-09 2.03145e-10 6.07028e-14 1.393e-09 1.95503e-10 2.99303e-11 2.81767e-12 2.78725e-10 3.41499e-11 3.79892e-12 5.28795e-10
          4.98427e-11 4.58878e-11 5.96856e-12 3.35568e-14 2.28589e-13 4.29706e-14 7.09039e-13 1.86518e-14 1.81275e-15 1.14767e-11 7.31797e-13 4.86705e-14
          6.14553e-14 1.30331e-16 2.72098e-16 4.49204e-15 1.49184e-13 0 0 0 0 0 0 0
          0 0 0 0 0 0 0 0 0 0 0 0
          0 0 0 0 0 0 0 0 0 0 0 0
          0 0 0 0 0 0 0 0 0 0 0 0
          0 0 0 0 0 0 0 0 0 0 0 0
          0 0 0 0 0 0 0 0 0 0 0 0
          0 0 0 0 0 0 0 0 0 0 0 0
          0 0 0 0 0 0 0 0 0 0 0 0
          0 0 0 0 0 0 0 0 0 0 0 0
          0 0 0 0 0 0 0 0 0 0 0 0
          0 0 0 0 0 0 0 0 0 0 0 0
          0 0 0 0 0 0 0 0 0 0 0 0
          0 0 0 0 0 0 0 0 0 0 0 0
          0 0 0 0 0 0 0 0 0 0 0 0
          0 0 0 0 0 0 0 0 0 0 0 0
          0 0 0 0 0 0 0 0 0 0 0 0
          0 0 0 0 0 0 0 0 0 0 0 0
          0 0 0 0 0 0 0 0 0 0 0 0
          0 0 0 0 0 0 0 0 0 0 0 0
          0 0 0 0 0 0 0 0 0 0 0 0
          0 0 0 0 0 0 0 0 0 0 0 0
          2.9146e-16 1.2198e-17 2.29986e-19 0 0 0 8.98827e-21 1.94128e-19 8.97878e-21 8.20762e-15 3.90451e-16 2.01651e-22
          1.67186e-22 6.59558e-24 7.97159e-24 0 0 0 0 0 0 0 0 1.72567e-25
          0 1.87988e-25 5.42887e-27 0 8.81975e-29 0 0 0 0 0 0 0
          0 0 0 0 0 0 0 0 0 0 0 0
          0 0 0 0 0 0 0 0 0 0 0 0
          0 0 0 0 0 0 0 0 0 0 0 0
          0 0 0 0 0 0 0 0 0 0 0 0
          4.74392e-14 1.55346e-17 5.04354e-16 2.2697e-19 1.9336e-17 3.62573e-19 1.05462e-15 2.02735e-17 6.19824e-16 2.16081e-17 1.01744e-18 3.09003e-20
          2.95362e-19 1.25561e-21 9.81007e-21 1.04553e-20 2.02024e-20 2.81785e-22 2.00912e-22 1.0693e-25 2.90114e-30 2.87091e-27 1.02196e-28 9.22003e-22
          3.20376e-23 8.30214e-24 2.59018e-23 8.14541e-25 1.27368e-25 2.4712e-25 8.31614e-27 6.85451e-18 2.60669e-19 8.13072e-18 3.16403e-19 8.73716e-21
          3.70239e-22 8.33679e-21 3.12043e-22 1.49416e-18 4.65797e-20 3.37346e-18 1.20669e-19 3.08448e-22 1.48319e-21 4.66408e-23 7.76306e-23 1.48002e-23
          6.59618e-24 1.75381e-25 4.65331e-27 7.25241e-29 1.40395e-27 4.7213e-29 9.7759e-24 9.47518e-26 1.21908e-24 3.61086e-26 3.75327e-27 5.90093e-29
          7.50843e-28 3.38506e-32 1.0116e-33 3.65525e-35 0 0 1.39284e-36 0 1.59412e-28 2.76622e-30 5.08473e-30 2.39723e-32
          6.71222e-34 1.45317e-31 2.25617e-35 0 0 0 0 0 0 0 8.54025e-37 1.26269e-38
          0 0 0 3.02992e-30 6.35771e-32 1.34993e-30 1.76103e-32 4.05926e-33 7.26518e-35 6.23123e-34 2.03454e-30 2.43206e-29
          5.04641e-32 6.60889e-34 2.15677e-33 2.35564e-36 1.21935e-35 8.29547e-38 4.58152e-40 1.11613e-41 2.22452e-39 3.61535e-43 3.56235e-35 3.63469e-37
          1.36491e-36 3.46176e-39 1.00847e-40 3.90819e-38 3.08566e-42 0 0 0 0 0 0 0
          0 0 0 0 0 0 0 0 0 0 0 0
          0 0 0 0 0 0 0 0 0 0 0 0
          0 0 0 0 0 0 0 0 0 0 0 0
          0 0 0 0 0 0 0 0 0 0 0 0
          0 0 0 0 0 0 0 0 0 0 0 0
          0 0 0 0 0 0 0 0 0 0 0 0
          0 0 0 0 0 0 0 0 0 0 0 0
          0 0 0 0 0 0 0 0 0 0 0 0
          0 0 0 0 0 0 0 0 0 0 0 0
          0 0 0 0 0 0 0 0 0 0 0 0
          0 0 0 0 0 0 0 0 0 0 0 0
          9.80909e-45 0 0 0 6.5861e-44 0 0 0 0 0 0 0
          0 0 0 0 0 0 0 0 0 0 0 0
          0 0 0 0 0 0 0 0 0 0 0 0
          0 0 0 0 0 0 0 0 0 0 0 0
          0 0 0 0 0 0 0 0 0 0 0 0
          0 0 0 0 0 0 0 0 0 0 0 0
          0 0 0 0 0 0 0 7.10809e-20 5.31778e-17 1.25129e-18 3.75292e-21 1.88925e-21
          5.5276e-22 3.56454e-20 9.87069e-12 3.90071e-13 1.6372e-14 7.87046e-09 4.30642e-10 4.68299e-16 8.11478e-13 2.60078e-11 2.27294e-11 2.69166e-24
          1.79972e-23 6.41941e-26 6.26102e-25 2.76062e-17 2.78857e-27 1.02852e-28 2.74384e-26 9.58422e-21 6.18791e-16 3.30761e-14 1.33419e-12 2.70624e-13
          1.27088e-18 3.68985e-16 1.97629e-14 3.43992e-08 6.61158e-10 4.86636e-09 6.07173e-09 1.51738e-08 3.51236e-10 2.08043e-09 4.69375e-13 3.08599e-10
          4.99981e-11 4.76463e-12 1.815e-09 2.11157e-10 3.93031e-09 5.84339e-10 2.79321e-11 3.33429e-12 1.52323e-10 7.16344e-10 6.68131e-10 1.05543e-10
          1.79145e-11 1.89163e-10 3.43469e-12 3.27285e-11 1.32737e-30 5.33191e-32 3.50504e-22 1.61763e-23 1.82241e-25 8.98949e-27 2.47613e-17 5.96304e-19
          2.19799e-13 2.07487e-14 2.41187e-15 2.71341e-20 1.83756e-16 2.54811e-35 2.69233e-29 1.04829e-30 3.10659e-28 7.25109e-30 4.10076e-33 2.79343e-31
          1.53619e-21 9.2506e-33 6.45599e-23 4.57698e-19 3.47417e-11 3.54999e-12 4.65546e-12 5.06629e-13 1.40542e-14 3.91282e-13 2.02403e-11 3.8109e-12
          2.99466e-13 1.20042e-15 3.57129e-14 8.07084e-17 3.29232e-18 2.33996e-15 1.1775e-16 5.59542e-18 3.45264e-15 1.36226e-12 4.91511e-15 1.25509e-13
          3.25689e-16 2.57955e-14 3.98948e-13 2.10278e-15 1.10877e-16 1.42286e-17 5.24456e-19 2.54785e-14 2.08789e-14 1.7578e-15 1.03057e-16 1.01032e-15
          6.10492e-17 2.22965e-18 4.51958e-18 4.69256e-18 1.29862e-19 1.37754e-19 1.3107e-34 9.9686e-34 1.4013e-45 0 3.47025e-35 2.38082e-37
          2.69356e-34 1.04967e-35 0 0 6.68657e-39 1.44306e-37 4.45893e-42 2.3224e-20 3.57515e-22 2.25065e-19 1.46278e-23 6.30482e-21
          1.75694e-19 3.07851e-22 3.72389e-39 6.2575e-41 7.13568e-24 1.49799e-42 0 0 0 9.52883e-44 0 0
          0 0 2.8026e-45 0 2.10195e-44 0 0 9.6e-21 3.45604e-22 4.11297e-23 1.40783e-24 9.47706e-24
          4.26803e-21 1.33232e-22 2.84733e-25 1.05233e-26 0 2.47599e-28 0 3.79139e-27 9.7856e-29 1.25287e-30 1.06003e-15 3.6264e-21
          2.24062e-24 8.2672e-31 0 0 0 0 0 2.26913e-32
        </DataArray>
        <DataArray type="Float32" Name="rho" NumberOfComponents="1" format="ascii">
          1000 1000 1000 1000 1000 1000 1000 1000 1000 1000 1000 1000
          1000 1000 1000 1000 1000 1000 1000 1000 1000 1000 1000 1000
          1000 1000 1000 1000 1000 1000 1000 1000 1000 1000 1000 1000
          1000 1000 1000 1000 1000 1000 1000 1000 1000 1000 1000 1000
          1000 1000 1000 1000 1000 1000 1000 1000 1000 1000 1000 1000
          1000 1000 1000 1000 1000 1000 1000 1000 1000 1000 1000 1000