<?xml version="1.0"?>
<VTKFile type="UnstructuredGrid" version="0.1" byte_order="LittleEndian">
  <UnstructuredGrid>
    <Piece NumberOfCells="1928" NumberOfPoints="5784">
      <PointData Scalars="p">
        <DataArray type="Float32" Name="p" NumberOfComponents="1" format="ascii">
          110000 109056 108244 110000 109056 110000 108244 109056 108044 108244 107159 106771
          108044 107159 108244 107159 108044 106866 107159 106866 106028 109056 110000 108836
          108836 108044 109056 110000 108836 110000 108178 107666 108836 108044 108836 107666
          107666 106866 108044 107666 106602 106866 106771 106107 105582 106107 106771 107159
          105108 105582 106107 106028 106107 107159 105108 106107 106028 106028 104874 105108
          105582 105108 104653 105108 104363 104653 104653 104363 103958 104363 103850 103958
          104282 104363 105108 104874 104282 105108 103850 104363 104282 105671 106028 106866
          105671 104874 106028 106866 106602 105671 103581 103596 104282 103581 104282 104874
          104874 104146 103581 104146 104874 105671 104146 102376 103581 108178 108836 110000
          110000 108893 108178 110000 110000 108893 107537 108178 108893 107666 108178 106809
          106809 106602 107666 106809 105955 106602 108178 107537 106809 106809 107537 106627
          106809 106627 105787 108955 108893 110000 110000 108955 110000 108893 108955 107679
          107679 107537 108893 108088 108955 110000 107679 108955 108088 106627 107537 107679
          106627 107679 106573 106573 107679 108088 105577 106627 106573 106602 105955 105671
          105671 104973 104146 105671 105955 104973 105787 105955 106809 104973 105955 105787
          104146 104973 103841 103841 102376 104146 103841 102974 102376 105787 106627 105577
          105787 105577 104781 104973 105787 104781 104781 105577 104627 104627 104085 104781
          104973 104781 103841 103841 104781 104085 103469 102974 103841 104085 103469 103841
          103453 103958 103850 103850 103396 103453 103453 103173 103076 103396 103173 103453
          103029 103173 103396 103396 103850 103596 103596 103850 104282 103396 103176 103029
          103596 103176 103396 103076 103173 102857 102857 102783 103076 102857 102660 102783
          103173 103029 102857 102783 102660 102531 102277 102531 102480 102531 102660 102480
          102615 102480 102660 102615 102660 102857 102615 102416 102480 103029 102791 102857
          102857 102791 102615 102791 103029 102862 103029 103176 102862 102862 102641 102791
          102615 102791 102641 102447 102416 102615 102447 102615 102641 102641 102499 102447
          103090 103596 103581 103090 103176 103596 102862 103176 103090 102748 103090 103581
          102376 102748 103581 103090 102748 102642 102862 102612 102641 102642 102862 103090
          102642 102612 102862 102612 102499 102641 102612 102468 102499 102493 102468 102612
          102642 102493 102612 102373 102468 102493 102411 102493 102642 102411 102396 102493
          102237 102277 102277 102480 102277 102277 102218 102237 102277 102480 102416 102277
          102416 102277 102277 102277 102276 102218 102276 102230 102218 102174 102237 102218
          102218 102152 102174 102174 102152 102088 102218 102176 102152 102218 102230 102176
          102103 102152 102176 102277 102416 102447 102447 102276 102277 102276 102230 102276
          102447 102378 102276 102499 102378 102447 102378 102275 102276 102176 102230 102205
          102205 102230 102276 102127 102103 102176 102127 102176 102205 102205 102276 102275
          102275 102209 102205 102205 102152 102127 102205 102209 102152 102088 102152 102103
          102088 102103 102021 102088 102021 101977 102043 102021 102103 102043 101962 102021
          101909 101977 102021 101977 101909 101832 102021 101962 101909 101832 101909 101838
          101838 101909 101962 102103 102127 102043 102068 102043 102127 102127 102152 102068
          101953 102043 102068 101953 101962 102043 101838 101962 101953 102068 101990 101953
          101838 101953 101864 102365 102378 102499 102499 102468 102365 102275 102378 102365
          102365 102274 102275 102373 102365 102468 102274 102365 102373 102373 102272 102274
          102275 102273 102209 102149 102152 102209 102209 102217 102149 102273 102217 102209
          102272 102217 102273 102149 102217 102196 102493 102396 102373 102396 102327 102373
          102373 102327 102272 102327 102396 102353 102353 102306 102327 102327 102271 102272
          102196 102217 102272 102196 102272 102271 102327 102306 102271 102306 102270 102271
          102271 102219 102196 102270 102219 102271 102068 102152 102149 102068 102149 102099
          102099 101990 102068 102099 102149 102196 101864 101953 101990 101922 101864 101990
          102099 102021 101990 101990 102021 101922 102196 102160 102099 102219 102160 102196
          102099 102105 102021 102160 102105 102099 102170 102160 102219 102105 102160 102170
          102105 102170 102117 102014 102021 102105 101922 102021 102014 102105 102117 102014
          102642 102748 102346 102346 102748 102376 102376 102974 102346 102346 102411 102642
          102346 102319 102411 102319 102327 102411 102498 102319 102346 102974 102718 102346
          102974 103038 102718 103469 103038 102974 103159 103038 103469 102718 103038 102834
          102346 102718 102498 102498 102376 102319 102498 102456 102376 102718 102657 102498
          102834 102657 102718 102657 102648 102550 102498 102657 102550 102550 102456 102498
          102456 102550 102472 102411 102353 102396 102304 102306 102353 102327 102353 102411
          102304 102353 102327 102327 102295 102304 102270 102306 102304 102269 102270 102304
          102219 102270 102230 102269 102230 102270 102269 102304 102295 102230 102269 102234
          102268 102234 102269 102297 102295 102327 102297 102327 102319 102295 102268 102269
          102295 102282 102268 102282 102295 102297 102279 102282 102297 102267 102268 102282
          102282 102279 102267 102230 102170 102219 102179 102170 102230 102179 102117 102170
          102230 102234 102179 102179 102234 102225 102117 102080 102014 102080 102117 102179
          102014 102080 102009 102179 102159 102080 102159 102100 102080 102080 102100 102009
          102234 102268 102225 102267 102225 102268 102225 102159 102179 102225 102195 102159
          102225 102267 102237 102237 102195 102225 102139 102100 102159 102159 102195 102139
          102009 102100 102139 102195 102196 102139 102196 102195 102237 102100 102139 102196
          102376 102297 102319 102297 102376 102332 102404 102332 102376 102297 102332 102279
          102279 102298 102266 102332 102338 102298 102332 102298 102279 102376 102456 102404
          102472 102404 102456 102472 102414 102404 102404 102414 102368 102404 102338 102332
          102298 102298 102338 102324 102298 102338 102404 102368 102338 102338 102368 102324
          102266 102267 102279 102267 102266 102237 102253 102237 102266 102267 102266 102298
          102298 102298 102267 102266 102267 102253 102267 102255 102253 102237 102253 102196
          102236 102196 102253 102196 102172 102100 102196 102236 102172 102253 102255 102236
          102267 102298 102268 102292 102268 102298 102268 102255 102267 102324 102292 102298
          102303 102292 102324 102268 102292 102269 102268 102269 102249 102236 102255 102249
          102249 102255 102268 102249 102231 102236 102269 102255 102249 102238 102231 102249
          102249 102255 102238 108088 110000 110000 110000 107855 108088 106385 108088 107855
          107855 110000 106964 106326 107855 106964 107855 106326 106385 108088 106385 106573
          105577 106573 105272 106573 106385 105272 106326 105752 106385 106385 105752 105139
          106385 105139 105272 106964 105723 106326 106964 105496 105723 105723 105500 106326
          106326 105500 105230 105496 104874 105723 104554 104874 105496 104919 105500 105723
          105500 104919 104668 105723 104874 104919 104668 104919 104295 105230 105752 106326
          105139 105752 105230 104411 104512 105139 104411 105139 105230 104668 105230 105500
          105230 104668 104367 104367 104668 104079 105230 104367 104411 104411 104367 103763
          105272 104627 105577 105272 104303 104627 105272 105139 104512 105272 104512 104303
          103921 104627 104303 104627 103921 104085 103921 103611 104085 104085 103611 103469
          103469 103611 103159 103476 103921 104303 103476 103377 103921 103377 103611 103921
          103159 103611 103377 104411 104005 104512 104512 104005 103851 104303 104512 103851
          104303 103851 103476 103476 103851 103363 103696 104005 104411 103763 103696 104411
          103363 103851 104005 104005 103696 103363 103696 103290 103363 102954 103377 103476
          103377 102954 102941 102477 102954 103476 102477 103476 103363 103363 102876 102477
          102477 102679 102954 102557 102679 102477 104105 104874 104554 104554 103855 104105
          104295 104919 104874 104874 104105 104295 103738 104295 104105 103855 103547 104105
          103547 103589 104105 103301 103547 103855 103301 103187 103547 103547 103187 103199
          104105 103589 103738 103199 103589 103547 103316 103589 103199 103316 103738 103589
          104295 104079 104668 104079 104295 103738 103738 103521 104079 103853 104079 103521
          104079 103853 104367 104367 103853 103763 103521 103384 103853 103763 103853 103384
          103521 103738 103316 103316 103046 103521 103046 103170 103521 103521 103170 103384
          103170 102990 103384 102990 103170 102832 102990 103080 103384 103187 103301 102863
          103199 103187 102857 102857 103187 102863 102863 102523 102857 103199 102804 103007
          103199 103007 103316 102857 102804 103199 102857 102522 102804 102722 103007 102804
          102804 102520 102722 102863 102523 102523 102517 102523 102523 102523 102522 102857
          102523 102517 102522 102514 102517 102523 102517 102517 102523 102511 102517 102517
          102520 102804 102522 102522 102517 102515 102520 102522 102515 102515 102517 102511
          102520 102515 102510 102510 102515 102507 103046 103316 103007 103046 103007 102722
          102722 102727 103046 103046 102832 103170 103046 102727 102832 102517 102722 102520
          102722 102517 102727 102832 102727 102513 102513 102727 102517 102832 102712 102990
          102990 102712 102776 102513 102508 102832 102508 102712 102832 102503 102712 102508
          102508 102501 102503 102510 102517 102520 102510 102509 102517 102513 102517 102509
          102513 102509 102504 102504 102509 102502 102502 102509 102510 102504 102508 102513
          102504 102501 102508 102502 102497 102504 102496 102501 102504 102504 102497 102496
          103290 103696 103763 103384 103271 103763 103763 103271 103290 103271 102977 103290
          103363 103290 102980 102980 103290 102977 103384 103080 103271 103271 103080 102936
          103271 102936 102977 102776 103080 102990 102936 103080 102776 102776 102691 102936
          102977 102761 102980 102761 102977 102721 102721 102977 102936 102936 102691 102721
          102721 102597 102761 102980 102876 103363 102477 102876 102678 102678 102876 102980
          102678 102980 102761 102678 102470 102477 102470 102557 102477 102470 102509 102557
          102470 102477 102509 102761 102594 102678 102761 102597 102594 102597 102526 102594
          102594 102526 102501 102463 102470 102678 102678 102594 102463 102463 102477 102470
          102463 102463 102477 102594 102501 102463 102463 102501 102458 102463 102463 102458
          102458 102447 102463 102776 102712 102503 102497 102691 102776 102490 102691 102497
          102776 102503 102497 102497 102503 102494 102721 102691 102490 102721 102483 102597
          102490 102483 102721 102488 102490 102497 102483 102490 102488 102490 102483 102483
          102483 102483 102475 102503 102501 102494 102494 102501 102496 102488 102497 102494
          102485 102488 102494 102494 102496 102487 102487 102485 102494 102480 102488 102485
          102480 102483 102488 102483 102480 102475 102487 102481 102485 102485 102481 102478
          102485 102478 102480 102478 102474 102480 102597 102475 102526 102483 102475 102597
          102467 102526 102475 102526 102467 102501 102475 102469 102467 102475 102475 102483
          102475 102469 102475 102466 102469 102475 102463 102469 102466 102458 102501 102467
          102458 102467 102463 102463 102467 102469 102463 102457 102458 102466 102460 102463
          102460 102457 102463 102458 102457 102444 102475 102480 102474 102475 102474 102468
          102468 102466 102475 102466 102468 102461 102470 102474 102478 102468 102474 102470
          102468 102470 102463 102463 102461 102468 102461 102460 102466 102461 102456 102460
          102457 102460 102456 102457 102456 102441 102455 102456 102461 102441 102456 102455
          102458 102455 102461 102834 103038 103159 103159 102896 102834 102680 102834 102896
          103377 102941 103159 102941 102896 103159 102896 102756 102680 102756 102896 102941
          102648 102657 102834 102680 102648 102834 102550 102550 102648 102550 102550 102472
          102550 102648 102680 102680 102549 102550 102550 102549 102486 102756 102635 102680
          102680 102635 102569 102569 102549 102680 102486 102549 102504 102549 102569 102504
          102954 102780 102941 102954 102679 102780 102941 102780 102724 102941 102724 102756
          102724 102644 102756 102724 102780 102629 102780 102679 102629 102629 102679 102557
          102629 102601 102724 102601 102644 102724 102629 102552 102601 102552 102534 102601
          102644 102635 102756 102644 102564 102635 102644 102572 102564 102521 102569 102635
          102635 102564 102521 102521 102504 102569 102504 102521 102454 102521 102564 102507
          102521 102476 102454 102601 102572 102644 102564 102572 102511 102572 102601 102534
          102511 102572 102534 102511 102507 102564 102507 102476 102521 102476 102507 102460
          102460 102439 102476 102460 102507 102511 102511 102456 102460 102433 102414 102472
          102472 102550 102486 102486 102433 102472 102368 102414 102387 102342 102324 102368
          102368 102387 102342 102414 102433 102387 102387 102433 102403 102359 102342 102387
          102433 102486 102440 102440 102403 102433 102486 102504 102440 102387 102403 102359
          102359 102403 102390 102440 102390 102403 102390 102354 102359 102324 102342 102303
          102303 102269 102292 102269 102303 102270 102318 102303 102342 102342 102359 102318
          102318 102292 102303 102292 102270 102303 102270 102255 102269 102252 102255 102270
          102238 102255 102252 102252 102230 102238 102252 102270 102271 102270 102292 102271
          102271 102256 102252 102252 102256 102237 102324 102318 102359 102296 102292 102318
          102296 102271 102292 102318 102324 102296 102359 102354 102324 102324 102354 102335
          102296 102324 102311 102324 102335 102311 102311 102290 102296 102271 102296 102272
          102272 102256 102271 102249 102256 102272 102290 102272 102296 102272 102290 102273
          102272 102273 102249 102454 102440 102504 102454 102409 102440 102409 102454 102404
          102390 102440 102409 102409 102362 102390 102362 102354 102390 102409 102379 102362
          102379 102355 102362 102454 102476 102439 102454 102439 102404 102415 102439 102460
          102404 102439 102415 102404 102415 102381 102404 102379 102409 102379 102404 102370
          102351 102355 102379 102381 102370 102404 102370 102351 102379 102351 102370 102346
          102362 102335 102354 102324 102335 102362 102311 102335 102324 102324 102296 102311
          102362 102355 102324 102355 102335 102324 102303 102296 102324 102296 102290 102311
          102296 102273 102290 102274 102273 102296 102273 102274 102250 102274 102296 102303
          102351 102335 102355 102324 102335 102303 102303 102335 102325 102325 102335 102351
          102332 102325 102351 102325 102308 102303 102318 102308 102325 102303 102274 102274
          102303 102291 102274 102308 102291 102303 102291 102308 102299 102274 102291 102275
          102299 102286 102291 102291 102286 102275 102557 102509 102524 102629 102557 102524
          102524 102509 102479 102524 102552 102629 102534 102552 102489 102489 102552 102524
          102524 102469 102489 102509 102477 102479 102479 102477 102463 102479 102469 102524
          102479 102463 102435 102463 102447 102435 102435 102469 102479 102469 102447 102489
          102489 102447 102441 102423 102447 102469 102435 102423 102469 102411 102447 102423
          102441 102447 102411 102471 102534 102489 102511 102534 102471 102471 102456 102511
          102489 102441 102471 102471 102421 102417 102460 102456 102421 102417 102456 102471
          102421 102456 102417 102417 102391 102421 102441 102421 102471 102399 102421 102441
          102411 102399 102441 102399 102411 102394 102387 102421 102399 102387 102399 102376
          102417 102421 102387 102387 102374 102417 102374 102391 102417 102374 102387 102368
          102362 102374 102360 102368 102360 102374 102444 102447 102458 102447 102444 102428
          102428 102435 102447 102441 102444 102457 102444 102430 102428 102428 102430 102417
          102423 102435 102428 102428 102413 102423 102423 102407 102411 102413 102407 102423
          102417 102413 102428 102413 102417 102402 102393 102407 102413 102413 102402 102393
          102441 102430 102444 102417 102430 102424 102424 102430 102441 102455 102434 102441
          102441 102434 102424 102455 102437 102434 102424 102434 102418 102403 102417 102424
          102403 102402 102417 102393 102402 102386 102386 102402 102403 102403 102424 102418
          102418 102399 102403 102403 102382 102386 102399 102382 102403 102411 102407 102394
          102399 102394 102376 102394 102378 102376 102394 102407 102393 102393 102378 102394
          102372 102378 102393 102376 102378 102353 102376 102368 102387 102376 102358 102368
          102360 102368 102349 102343 102360 102349 102368 102358 102349 102353 102358 102376
          102353 102343 102358 102349 102358 102343 102327 102349 102343 102393 102386 102372
          102378 102372 102353 102372 102355 102353 102386 102382 102365 102372 102386 102365
          102365 102355 102372 102355 102365 102344 102344 102337 102355 102323 102343 102353
          102327 102343 102323 102353 102355 102337 102353 102337 102322 102322 102323 102353
          102296 102323 102322 102421 102415 102460 102415 102421 102383 102383 102381 102415
          102421 102391 102383 102383 102361 102381 102370 102381 102356 102356 102346 102370
          102361 102356 102381 102356 102361 102338 102356 102339 102346 102338 102339 102356
          102383 102391 102362 102362 102391 102374 102383 102362 102350 102350 102361 102383
          102362 102360 102343 102343 102338 102362 102338 102350 102362 102361 102350 102338
          102350 102333 102338 102325 102339 102338 102325 102338 102315 102333 102350 102338
          102318 102333 102338 102315 102338 102333 102315 102333 102318 102346 102332 102351
          102332 102346 102328 102328 102318 102332 102325 102332 102318 102346 102339 102328
          102328 102339 102325 102305 102318 102313 102318 102328 102313 102318 102299 102308
          102318 102305 102299 102289 102299 102305 102289 102286 102299 102276 102286 102289
          102289 102305 102301 102313 102301 102305 102301 102289 102289 102313 102328 102325
          102325 102306 102313 102313 102306 102290 102306 102325 102315 102289 102306 102315
          102290 102306 102289 102290 102301 102313 102290 102287 102301 102301 102287 102289
          102289 102287 102279 102290 102273 102275 102275 102287 102290 102279 102287 102275
          102343 102322 102338 102318 102338 102322 102343 102349 102327 102322 102343 102327
          102322 102308 102299 102327 102308 102322 102322 102299 102318 102318 102299 102315
          102299 102318 102299 102308 102289 102299 102299 102284 102299 102276 102284 102299
          102297 102327 102323 102297 102308 102327 102289 102308 102297 102270 102289 102297
          102323 102296 102297 102297 102278 102270 102296 102278 102297 102270 102278 102254
          102299 102289 102276 102276 102289 102270 102265 102284 102276 102265 102276 102253
          102270 102253 102276 102270 102246 102253 102253 102246 102225 102315 102299 102289
          102299 102277 102289 102289 102277 102290 102277 102269 102289 102269 102277 102289
          102299 102284 102277 102277 102284 102265 102277 102265 102256 102277 102256 102269
          102249 102269 102256 102290 102277 102273 102262 102277 102269 102262 102273 102277
          102275 102273 102262 102262 102273 102262 102269 102249 102262 102242 102262 102249
          102262 102262 102242 102242 102253 102262 102253 102243 102265 102256 102265 102243
          102256 102243 102228 102249 102256 102228 102243 102253 102225 102225 102216 102243
          102243 102216 102228 102228 102216 102193 102249 102230 102242 102228 102230 102249
          102230 102218 102242 102242 102218 102224 102202 102230 102228 102193 102202 102228
          102202 102218 102230 102191 102218 102202 102224 102218 102191 101686 101642 101832
          101832 101838 101686 101642 101686 101503 101713 101686 101838 101838 101864 101713
          101503 101686 101713 101503 101713 101579 101503 101389 101642 101503 101236 101389
          101389 101236 101047 101296 101236 101503 101579 101296 101503 100935 101236 101296
          101776 101713 101864 101864 101922 101776 101713 101776 101579 101776 101732 101579
          101859 101922 102014 101859 101776 101922 101776 101859 101732 101813 101732 101859
          101732 101813 101636 101385 101296 101579 101296 101385 101030 101579 101732 101636
          101579 101636 101385 101047 100935 100585 100935 101047 101236 100441 100585 100935
          100935 100746 100441 100000 100585 100441 100000 100441 100000 101296 101030 100935
          101030 100746 100935 100609 100746 101030 101030 101385 101211 100609 101030 101211
          100441 100746 100609 100000 100441 100609 100000 100609 100000 101859 102014 102009
          101813 101859 102009 102009 101963 101813 101636 101813 101847 101813 101963 101847
          102139 102100 102009 102100 101963 102009 102100 102073 101963 101847 101963 102073
          102073 102017 101847 101847 101580 101636 101385 101636 101580 101385 101580 101211
          101847 101832 101580 101847 102017 101832 101580 101832 101641 102073 102100 102172
          102073 102172 102216 102216 102172 102236 102236 102231 102216 102192 102073 102216
          102192 102017 102073 102216 102231 102214 102216 102214 102192 102231 102238 102214
          102179 102192 102214 101832 102017 102164 101641 101832 102164 102164 102017 102192
          102192 102179 102164 102179 102146 102164 102164 102132 101641 102132 102164 102146
          100609 101211 100919 101211 101580 101641 101211 101641 100919 100919 100000 100609
          100000 100000 100919 101641 101542 100919 101641 102132 101542 102101 101542 102132
          100919 101542 100000 101542 102101 100000 102238 102230 102214 102214 102230 102209
          102237 102230 102252 102209 102230 102237 102214 102209 102179 102164 102179 102209
          102237 102256 102249 102223 102237 102249 102237 102223 102209 102226 102223 102249
          102209 102223 102191 102209 102191 102164 102191 102223 102226 102164 102146 102179
          102094 102146 102164 102146 102094 102132 102129 102164 102191 102164 102129 102094
          102191 102167 102129 102048 102094 102129 102094 102048 101930 102129 102109 102048
          102250 102249 102273 102249 102250 102226 102226 102250 102239 102274 102259 102250
          102250 102259 102239 102274 102259 102274 102191 102226 102207 102226 102239 102207
          102207 102167 102191 102207 102239 102230 102190 102167 102207 102230 102190 102207
          102256 102259 102274 102274 102275 102256 102239 102259 102256 102239 102256 102230
          102275 102265 102256 102276 102265 102275 102256 102265 102253 102209 102190 102230
          102256 102253 102230 102230 102253 102242 102230 102242 102209 102109 102167 102190
          102109 102129 102167 102190 102156 102109 101988 102048 102109 102156 102092 102109
          102109 102092 101988 101988 102092 102112 102190 102209 102156 102242 102232 102209
          102201 102156 102209 102209 102232 102201 102112 102092 102156 102112 102156 102201
          102201 102187 102112 102112 102187 102135 102132 102094 101930 102132 101930 102101
          101930 102048 101988 102101 101930 101433 100000 102101 100000 102101 101433 100687
          100687 100000 102101 101988 101784 101930 101988 101964 101784 101930 101784 101433
          101433 101784 101694 102112 101964 101988 102112 102135 101964 101784 101964 101694
          101964 102061 101694 102135 102061 101964 102135 102234 102061 101433 101694 100970
          101694 102061 102231 101694 102231 101598 101694 101598 100970 100970 100687 101433
          100000 100687 100000 100687 100970 100000 102275 102286 102276 102265 102276 102268
          102253 102265 102268 102277 102276 102289 102289 102289 102277 102277 102268 102276
          102270 102268 102277 102268 102258 102253 102253 102258 102242 102242 102258 102263
          102242 102263 102257 102268 102270 102258 102263 102258 102270 102263 102270 102235
          102207 102257 102263 102277 102289 102279 102279 102273 102277 102270 102277 102273
          102275 102272 102279 102279 102272 102273 102266 102272 102275 102273 102272 102268
          102235 102273 102268 102268 102272 102266 102273 102235 102270 102235 102207 102263
          102235 102176 102207 102268 102207 102235 102207 102176 102235 102109 102176 102207
          102257 102232 102242 102250 102232 102257 102201 102232 102250 102207 102192 102257
          102257 102192 102250 102250 102192 102121 102201 102244 102187 102250 102244 102201
          102239 102187 102244 102135 102187 102239 102244 102250 102121 102121 102091 102244
          102244 102091 102239 102109 102192 102207 102109 102207 102176 102121 102192 102109
          102109 101991 102121 102109 102176 102109 102109 102109 101984 101984 101991 102109
          102121 101991 101887 101887 102091 102121 101961 102091 101887 101887 101991 101830
          102275 102262 102266 102266 102262 102253 102268 102266 102260 102260 102265 102268
          102253 102260 102266 102253 102241 102252 102265 102260 102252 102252 102260 102253
          102268 102265 102207 102265 102211 102207 102207 102142 102109 102207 102211 102142
          102261 102211 102265 102252 102261 102265 102144 102142 102211 102144 102211 102261
          102242 102241 102253 102224 102241 102242 102236 102241 102224 102252 102241 102236
          102261 102252 102236 102224 102208 102236 102191 102208 102224 102208 102210 102236
          102236 102210 102235 102144 102261 102257 102236 102257 102261 102257 102138 102144
          102236 102235 102257 102257 102235 102254 102254 102138 102257 102109 102142 102033
          101984 102109 102033 102033 102142 102144 102033 101866 101984 101866 102033 101971
          101830 101991 101984 101830 101984 101866 101887 101830 101573 101830 101665 101573
          101866 101665 101830 102033 102144 101971 102144 102138 101971 101971 102138 102062
          101971 101864 101673 102062 101864 101971 101673 101665 101866 101673 101866 101971
          102234 102135 102239 101961 102234 102239 102231 102061 102234 102234 101970 102231
          102239 102091 101961 101961 101970 102234 101586 101970 101961 101598 102231 101970
          101598 101970 101586 100832 101598 101586 101887 101666 101961 101961 101666 101586
          101573 101666 101887 101311 101666 101573 100832 101586 101311 101586 101666 101311
          100970 101598 100832 100000 100970 100832 100832 101311 100746 100000 100832 100000
          101573 101238 101311 101573 101665 101308 101308 101238 101573 101311 101238 100746
          101308 101665 101673 101673 101319 101308 100746 101238 101308 101308 100830 100746
          100832 100746 100000 100000 100000 100746 102514 102511 102517 102505 102511 102514
          102517 102511 102511 102511 102511 102506 102506 102505 102511 102506 102511 102505
          102501 102506 102505 102501 102505 102506 102507 102515 102511 102511 102505 102507
          102507 102505 102501 102501 102505 102501 102507 102501 102500 102497 102501 102505
          102506 102501 102501 102496 102501 102501 102496 102501 102497 102491 102496 102497
          102501 102496 102501 102494 102501 102496 102496 102501 102496 102491 102496 102496
          102496 102491 102494 102491 102491 102496 102510 102507 102500 102500 102502 102510
          102501 102494 102500 102494 102502 102500 102500 102492 102494 102494 102497 102502
          102496 102497 102490 102490 102497 102494 102494 102488 102490 102500 102494 102492
          102494 102491 102487 102487 102492 102494 102494 102492 102487 102487 102488 102494
          102482 102488 102487 102487 102492 102487 102482 102481 102487 102489 102491 102497
          102496 102491 102491 102491 102491 102486 102486 102491 102489 102491 102491 102486
          102486 102486 102491 102482 102486 102489 102481 102486 102482 102486 102486 102481
          102481 102480 102486 102487 102491 102486 102486 102482 102487 102487 102482 102487
          102477 102481 102482 102482 102487 102482 102482 102477 102482 102477 102482 102477
          102480 102482 102486 102482 102480 102477 102482 102477 102477 102472 102477 102477
          102496 102490 102487 102490 102485 102487 102485 102482 102487 102487 102482 102481