<?xml version="1.0"?>
<VTKFile type="UnstructuredGrid" version="0.1" byte_order="LittleEndian">
  <UnstructuredGrid>
    <Piece NumberOfCells="64" NumberOfPoints="81">
      <CellData Scalars="S_liq">
        <DataArray type="Float32" Name="S_liq" NumberOfComponents="1" format="ascii">
          0.614562 0.614562 0.614562 0.614562 0.614563 0.614563 0.614563 0.614563 0.125427 0.125428 0.125428 0.125428
          0.125428 0.125428 0.125428 0.125428 0.0457042 0.0457048 0.0457055 0.045706 0.0457064 0.0457068 0.0457071 0.0457074
          0.0257656 0.0257705 0.025775 0.0257786 0.0257815 0.0257841 0.0257863 0.025788 0.0172624 0.0172791 0.0172928 0.0173036
          0.0173125 0.0173202 0.017327 0.0173325 0.0108362 0.010897 0.010943 0.0109788 0.0110083 0.0110337 0.0110561 0.0110753
          0 0 0 0 0 0 0 0 0 0 0 0
          0 0 0 0
        </DataArray>
        <DataArray type="Float32" Name="p_liq" NumberOfComponents="1" format="ascii">
          98496 98496 98496 98496 98496 98496 98496 98496 97789.1 97789.1 97789.1 97789.1
          97789.1 97789.1 97789.1 97789.1 97316.9 97316.9 97316.9 97316.9 97316.9 97316.9 97316.9 97316.9
          96986.3 96986.4 96986.6 96986.6 96986.7 96986.8 96986.8 96986.9 96702.2 96702.9 96703.5 96704
          96704.4 96704.8 96705.1 96705.4 96339 96342.6 96345.3 96347.5 96349.2 96350.7 96352 96353.2
          95697.6 95697.6 95697.6 95697.6 95697.6 95697.6 95697.6 95697.6 95697.5 95697.5 95697.5 95697.5
          95697.5 95697.5 95697.5 95697.5
        </DataArray>
        <DataArray type="Float32" Name="rho_liq" NumberOfComponents="1" format="ascii">
          997.051 997.051 997.051 997.051 997.051 997.051 997.051 997.051 997.051 997.051 997.051 997.051
          997.051 997.051 997.051 997.051 997.051 997.051 997.051 997.051 997.051 997.051 997.051 997.051
          997.051 997.051 997.051 997.051 997.051 997.051 997.051 997.051 997.05 997.05 997.05 997.05
          997.05 997.05 997.05 997.05 997.05 997.05 997.05 997.05 997.05 997.05 997.05 997.05
          610.336 628.473 641.854 652.355 661.125 668.727 675.495 681.465 136.094 159.997 176.435 189.323
          200.097 209.437 217.763 225.419
        </DataArray>
        <DataArray type="Float32" Name="mob_liq" NumberOfComponents="1" format="ascii">
          233.927 233.927 233.927 233.927 233.927 233.928 233.928 233.928 2.13229 2.1323 2.1323 2.13231
          2.13231 2.13231 2.13232 2.13232 0.0971432 0.0971476 0.0971519 0.0971555 0.0971585 0.097161 0.0971632 0.0971648
          0.0143468 0.0143565 0.0143653 0.0143723 0.0143782 0.0143832 0.0143875 0.0143908 0.00321343 0.00322583 0.00323607 0.00324416
          0.00325087 0.00325665 0.00326172 0.00326585 0.000390248 0.000401898 0.000410863 0.000417924 0.000423818 0.000428925 0.000433459 0.000437358
          0 0 0 0 0 0 0 0 0 0 0 0
          0 0 0 0
        </DataArray>
        <DataArray type="Float32" Name="S_gas" NumberOfComponents="1" format="ascii">
          0.385438 0.385438 0.385438 0.385438 0.385437 0.385437 0.385437 0.385437 0.874573 0.874572 0.874572 0.874572
          0.874572 0.874572 0.874572 0.874572 0.954296 0.954295 0.954295 0.954294 0.954294 0.954293 0.954293 0.954293
          0.974234 0.97423 0.974225 0.974221 0.974218 0.974216 0.974214 0.974212 0.982738 0.982721 0.982707 0.982696
          0.982687 0.98268 0.982673 0.982668 0.989164 0.989103 0.989057 0.989021 0.988992 0.988966 0.988944 0.988925
          1 1 1 1 1 1 1 1 1 1 1 1
          1 1 1 1
        </DataArray>
        <DataArray type="Float32" Name="p_gas" NumberOfComponents="1" format="ascii">
          100002 100002 100002 100002 100002 100002 100002 100002 100002 100002 100002 100002
          100002 100002 100002 100002 100001 100001 100001 100001 100001 100001 100001 100001
          100001 100001 100001 100001 100001 100001 100001 100001 100000 100000 100000 100000
          100000 100000 100000 100000 100000 100000 100000 100000 100000 100000 100000 100000
          100000 100000 100000 100000 100000 100000 100000 100000 100000 100000 100000 100000
          100000 100000 100000 100000
        </DataArray>
        <DataArray type="Float32" Name="rho_gas" NumberOfComponents="1" format="ascii">
          1.15428 1.15428 1.15428 1.15428 1.15428 1.15428 1.15428 1.15428 1.15427 1.15427 1.15427 1.15427
          1.15427 1.15427 1.15427 1.15427 1.15427 1.15427 1.15427 1.15427 1.15427 1.15427 1.15427 1.15427
          1.15426 1.15426 1.15426 1.15426 1.15426 1.15426 1.15426 1.15426 1.15426 1.15426 1.15426 1.15426
          1.15426 1.15426 1.15426 1.15426 1.15426 1.15426 1.15426 1.15426 1.15426 1.15426 1.15426 1.15426
          1.15967 1.15941 1.15923 1.15908 1.15896 1.15885 1.15876 1.15867 1.16632 1.16598 1.16575 1.16557
          1.16542 1.16529 1.16517 1.16507
        </DataArray>
        <DataArray type="Float32" Name="mob_gas" NumberOfComponents="1" format="ascii">
          8028.89 8028.88 8028.88 8028.87 8028.86 8028.85 8028.85 8028.85 44360.2 44360.2 44360.2 44360.2
          44360.2 44360.2 44360.1 44360.1 52869.7 52869.6 52869.6 52869.5 52869.5 52869.4 52869.4 52869.4
          54506.3 54506 54505.7 54505.5 54505.3 54505.1 54505 54504.9 54935 54934.4 54933.9 54933.4
          54933.1 54932.8 54932.5 54932.3 55123.7 55122.5 55121.6 55120.9 55120.3 55119.8 55119.4 55119
          54834.1 54850.3 54862.3 54871.7 54879.5 54886.3 54892.4 54897.7 54413.3 54434.4 54448.9 54460.2
          54469.8 54478 54485.4 54492.1
        </DataArray>
        <DataArray type="Float32" Name="pc" NumberOfComponents="1" format="ascii">
          1506.34 1506.34 1506.34 1506.34 1506.34 1506.34 1506.34 1506.34 2212.36 2212.36 2212.36 2212.36
          2212.36 2212.35 2212.35 2212.35 2684.11 2684.1 2684.09 2684.09 2684.08 2684.08 2684.07 2684.07
          3014.27 3014.15 3014.04 3013.95 3013.87 3013.81 3013.76 3013.71 3298.2 3297.43 3296.81 3296.31
          3295.9 3295.55 3295.24 3294.99 3661.17 3657.57 3654.85 3652.73 3650.99 3649.48 3648.16 3647.02
          4302.49 4302.49 4302.49 4302.49 4302.49 4302.49 4302.49 4302.49 4302.49 4302.49 4302.49 4302.49
          4302.49 4302.49 4302.49 4302.49
        </DataArray>
        <DataArray type="Float32" Name="porosity" NumberOfComponents="1" format="ascii">
          0.41 0.41 0.41 0.41 0.41 0.41 0.41 0.41 0.41 0.41 0.41 0.41
          0.41 0.41 0.41 0.41 0.41 0.41 0.41 0.41 0.41 0.41 0.41 0.41
          0.41 0.41 0.41 0.41 0.41 0.41 0.41 0.41 0.41 0.41 0.41 0.41
          0.41 0.41 0.41 0.41 0.41 0.41 0.41 0.41 0.41 0.41 0.41 0.41
          0.41 0.41 0.41 0.41 0.41 0.41 0.41 0.41 0.41 0.41 0.41 0.41
          0.41 0.41 0.41 0.41
        </DataArray>
        <DataArray type="Float32" Name="x^H2O_liq" NumberOfComponents="1" format="ascii">
          0.999987 0.999987 0.999987 0.999987 0.999987 0.999987 0.999987 0.999987 0.999987 0.999987 0.999987 0.999987
          0.999987 0.999987 0.999987 0.999987 0.999987 0.999987 0.999987 0.999987 0.999987 0.999987 0.999987 0.999987
          0.999987 0.999987 0.999987 0.999987 0.999987 0.999987 0.999987 0.999987 0.999987 0.999987 0.999987 0.999987
          0.999987 0.999987 0.999987 0.999987 0.999987 0.999987 0.999987 0.999987 0.999987 0.999987 0.999987 0.999987
          0.612125 0.630316 0.643736 0.654269 0.663064 0.67069 0.677478 0.683465 0.136476 0.160449 0.176937 0.189862
          0.200668 0.210037 0.218387 0.226066
        </DataArray>
        <DataArray type="Float32" Name="X^H2O_liq" NumberOfComponents="1" format="ascii">
          0.999978 0.999978 0.999978 0.999978 0.999978 0.999978 0.999978 0.999978 0.999978 0.999978 0.999978 0.999978
          0.999978 0.999978 0.999978 0.999978 0.999978 0.999978 0.999978 0.999978 0.999978 0.999978 0.999978 0.999978
          0.999978 0.999978 0.999978 0.999978 0.999978 0.999978 0.999978 0.999978 0.999978 0.999978 0.999978 0.999978
          0.999978 0.999978 0.999978 0.999978 0.999978 0.999978 0.999978 0.999978 0.999978 0.999978 0.999978 0.999978
          0.612117 0.630308 0.643728 0.65426 0.663056 0.670681 0.677469 0.683457 0.136467 0.160441 0.176928 0.189854
          0.20066 0.210028 0.218378 0.226057
        </DataArray>
        <DataArray type="Float32" Name="x^Air_liq" NumberOfComponents="1" format="ascii">
          1.34035e-05 1.34035e-05 1.34035e-05 1.34035e-05 1.34035e-05 1.34035e-05 1.34035e-05 1.34035e-05 1.34034e-05 1.34034e-05 1.34034e-05 1.34034e-05
          1.34034e-05 1.34034e-05 1.34034e-05 1.34034e-05 1.34033e-05 1.34033e-05 1.34033e-05 1.34033e-05 1.34033e-05 1.34033e-05 1.34033e-05 1.34033e-05
          1.34033e-05 1.34033e-05 1.34033e-05 1.34033e-05 1.34033e-05 1.34033e-05 1.34033e-05 1.34033e-05 1.34032e-05 1.34032e-05 1.34032e-05 1.34032e-05
          1.34032e-05 1.34032e-05 1.34032e-05 1.34032e-05 1.34032e-05 1.34032e-05 1.34032e-05 1.34032e-05 1.34032e-05 1.34032e-05 1.34032e-05 1.34032e-05
          1.35736e-05 1.35656e-05 1.35597e-05 1.35551e-05 1.35512e-05 1.35479e-05 1.35449e-05 1.35423e-05 1.37826e-05 1.37721e-05 1.37648e-05 1.37591e-05
          1.37544e-05 1.37503e-05 1.37466e-05 1.37432e-05
        </DataArray>
        <DataArray type="Float32" Name="X^Air_liq" NumberOfComponents="1" format="ascii">
          2.15464e-05 2.15464e-05 2.15464e-05 2.15464e-05 2.15464e-05 2.15464e-05 2.15464e-05 2.15464e-05 2.15462e-05 2.15462e-05 2.15462e-05 2.15462e-05
          2.15462e-05 2.15462e-05 2.15462e-05 2.15462e-05 2.15461e-05 2.15461e-05 2.15461e-05 2.15461e-05 2.15461e-05 2.15461e-05 2.15461e-05 2.15461e-05
          2.1546e-05 2.1546e-05 2.1546e-05 2.1546e-05 2.1546e-05 2.1546e-05 2.1546e-05 2.1546e-05 2.1546e-05 2.1546e-05 2.1546e-05 2.1546e-05
          2.1546e-05 2.1546e-05 2.1546e-05 2.1546e-05 2.15459e-05 2.15459e-05 2.15459e-05 2.15459e-05 2.15459e-05 2.15459e-05 2.15459e-05 2.15459e-05
          2.18197e-05 2.18069e-05 2.17974e-05 2.179e-05 2.17838e-05 2.17784e-05 2.17736e-05 2.17694e-05 2.21546e-05 2.21379e-05 2.21263e-05 2.21173e-05
          2.21097e-05 2.21031e-05 2.20973e-05 2.20919e-05
        </DataArray>
        <DataArray type="Float32" Name="rhoMolar_liq" NumberOfComponents="1" format="ascii">
          55344.6 55344.6 55344.6 55344.6 55344.6 55344.6 55344.6 55344.6 55344.6 55344.6 55344.6 55344.6
          55344.6 55344.6 55344.6 55344.6 55344.6 55344.6 55344.6 55344.6 55344.6 55344.6 55344.6 55344.6
          55344.6 55344.6 55344.6 55344.6 55344.6 55344.6 55344.6 55344.6 55344.6 55344.6 55344.6 55344.6
          55344.6 55344.6 55344.6 55344.6 55344.6 55344.6 55344.6 55344.6 55344.6 55344.6 55344.6 55344.6
          55344.5 55344.5 55344.5 55344.5 55344.5 55344.5 55344.5 55344.5 55344.5 55344.5 55344.5 55344.5
          55344.5 55344.5 55344.5 55344.5
        </DataArray>
        <DataArray type="Float32" Name="x^H2O_gas" NumberOfComponents="1" format="ascii">
          0.0317389 0.0317389 0.0317389 0.0317389 0.0317389 0.0317389 0.0317389 0.0317389 0.0317391 0.0317391 0.0317391 0.0317391
          0.0317391 0.0317391 0.0317391 0.0317391 0.0317393 0.0317393 0.0317393 0.0317393 0.0317393 0.0317393 0.0317393 0.0317393
          0.0317394 0.0317394 0.0317394 0.0317394 0.0317394 0.0317394 0.0317394 0.0317394 0.0317395 0.0317395 0.0317395 0.0317395
          0.0317395 0.0317395 0.0317395 0.0317395 0.0317396 0.0317396 0.0317396 0.0317396 0.0317396 0.0317396 0.0317396 0.0317396
          0.0194289 0.0200062 0.0204322 0.0207665 0.0210457 0.0212877 0.0215032 0.0216932 0.00433175 0.00509267 0.00561598 0.00602624
          0.00636922 0.00666657 0.0069316 0.00717533
        </DataArray>
        <DataArray type="Float32" Name="X^H2O_gas" NumberOfComponents="1" format="ascii">
          0.0199835 0.0199835 0.0199835 0.0199835 0.0199835 0.0199835 0.0199835 0.0199835 0.0199837 0.0199837 0.0199837 0.0199837
          0.0199837 0.0199837 0.0199837 0.0199837 0.0199838 0.0199838 0.0199838 0.0199838 0.0199838 0.0199838 0.0199838 0.0199838
          0.0199839 0.0199839 0.0199839 0.0199839 0.0199839 0.0199839 0.0199839 0.0199839 0.0199839 0.0199839 0.0199839 0.0199839
          0.0199839 0.0199839 0.0199839 0.0199839 0.019984 0.019984 0.019984 0.019984 0.019984 0.019984 0.019984 0.019984
          0.0121755 0.0125401 0.0128092 0.0130204 0.0131969 0.0133499 0.0134861 0.0136063 0.00269907 0.00317411 0.00350097 0.00375731
          0.00397167 0.00415756 0.00432327 0.0044757
        </DataArray>
        <DataArray type="Float32" Name="x^Air_gas" NumberOfComponents="1" format="ascii">
          0.968261 0.968261 0.968261 0.968261 0.968261 0.968261 0.968261 0.968261 0.968261 0.968261 0.968261 0.968261
          0.968261 0.968261 0.968261 0.968261 0.968261 0.968261 0.968261 0.968261 0.968261 0.968261 0.968261 0.968261
          0.968261 0.968261 0.968261 0.968261 0.968261 0.968261 0.968261 0.968261 0.96826 0.96826 0.96826 0.96826
          0.96826 0.96826 0.96826 0.96826 0.96826 0.96826 0.96826 0.96826 0.96826 0.96826 0.96826 0.96826
          0.980571 0.979994 0.979568 0.979234 0.978954 0.978712 0.978497 0.978307 0.995668 0.994907 0.994384 0.993974
          0.993631 0.993333 0.993068 0.992825
        </DataArray>
        <DataArray type="Float32" Name="X^Air_gas" NumberOfComponents="1" format="ascii">
          0.980016 0.980016 0.980016 0.980016 0.980016 0.980016 0.980016 0.980016 0.980016 0.980016 0.980016 0.980016
          0.980016 0.980016 0.980016 0.980016 0.980016 0.980016 0.980016 0.980016 0.980016 0.980016 0.980016 0.980016
          0.980016 0.980016 0.980016 0.980016 0.980016 0.980016 0.980016 0.980016 0.980016 0.980016 0.980016 0.980016
          0.980016 0.980016 0.980016 0.980016 0.980016 0.980016 0.980016 0.980016 0.980016 0.980016 0.980016 0.980016
          0.987824 0.98746 0.987191 0.98698 0.986803 0.98665 0.986514 0.986394 0.997301 0.996826 0.996499 0.996243
          0.996028 0.995842 0.995677 0.995524
        </DataArray>
        <DataArray type="Float32" Name="rhoMolar_gas" NumberOfComponents="1" format="ascii">
          40.3425 40.3425 40.3425 40.3425 40.3425 40.3425 40.3425 40.3425 40.3422 40.3422 40.3422 40.3422
          40.3422 40.3422 40.3422 40.3422 40.342 40.342 40.342 40.342 40.342 40.342 40.342 40.342
          40.3418 40.3418 40.3418 40.3418 40.3418 40.3418 40.3418 40.3418 40.3417 40.3417 40.3417 40.3417
          40.3417 40.3417 40.3417 40.3417 40.3417 40.3417 40.3417 40.3417 40.3417 40.3417 40.3417 40.3417
          40.3403 40.3403 40.3404 40.3404 40.3404 40.3405 40.3405 40.3405 40.3395 40.3396 40.3396 40.3396
          40.3396 40.3396 40.3396 40.3396
        </DataArray>
        <DataArray type="Float32" Name="phase presence" NumberOfComponents="1" format="ascii">
          3 3 3 3 3 3 3 3 3 3 3 3
          3 3 3 3 3 3 3 3 3 3 3 3
          3 3 3 3 3 3 3 3 3 3 3 3
          3 3 3 3 3 3 3 3 3 3 3 3
          2 2 2 2 2 2 2 2 2 2 2 2
          2 2 2 2
        </DataArray>
        <DataArray type="Float32" Name="process rank" NumberOfComponents="1" format="ascii">
          0 0 0 0 0 0 0 0 0 0 0 0
          0 0 0 0 0 0 0 0 0 0 0 0
          0 0 0 0 0 0 0 0 0 0 0 0
          0 0 0 0 0 0 0 0 0 0 0 0
          0 0 0 0 0 0 0 0 0 0 0 0
          0 0 0 0
        </DataArray>
      </CellData>
      <Points>
        <DataArray type="Float32" Name="Coordinates" NumberOfComponents="3" format="ascii">
          0 0 0 0.03125 0 0 0 0.0867169 0 0.03125 0.0867169 0
          0.0625 0 0 0.0625 0.0867169 0 0.09375 0 0 0.09375 0.0867169 0
          0.125 0 0 0.125 0.0867169 0 0.15625 0 0 0.15625 0.0867169 0
          0.1875 0 0 0.1875 0.0867169 0 0.21875 0 0 0.21875 0.0867169 0
          0.25 0 0 0.25 0.0867169 0 0 0.144528 0 0.03125 0.144528 0
          0.0625 0.144528 0 0.09375 0.144528 0 0.125 0.144528 0 0.15625 0.144528 0
          0.1875 0.144528 0 0.21875 0.144528 0 0.25 0.144528 0 0 0.183069 0
          0.03125 0.183069 0 0.0625 0.183069 0 0.09375 0.183069 0 0.125 0.183069 0
          0.15625 0.183069 0 0.1875 0.183069 0 0.21875 0.183069 0 0.25 0.183069 0
          0 0.208763 0 0.03125 0.208763 0 0.0625 0.208763 0 0.09375 0.208763 0
          0.125 0.208763 0 0.15625 0.208763 0 0.1875 0.208763 0 0.21875 0.208763 0
          0.25 0.208763 0 0 0.225892 0 0.03125 0.225892 0 0.0625 0.225892 0
          0.09375 0.225892 0 0.125 0.225892 0 0.15625 0.225892 0 0.1875 0.225892 0
          0.21875 0.225892 0 0.25 0.225892 0 0 0.237312 0 0.03125 0.237312 0
          0.0625 0.237312 0 0.09375 0.237312 0 0.125 0.237312 0 0.15625 0.237312 0
          0.1875 0.237312 0 0.21875 0.237312 0 0.25 0.237312 0 0 0.244925 0
          0.03125 0.244925 0 0.0625 0.244925 0 0.09375 0.244925 0 0.125 0.244925 0
          0.15625 0.244925 0 0.1875 0.244925 0 0.21875 0.244925 0 0.25 0.244925 0
          0 0.25 0 0.03125 0.25 0 0.0625 0.25 0 0.09375 0.25 0
          0.125 0.25 0 0.15625 0.25 0 0.1875 0.25 0 0.21875 0.25 0
          0.25 0.25 0
        </DataArray>
      </Points>
      <Cells>
        <DataArray type="Int32" Name="connectivity" NumberOfComponents="1" format="ascii">
          0 1 3 2 1 4 5 3 4 6 7 5
          6 8 9 7 8 10 11 9 10 12 13 11
          12 14 15 13 14 16 17 15 2 3 19 18
          3 5 20 19 5 7 21 20 7 9 22 21
          9 11 23 22 11 13 24 23 13 15 25 24
          15 17 26 25 18 19 28 27 19 20 29 28
          20 21 30 29 21 22 31 30 22 23 32 31
          23 24 33 32 24 25 34 33 25 26 35 34
          27 28 37 36 28 29 38 37 29 30 39 38
          30 31 40 39 31 32 41 40 32 33 42 41
          33 34 43 42 34 35 44 43 36 37 46 45
          37 38 47 46 38 39 48 47 39 40 49 48
          40 41 50 49 41 42 51 50 42 43 52 51
          43 44 53 52 45 46 55 54 46 47 56 55
          47 48 57 56 48 49 58 57 49 50 59 58
          50 51 60 59 51 52 61 60 52 53 62 61
          54 55 64 63 55 56 65 64 56 57 66 65
          57 58 67 66 58 59 68 67 59 60 69 68
          60 61 70 69 61 62 71 70 63 64 73 72
          64 65 74 73 65 66 75 74 66 67 76 75
          67 68 77 76 68 69 78 77 69 70 79 78
          70 71 80 79
        </DataArray>
        <DataArray type="Int32" Name="offsets" NumberOfComponents="1" format="ascii">
          4 8 12 16 20 24 28 32 36 40 44 48
          52 56 60 64 68 72 76 80 84 88 92 96
          100 104 108 112 116 120 124 128 132 136 140 144
          148 152 156 160 164 168 172 176 180 184 188 192
          196 200 204 208 212 216 220 224 228 232 236 240
          244 248 252 256
        </DataArray>
        <DataArray type="UInt8" Name="types" NumberOfComponents="1" format="ascii">
          9 9 9 9 9 9 9 9 9 9 9 9
          9 9 9 9 9 9 9 9 9 9 9 9
          9 9 9 9 9 9 9 9 9 9 9 9
          9 9 9 9 9 9 9 9 9 9 9 9
          9 9 9 9 9 9 9 9 9 9 9 9
          9 9 9 9
        </DataArray>
      </Cells>
    </Piece>
  </UnstructuredGrid>
</VTKFile>
