<?xml version="1.0"?>
<VTKFile type="UnstructuredGrid" version="0.1" byte_order="LittleEndian">
  <UnstructuredGrid>
    <Piece NumberOfCells="1928" NumberOfPoints="5784">
      <PointData Scalars="x^tracer_0">
        <DataArray type="Float32" Name="x^tracer_0" NumberOfComponents="1" format="ascii">
          0 0 0 0 0 0 0 0 0 0 0 0
          0 0 0 0 0 0 0 0 0 0 0 0
          0 0 0 0 0 0 0 0 0 0 0 0
          0 0 0 0 0 0 0 0 0 0 0 0
          0 0 0 0 0 0 0 0 0 0 0 0
          0 0 0 0 0 0 0 0 0 0 0 0
          0 0 0 0 0 0 0 0 0 0 0 0
          0 0 0 0 0 0 0 0 0 0 0 0
          0 0 0 0 0 0 0 0 0 0 0 0
          0 0 0 0 0 0 0 0 0 0 0 0
          0 0 0 0 0 0 0 0 0 0 0 0
          0 0 0 0 0 0 0 0 0 0 0 0
          0 0 0 0 0 0 0 0 0 0 0 0
          0 0 0 0 0 0 0 0 0 0 0 0
          0 0 0 0 0 0 0 0 0 0 0 0
          0 0 0 0 0 0 0 0 0 0 0 0
          0 0 0 0 0 0 0 0 0 0 0 0
          0 0 0 0 0 0 0 0 0 0 0 0
          0 0 0 0 0 0 0 0 0 0 0 0
          0 0 0 0 0 0 0 0 0 0 0 0
          0 0 0 0 0 0 0 0 0 0 0 0
          0 0 0 0 0 0 0 0 0 0 0 0
          0 0 0 0 0 0 0 0 0 0 0 0
          0 0 0 0 0 0 0 0 0 0 0 0
          0 0 0 0 0 0 0 0 0 0 0 0
          0 0 0 0 0 0 0 0 0 0 0 0
          0 0 0 0 0 0 0 0 0 0 0 0
          0 0 0 0 0 0 0 0 0 0 0 0
          0 0 0 0 0 0 0 0 0 0 0 0
          0 -0 0 0 0 0 0 0 0 0 0 0
          0 0 0 0 -0 0 -0 0 0 0 0 0
          0 -0 0 0 -0 -0 0 -0 -0 0 0 -0
          -0 -0 -0 0 0 0 0 0 0 0 0 -0
          0 0 0 0 0 0 0 0 0 -0 0 -0
          -0 0 0 -0 -0 -0 -0 -0 -0 -0 0 -0
          -0 -0 -0 -0 -0 -0 -0 -0 -0 -0 -0 -0
          -0 -0 0 -0 0 0 0 0 -0 0 0 0
          0 0 0 0 0 0 0 0 0 0 0 0
          0 0 0 -0 -0 0 0 0 -0 -0 -0 0
          0 0 0 0 0 0 0 0 0 0 0 0
          0 0 0 0 0 0 0 0 0 0 0 0
          0 0 0 0 0 0 0 0 0 0 0 0
          -0 0 -0 -0 -0 -0 -0 -0 -0 0 -0 -0
          -0 -0 0 -0 -0 -0 0 0 0 0 0 0
          0 0 0 0 0 0 0 0 0 0 0 0
          -0 -0 -0 -0 -0 0 0 0 0 0 -0 0
          0 0 -0 0 0 0 0 -0 -0 0 -0 0
          0 0 0 0 -0 -0 0 0 0 0 0 0
          0 0 0 0 0 0 -0 0 0 0 0 -0
          0 0 0 0 0 0 0 0 0 0 0 0
          0 0 0 0 0 0 0 0 0 0 0 0
          0 0 0 0 0 0 0 0 0 0 0 0
          0 0 0 0 0 0 0 0 0 0 0 0
          0 0 0 0 0 0 0 0 0 0 0 0
          0 0 0 0 0 0 0 0 0 0 0 0
          0 0 0 0 0 0 0 0 0 0 0 0
          0 0 0 0 0 0 0 0 0 0 0 0
          0 0 0 0 0 0 -0 0 0 0 -0 0
          0 0 0 4.00773e-38 0 0 0 0 0 0 4.00773e-38 -3.55827e-37
          -7.42245e-35 -3.55827e-37 4.00773e-38 -1.27953e-37 0 0 -1.27953e-37 0 0 0 0 0
          0 0 0 0 0 -1.27953e-37 1.29482e-32 0 -1.27953e-37 2.05759e-35 0 0
          0 1.29482e-32 2.05759e-35 0 0 0 8.75451e-37 0 0 8.75451e-37 0 0
          0 -3.55827e-37 8.75451e-37 8.75451e-37 -3.55827e-37 4.47975e-34 0 0 0 0 0 8.75451e-37
          0 0 1.20074e-38 8.75451e-37 1.75737e-36 0 1.75737e-36 2.28148e-38 0 0 2.28148e-38 1.20074e-38
          -3.55827e-37 -7.42245e-35 4.47975e-34 1.45625e-31 4.47975e-34 -7.42245e-35 4.47975e-34 1.75737e-36 8.75451e-37 4.47975e-34 2.20329e-35 1.75737e-36
          4.47975e-34 1.45625e-31 3.80312e-33 3.80312e-33 2.20329e-35 4.47975e-34 4.29131e-36 2.28148e-38 1.75737e-36 1.75737e-36 2.20329e-35 4.29131e-36
          1.20074e-38 2.28148e-38 4.29131e-36 2.20329e-35 1.31272e-33 4.29131e-36 1.31272e-33 2.20329e-35 3.80312e-33 4.80457e-36 4.29131e-36 1.31272e-33
          0 0 0 0 0 0 0 0 0 0 0 0
          0 0 0 0 0 0 0 0 0 0 0 0
          0 0 0 0 0 0 0 0 0 0 0 0
          0 0 0 0 0 0 0 0 0 0 0 0
          2.13603e-33 2.05759e-35 1.29482e-32 1.45625e-31 9.81097e-31 3.80312e-33 3.4245e-31 3.80312e-33 9.81097e-31 0 0 0
          0 0 0 6.70084e-30 2.59161e-28 6.0416e-31 2.59161e-28 1.08168e-29 6.0416e-31 3.80312e-33 3.4245e-31 1.31272e-33
          1.01216e-31 1.31272e-33 3.4245e-31 1.31272e-33 5.48988e-34 4.80457e-36 1.31272e-33 1.01216e-31 5.48988e-34 6.0416e-31 1.08168e-29 2.81079e-31
          0 0 0 0 0 0 7.74388e-27 1.08168e-29 2.59161e-28 0 0 0
          0 0 0 0 0 0 7.74388e-27 3.1445e-25 2.90325e-28 2.81079e-31 1.08168e-29 2.90325e-28
          2.90325e-28 1.08168e-29 7.74388e-27 2.90325e-28 8.1838e-31 2.81079e-31 3.1445e-25 2.33443e-26 2.90325e-28 5.94123e-28 8.1838e-31 2.90325e-28
          2.90325e-28 2.33443e-26 5.94123e-28 0 0 0 0 0 0 0 0 0
          0 0 0 0 0 0 0 0 0 0 0 0
          0 0 0 0 0 0 0 0 0 0 0 0
          0 0 0 0 0 0 0 0 0 0 0 0
          0 0 0 0 0 0 0 0 0 0 0 0
          0 0 0 0 0 0 0 0 0 0 0 0
          0 0 0 0 0 0 0 0 0 0 0 0
          0 0 0 0 0 0 0 0 0 0 0 0
          0 0 0 0 0 0 0 0 0 0 0 0
          0 0 0 0 0 0 0 0 0 0 0 0
          0 0 0 0 0 0 0 0 0 0 0 0
          0 0 0 0 0 0 0 0 0 0 0 0
          0 0 0 0 0 0 0 0 0 0 0 0
          0 0 0 0 0 0 0 0 0 0 0 0
          0 0 0 1.81262e-08 0 0 1.81262e-08 0 0 0 1.9421e-07 1.81262e-08
          1.81262e-08 0 0 0 0 1.81262e-08 0 0 0 0 0 0
          0 0 0 0 0 0 0.0904693 0 0 0 0.00430195 0
          0.00430195 0.0673932 0 0.00115516 0.00430195 0 0.00115516 0.00716968 0.00430195 0.00430195 0.00716968 0.0819086
          0 0.0673932 0.0904693 0.0819086 0.0673932 0.00430195 0.227662 0.0673932 0.0819086 0.227662 0.0904693 0.0673932
          0 0 0 0 0 0.0904693 0.0904693 0.169957 0 0 0 0.169957
          0 0 0 0 0 0 0.169957 0.0473865 0 0 0 0.0473865
          0.169957 0.0904693 0.227662 0.227662 0.252219 0.169957 0.252219 0.175517 0.169957 0.169957 0.175517 0.0473865
          0.175517 0.0736143 0.0473865 0.0736143 0.175517 0.143598 0.0736143 0.0216603 0.0473865 0.00716968 0.00115516 0.00320539
          0.0819086 0.00716968 0.0254174 0.0254174 0.00716968 0.00320539 0.00320539 0.0103355 0.0254174 0.0819086 0.108648 0.226396
          0.0819086 0.226396 0.227662 0.0254174 0.108648 0.0819086 0.0254174 0.0500119 0.108648 0.199213 0.226396 0.108648
          0.108648 0.126594 0.199213 0.00320539 0.00291938 0.0103355 4.1309e-07 7.95226e-05 1.49882e-05 0.0103355 0.0500119 0.0254174
          7.95226e-05 1.94407e-06 0.000303125 6.4539e-08 4.1309e-07 1.49882e-05 4.1309e-07 1.94407e-06 7.95226e-05 9.68691e-09 1.94407e-06 4.1309e-07
          0.126594 0.108648 0.0500119 0.000303125 1.94407e-06 2.45432e-06 0.000465468 0.000303125 2.45432e-06 2.45432e-06 1.94407e-06 9.68691e-09
          0.000465468 2.45432e-06 2.39337e-06 2.39337e-06 2.45432e-06 9.37303e-09 0.252219 0.227662 0.226396 0.252219 0.226396 0.199213
          0.199213 0.185878 0.252219 0.252219 0.143598 0.175517 0.252219 0.185878 0.143598 0.164957 0.199213 0.126594
          0.199213 0.164957 0.185878 0.143598 0.185878 0.126972 0.126972 0.185878 0.164957 0.143598 0.0472834 0.0736143
          0.0736143 0.0472834 0.0164868 0.126972 0.0692121 0.143598 0.0692121 0.0472834 0.143598 0.0189324 0.0472834 0.0692121
          0.00040673 2.37767e-06 0.000216753 2.39337e-06 0.000660212 0.000465468 2.39337e-06 4.71204e-06 0.000660212 0.000578253 0.000660212 4.71204e-06
          0.000578253 4.71204e-06 2.48065e-06 2.48065e-06 4.71204e-06 1.70717e-08 1.70717e-08 4.71204e-06 2.39337e-06 2.48065e-06 0.00040673 0.000578253
          2.48065e-06 2.37767e-06 0.00040673 1.70717e-08 7.05429e-09 2.48065e-06 1.09023e-08 2.37767e-06 2.48065e-06 2.48065e-06 7.05429e-09 1.09023e-08
          0 0 0 0.0473865 0.00619311 0 0 0.00619311 0 0.00619311 0.000989855 0
          0 0 3.48265e-06 3.48265e-06 0 0.000989855 0.0473865 0.0216603 0.00619311 0.00619311 0.0216603 0.00445592
          0.00619311 0.00445592 0.000989855 0.0164868 0.0216603 0.0736143 0.00445592 0.0216603 0.0164868 0.0164868 0.00233724 0.00445592
          0.000989855 0.000106516 3.48265e-06 0.000106516 0.000989855 0.000546992 0.000546992 0.000989855 0.00445592 0.00445592 0.00233724 0.000546992
          0.000546992 4.53276e-05 0.000106516 3.48265e-06 1.9421e-07 0 1.81262e-08 1.9421e-07 1.26701e-06 1.26701e-06 1.9421e-07 3.48265e-06
          1.26701e-06 3.48265e-06 0.000106516 1.26701e-06 2.57904e-07 1.81262e-08 5.05872e-10 0 1.81262e-08 5.05872e-10 0 0
          5.05872e-10 9.78713e-13 0 0.000106516 9.53605e-06 1.26701e-06 0.000106516 4.53276e-05 9.53605e-06 4.53276e-05 3.95639e-06 9.53605e-06
          9.53605e-06 3.95639e-06 6.86846e-07 4.62936e-07 2.57904e-07 1.26701e-06 1.26701e-06 9.53605e-06 4.62936e-07 8.07231e-11 9.78713e-13 5.05872e-10
          8.07231e-11 8.5749e-14 9.78713e-13 9.53605e-06 6.86846e-07 4.62936e-07 4.62936e-07 6.86846e-07 4.67291e-08 8.5749e-14 8.07231e-11 6.20418e-07
          6.20418e-07 4.55604e-09 8.5749e-14 0.0164868 0.0472834 0.0189324 0.00489052 0.00233724 0.0164868 0.00054978 0.00233724 0.00489052
          0.0164868 0.0189324 0.00489052 9.16055e-05 0.000216753 5.83672e-07 0.000546992 0.00233724 0.00054978 0.000546992 0.000100263 4.53276e-05
          0.00054978 0.000100263 0.000546992 3.54129e-07 5.5421e-05 9.16055e-05 2.22959e-07 5.5421e-05 3.54129e-07 5.5421e-05 2.22959e-07 2.07613e-05
          2.07613e-05 2.22959e-07 3.6384e-08 0.000216753 2.37767e-06 5.83672e-07 5.83672e-07 2.37767e-06 1.09023e-08 3.54129e-07 9.16055e-05 5.83672e-07
          2.07398e-09 3.54129e-07 5.83672e-07 5.83672e-07 1.09023e-08 8.68849e-10 8.68849e-10 2.07398e-09 5.83672e-07 1.2275e-09 3.54129e-07 2.07398e-09
          1.2275e-09 2.22959e-07 3.54129e-07 2.22959e-07 1.2275e-09 3.6384e-08 8.68849e-10 4.80264e-12 2.07398e-09 2.07398e-09 4.80264e-12 5.72465e-12
          2.07398e-09 5.72465e-12 1.2275e-09 5.72465e-12 1.73098e-11 1.2275e-09 4.53276e-05 9.57716e-06 3.95639e-06 0.000100263 9.57716e-06 4.53276e-05
          4.64546e-07 3.95639e-06 9.57716e-06 3.95639e-06 4.64546e-07 6.86846e-07 8.2168e-06 3.06281e-08 3.97559e-06 3.6384e-08 8.2168e-06 2.07613e-05
          3.6384e-08 3.06281e-08 8.2168e-06 1.2387e-10 3.06281e-08 3.6384e-08 8.01728e-09 3.06281e-08 1.2387e-10 4.67291e-08 6.86846e-07 4.64546e-07
          1.63433e-08 3.97559e-06 8.01728e-09 8.01728e-09 3.97559e-06 3.06281e-08 8.01728e-09 6.78355e-11 1.63433e-08 1.2387e-10 1.15878e-11 8.01728e-09
          1.15878e-11 6.78355e-11 8.01728e-09 1.91035e-06 6.35549e-07 6.83657e-09 3.6384e-08 1.2275e-09 1.73098e-11 3.6384e-08 1.73098e-11 4.96506e-11
          4.96506e-11 1.2387e-10 3.6384e-08 1.2387e-10 4.96506e-11 2.20383e-13 2.37713e-14 1.73098e-11 5.72465e-12 4.96506e-11 1.73098e-11 2.37713e-14
          4.96506e-11 2.37713e-14 6.25557e-14 6.25557e-14 2.20383e-13 4.96506e-11 2.20383e-13 1.15878e-11 1.2387e-10 2.20383e-13 6.47671e-14 1.15878e-11
          6.78355e-11 1.15878e-11 6.47671e-14 6.35549e-07 1.2069e-07 2.08316e-09 7.82738e-16 6.47671e-14 2.20383e-13 2.08316e-09 1.2069e-07 6.17388e-09
          3.28259e-16 7.82738e-16 2.20383e-13 0 0 0 0 0 0 0 0 0
          0 0 0 0 0 0 0 0 0 0 0 0
          0 0 0 0 0 0 0 0 0 0 0 0
          0 0 0 0 0 0 0 0 0 0 0 0
          0 0 0 0 0 0 0 0 0 0 0 0
          0 0 0 0 0 0 0 0 0 0 0 0
          0 0 0 0 0 0 0 0 0 0 0 0
          0 0 0 0 0 0 0 0 0 0 0 0
          0 0 0 0 0 0 0 0 0 0 0 0
          0 0 0 0 0 0 0 0 0 0 0 0
          0 0 0 0 0 0 0 0 0 0 0 0
          0 0 0 0 0 0 0 0 0 0 0 0
          0 0 0 0 0 0 0 0 0 0 0 0
          0 0 0 0 0 0 0 0 0 0 0 0
          0 0 0 0 0 0 0 0 0 0 0 0
          0 0 0 0 0 0 0 0 0 0 0 0
          0 0 0 0 0 0 0 0 0 0 0 0
          0 0 0 0 0 0 0 0 0 0 0 0
          0 0 0 0 0 0 1.41173e-23 2.33443e-26 3.1445e-25 7.6655e-25 2.33443e-26 1.41173e-23
          5.94123e-28 2.33443e-26 7.6655e-25 7.6655e-25 1.9046e-27 5.94123e-28 7.6655e-25 1.41173e-23 6.03262e-22 0 0 0
          6.03262e-22 4.91163e-23 7.6655e-25 7.6655e-25 4.91163e-23 1.04933e-24 0 0 0 0 0 0
          0 0 0 0 0 0 0 0 0 0 0 0
          0 0 0 0 0 0 0 0 0 0 0 5.53747e-36
          2.29226e-20 4.91163e-23 6.03262e-22 1.17429e-21 4.91163e-23 2.29226e-20 0 5.53747e-36 0 5.53747e-36 0 1.93434e-32
          2.29226e-20 7.35985e-19 1.17429e-21 0 0 0 0 0 0 0 0 2.45703e-38
          0 0 0 0 0 0 0 0 0 0 0 0
          0 0 0 0 0 0 0 0 2.45703e-38 2.26604e-35 0 0
          2.45703e-38 0 2.26604e-35 2.45703e-38 2.26604e-35 6.14849e-37 2.45703e-38 0 0 0 2.45703e-38 0
          0 0 0 6.14849e-37 0 2.45703e-38 0 0 0 0 0 0
          0 0 0 0 0 0 0 0 0 0 0 0
          0 0 0 0 0 0 0 0 0 0 0 0
          0 1.93434e-32 0 2.10813e-29 1.93434e-32 0 7.35985e-19 3.61737e-17 7.18825e-20 2.10813e-29 0 0
          0 0 0 0 0 0 0 0 0 0 0 0
          0 0 0 0 0 0 0 0 0 0 3.3815e-25 2.10813e-29
          0 0 3.3815e-25 0 0 0 0 0 0 3.3815e-25 0 4.71907e-21
          0 4.93134e-19 0 0 4.93134e-19 4.71907e-21 0 0 0 0 0 0
          0 0 4.22929e-16 0 0 0 0 0 0 0 0 0
          0 8.97134e-19 0 0 9.78713e-13 4.22929e-16 4.22929e-16 9.78713e-13 8.5749e-14 4.22929e-16 8.97134e-19 0
          4.22929e-16 8.5749e-14 3.50024e-16 8.5749e-14 4.55604e-09 3.50024e-16 3.50024e-16 8.97134e-19 4.22929e-16 8.97134e-19 6.88204e-21 0
          0 6.88204e-21 1.22528e-23 1.86903e-18 6.88204e-21 8.97134e-19 3.50024e-16 1.86903e-18 8.97134e-19 6.7856e-21 6.88204e-21 1.86903e-18
          1.22528e-23 6.88204e-21 6.7856e-21 0 0 0 0 0 0 0 0 0
          0 1.22528e-23 0 0 7.32342e-26 9.39202e-29 0 0 1.93032e-32 9.39202e-29 0 0
          1.93032e-32 0 9.39202e-29 9.39202e-29 4.85807e-31 1.93032e-32 1.22528e-23 7.32342e-26 0 3.14101e-23 7.32342e-26 1.22528e-23
          6.7856e-21 3.14101e-23 1.22528e-23 9.67206e-08 2.24305e-07 8.64419e-10 9.01745e-26 7.32342e-26 3.14101e-23 5.48791e-08 9.67206e-08 3.62396e-10
          9.39202e-29 7.32342e-26 9.01745e-26 9.01745e-26 2.51668e-28 9.39202e-29 2.51668e-28 4.85807e-31 9.39202e-29 3.36506e-08 5.48791e-08 3.47398e-10
          9.74679e-09 3.36506e-08 2.25935e-10 3.47398e-10 2.25935e-10 3.36506e-08 6.83657e-09 5.78142e-07 1.91035e-06 5.78142e-07 6.83657e-09 2.65172e-09
          2.65172e-09 7.41404e-07 5.78142e-07 2.08316e-09 6.83657e-09 6.35549e-07 6.83657e-09 4.25324e-11 2.65172e-09 2.65172e-09 4.25324e-11 7.31924e-12
          2.46704e-07 7.41404e-07 2.65172e-09 2.65172e-09 5.9106e-10 2.46704e-07 2.46704e-07 1.40507e-09 2.24305e-07 5.9106e-10 1.40507e-09 2.46704e-07
          7.31924e-12 5.9106e-10 2.65172e-09 5.9106e-10 7.31924e-12 1.96685e-12 5.67765e-12 1.40507e-09 5.9106e-10 5.9106e-10 1.96685e-12 5.67765e-12
          2.08316e-09 4.25324e-11 6.83657e-09 7.31924e-12 4.25324e-11 8.72031e-12 8.72031e-12 4.25324e-11 2.08316e-09 6.17388e-09 3.99359e-11 2.08316e-09
          2.08316e-09 3.99359e-11 8.72031e-12 6.17388e-09 2.65188e-11 3.99359e-11 8.72031e-12 3.99359e-11 2.49417e-13 4.54164e-14 7.31924e-12 8.72031e-12
          4.54164e-14 1.96685e-12 7.31924e-12 5.67765e-12 1.96685e-12 1.56239e-14 1.56239e-14 1.96685e-12 4.54164e-14 4.54164e-14 8.72031e-12 2.49417e-13
          2.49417e-13 1.47432e-15 4.54164e-14 4.54164e-14 2.04346e-16 1.56239e-14 1.47432e-15 2.04346e-16 4.54164e-14 2.24305e-07 1.40507e-09 8.64419e-10
          9.67206e-08 8.64419e-10 3.62396e-10 8.64419e-10 3.83245e-12 3.62396e-10 8.64419e-10 1.40507e-09 5.67765e-12 5.67765e-12 3.83245e-12 8.64419e-10
          2.61995e-14 3.83245e-12 5.67765e-12 3.62396e-10 3.83245e-12 6.03428e-13 3.62396e-10 3.47398e-10 5.48791e-08 3.62396e-10 3.24625e-12 3.47398e-10
          2.25935e-10 3.47398e-10 1.96779e-12 2.85713e-11 2.25935e-10 1.96779e-12 3.47398e-10 3.24625e-12 1.96779e-12 6.03428e-13 3.24625e-12 3.62396e-10
          6.03428e-13 2.21495e-14 3.24625e-12 1.96779e-12 3.24625e-12 2.21495e-14 6.44821e-14 1.96779e-12 2.21495e-14 5.67765e-12 1.56239e-14 2.61995e-14
          3.83245e-12 2.61995e-14 6.03428e-13 2.61995e-14 5.31096e-16 6.03428e-13 1.56239e-14 2.04346e-16 9.06783e-17 2.61995e-14 1.56239e-14 9.06783e-17
          9.06783e-17 5.31096e-16 2.61995e-14 5.31096e-16 9.06783e-17 1.17416e-18 1.17416e-18 7.83802e-16 5.31096e-16 1.6652e-15 2.21495e-14 6.03428e-13
          6.44821e-14 2.21495e-14 1.6652e-15 6.03428e-13 5.31096e-16 7.83802e-16 6.03428e-13 7.83802e-16 2.01183e-15 2.01183e-15 1.6652e-15 6.03428e-13
          1.34179e-17 1.6652e-15 2.01183e-15 1.93032e-32 2.26604e-35 0 2.26604e-35 1.93032e-32 5.71173e-34 5.71173e-34 6.14849e-37 2.26604e-35
          1.93032e-32 4.85807e-31 5.71173e-34 5.71173e-34 2.51255e-36 6.14849e-37 0 6.14849e-37 0 0 0 0
          2.51255e-36 0 6.14849e-37 0 2.51255e-36 7.19049e-37 0 0 0 7.19049e-37 0 0
          5.71173e-34 4.85807e-31 4.32995e-31 4.32995e-31 4.85807e-31 2.51668e-28 5.71173e-34 4.32995e-31 8.74587e-34 8.74587e-34 2.51255e-36 5.71173e-34
          9.74679e-09 2.25935e-10 2.85713e-11 2.85713e-11 5.83017e-11 9.74679e-09 5.83017e-11 7.27579e-09 9.74679e-09 2.51255e-36 8.74587e-34 7.19049e-37
          7.27579e-09 4.65679e-11 2.74969e-09 0 0 7.19049e-37 8.82409e-10 2.74969e-09 9.06797e-12 4.65679e-11 7.27579e-09 5.83017e-11
          3.53122e-13 4.65679e-11 5.83017e-11 9.06797e-12 2.74969e-09 4.65679e-11 9.06797e-12 4.65679e-11 3.53122e-13 0 0 0
          0 0 0 0 0 0 0 0 0 0 0 0
          0 0 0 0 0 0 0 0 0 0 0 0
          0 0 0 4.75725e-16 0 0 4.75725e-16 4.93134e-19 0 5.72243e-18 4.93134e-19 4.75725e-16
          4.75725e-16 0 0 0 0 0 0 1.19869e-12 4.75725e-16 0 0 0
          8.82409e-10 3.79058e-12 2.71955e-10 2.71955e-10 3.79058e-12 6.14127e-13 3.79058e-12 8.82409e-10 9.06797e-12 3.22854e-14 3.79058e-12 9.06797e-12
          6.14127e-13 3.79058e-12 3.22854e-14 6.14127e-13 8.11025e-11 2.71955e-10 6.14127e-13 2.70523e-13 8.11025e-11 8.11025e-11 2.70523e-13 2.62439e-11
          2.62439e-11 2.70523e-13 4.85479e-14 6.14127e-13 2.02001e-15 1.27197e-15 1.27197e-15 2.70523e-13 6.14127e-13 4.85479e-14 2.70523e-13 1.27197e-15
          2.85713e-11 2.916e-13 5.83017e-11 3.53122e-13 5.83017e-11 2.916e-13 2.85713e-11 1.96779e-12 6.44821e-14 2.916e-13 2.85713e-11 6.44821e-14
          2.916e-13 1.57711e-15 2.09174e-15 6.44821e-14 1.57711e-15 2.916e-13 2.916e-13 2.09174e-15 3.53122e-13 3.53122e-13 3.10508e-14 9.06797e-12
          3.10508e-14 3.53122e-13 2.09174e-15 1.57711e-15 1.43036e-17 2.09174e-15 2.09174e-15 1.45686e-16 3.10508e-14 7.99634e-18 1.45686e-16 2.09174e-15
          2.08768e-16 6.44821e-14 1.6652e-15 2.08768e-16 1.57711e-15 6.44821e-14 1.43036e-17 1.57711e-15 2.08768e-16 6.84194e-19 1.43036e-17 2.08768e-16
          1.6652e-15 1.34179e-17 2.08768e-16 2.08768e-16 1.23693e-18 6.84194e-19 1.34179e-17 1.23693e-18 2.08768e-16 6.84194e-19 1.23693e-18 6.05546e-21
          2.09174e-15 1.43036e-17 7.99634e-18 7.99634e-18 1.43036e-17 6.84194e-19 9.47415e-19 1.45686e-16 7.99634e-18 9.47415e-19 7.99634e-18 3.86452e-20
          6.84194e-19 3.86452e-20 7.99634e-18 6.84194e-19 4.16476e-21 3.86452e-20 3.86452e-20 4.16476e-21 1.26129e-22 9.06797e-12 3.10508e-14 3.22854e-14
          3.10508e-14 1.92574e-16 3.22854e-14 3.22854e-14 2.03699e-15 6.14127e-13 1.92574e-16 1.05834e-16 3.22854e-14 1.05834e-16 2.03699e-15 3.22854e-14
          3.10508e-14 1.45686e-16 1.92574e-16 1.92574e-16 1.45686e-16 9.47415e-19 1.92574e-16 9.47415e-19 8.03149e-19 1.92574e-16 8.03149e-19 1.05834e-16
          3.21057e-19 1.05834e-16 8.03149e-19 6.14127e-13 2.03699e-15 2.02001e-15 8.57185e-18 2.03699e-15 1.05834e-16 8.57185e-18 2.02001e-15 2.03699e-15
          1.27197e-15 2.02001e-15 5.49638e-18 5.49638e-18 2.02001e-15 8.57185e-18 1.05834e-16 3.21057e-19 8.57185e-18 2.31594e-20 8.57185e-18 3.21057e-19
          5.49638e-18 8.57185e-18 2.31594e-20 2.31594e-20 4.06825e-20 5.49638e-18 3.86452e-20 4.76668e-21 9.47415e-19 8.03149e-19 9.47415e-19 4.76668e-21
          8.03149e-19 4.76668e-21 2.7479e-21 3.21057e-19 8.03149e-19 2.7479e-21 4.76668e-21 3.86452e-20 1.26129e-22 1.26129e-22 2.72715e-23 4.76668e-21
          4.76668e-21 2.72715e-23 2.7479e-21 2.7479e-21 2.72715e-23 8.79055e-24 3.21057e-19 1.47399e-21 2.31594e-20 2.7479e-21 1.47399e-21 3.21057e-19
          1.47399e-21 9.77519e-23 2.31594e-20 2.31594e-20 9.77519e-23 9.30434e-21 1.08173e-23 1.47399e-21 2.7479e-21 8.79055e-24 1.08173e-23 2.7479e-21
          1.08173e-23 9.77519e-23 1.47399e-21 7.4021e-23 9.77519e-23 1.08173e-23 9.30434e-21 9.77519e-23 7.4021e-23 0 0 0
          0 0 0 0 0 0 0 0 0 0 0 0
          0 0 0 0 0 0 0 0 0 0 0 0
          0 0 0 8.71071e-37 0 0 0 8.71071e-37 0 2.69273e-36 0 8.71071e-37
          0 0 0 0 0 0 0 0 0 0 0 0
          0 0 0 0 0 0 0 0 0 4.87276e-38 0 0
          0 4.87276e-38 6.03697e-37 6.22893e-34 8.71071e-37 0 8.71071e-37 6.22893e-34 3.01909e-33 0 0 6.03697e-37
          0 6.03697e-37 6.22893e-34 0 2.69273e-36 0 2.69273e-36 0 0 5.64284e-33 0 2.69273e-36
          2.69273e-36 6.25683e-33 5.64284e-33 4.54689e-35 0 5.64284e-33 4.54689e-35 5.64284e-33 8.57419e-31 8.71071e-37 3.01909e-33 2.69273e-36
          3.01909e-33 6.25683e-33 2.69273e-36 8.91345e-30 6.25683e-33 3.01909e-33 3.01909e-33 6.22893e-34 1.82205e-30 8.91345e-30 3.01909e-33 1.82205e-30
          5.64284e-33 6.25683e-33 8.91345e-30 8.57419e-31 5.64284e-33 8.91345e-30 8.57419e-31 8.91345e-30 1.30713e-27 0 0 1.20074e-38
          4.87276e-38 0 1.20074e-38 1.20074e-38 1.72879e-37 4.87276e-38 6.03697e-37 4.87276e-38 1.91986e-34 4.87276e-38 1.72879e-37 1.91986e-34
          4.29131e-36 4.80457e-36 1.20074e-38 4.80457e-36 1.72879e-37 1.20074e-38 4.80457e-36 5.64883e-35 1.72879e-37 1.91986e-34 1.72879e-37 5.64883e-35
          5.64883e-35 6.35255e-32 1.91986e-34 1.91986e-34 2.33737e-31 6.03697e-37 6.22893e-34 6.03697e-37 2.33737e-31 6.22893e-34 2.33737e-31 1.82205e-30
          1.91986e-34 1.2266e-31 2.33737e-31 1.91986e-34 6.35255e-32 1.2266e-31 2.33737e-31 1.2266e-31 4.92144e-28 5.64883e-35 4.80457e-36 5.48988e-34
          5.64883e-35 5.48988e-34 1.62447e-32 1.62447e-32 5.48988e-34 1.01216e-31 2.81079e-31 8.1838e-31 1.705e-33 2.36206e-33 5.64883e-35 1.62447e-32
          2.36206e-33 6.35255e-32 5.64883e-35 1.705e-33 8.1838e-31 1.46824e-30 1.705e-33 1.46824e-30 1.43028e-33 8.1838e-31 5.94123e-28 1.46824e-30
          1.52181e-30 1.43028e-33 1.46824e-30 1.2266e-31 6.35255e-32 2.5778e-29 4.92144e-28 1.2266e-31 2.5778e-29 2.5778e-29 6.35255e-32 2.36206e-33
          1.43028e-33 1.52181e-30 7.36602e-34 1.52181e-30 2.80681e-31 7.36602e-34 2.5778e-29 3.53135e-26 4.92144e-28 9.8703e-35 7.36602e-34 2.80681e-31
          8.91345e-30 1.82205e-30 4.2966e-27 1.82205e-30 2.33737e-31 4.92144e-28 1.82205e-30 4.92144e-28 4.2966e-27 4.2966e-27 1.30713e-27 8.91345e-30
          1.2292e-24 1.30713e-27 4.2966e-27 4.92144e-28 6.84491e-25 4.2966e-27 4.92144e-28 3.53135e-26 6.84491e-25 5.53957e-23 6.84491e-25 3.53135e-26
          4.2966e-27 6.84491e-25 1.2292e-24 6.84491e-25 5.53957e-23 1.2292e-24 5.94123e-28 1.9046e-27 1.46824e-30 1.46824e-30 1.9046e-27 2.25559e-27
          1.04933e-24 1.9046e-27 7.6655e-25 2.25559e-27 1.9046e-27 1.04933e-24 1.46824e-30 2.25559e-27 1.52181e-30 7.69482e-28 1.52181e-30 2.25559e-27
          1.04933e-24 4.91163e-23 1.17429e-21 2.34196e-24 1.04933e-24 1.17429e-21 1.04933e-24 2.34196e-24 2.25559e-27 2.2881e-22 2.34196e-24 1.17429e-21
          2.25559e-27 2.34196e-24 9.69604e-25 2.25559e-27 9.69604e-25 7.69482e-28 9.69604e-25 2.34196e-24 2.2881e-22 7.69482e-28 2.80681e-31 1.52181e-30
          7.73402e-30 2.80681e-31 7.69482e-28 2.80681e-31 7.73402e-30 9.8703e-35 1.58218e-26 7.69482e-28 9.69604e-25 7.69482e-28 1.58218e-26 7.73402e-30
          9.69604e-25 1.03878e-23 1.58218e-26 1.39283e-24 7.73402e-30 1.58218e-26 7.73402e-30 1.39283e-24 5.02004e-24 1.58218e-26 6.15529e-22 1.39283e-24
          7.18825e-20 1.17429e-21 7.35985e-19 1.17429e-21 7.18825e-20 2.2881e-22 2.2881e-22 7.18825e-20 1.11091e-19 3.61737e-17 4.0378e-18 7.18825e-20
          7.18825e-20 4.0378e-18 1.11091e-19 1.26817e-15 4.0378e-18 3.61737e-17 9.69604e-25 2.2881e-22 1.28272e-21 2.2881e-22 1.11091e-19 1.28272e-21
          1.28272e-21 1.03878e-23 9.69604e-25 1.28272e-21 1.11091e-19 9.1094e-19 7.84793e-21 1.03878e-23 1.28272e-21 9.1094e-19 7.84793e-21 1.28272e-21
          6.37232e-17 4.0378e-18 1.26817e-15 1.26817e-15 3.84901e-14 6.37232e-17 1.11091e-19 4.0378e-18 6.37232e-17 1.11091e-19 6.37232e-17 9.1094e-19
          3.84901e-14 2.72207e-15 6.37232e-17 1.02198e-12 2.72207e-15 3.84901e-14 6.37232e-17 2.72207e-15 2.13299e-17 3.9211e-18 7.84793e-21 9.1094e-19
          6.37232e-17 2.13299e-17 9.1094e-19 9.1094e-19 2.13299e-17 9.01249e-16 9.1094e-19 9.01249e-16 3.9211e-18 6.15529e-22 1.03878e-23 7.84793e-21
          6.15529e-22 1.58218e-26 1.03878e-23 7.84793e-21 5.03219e-19 6.15529e-22 3.65917e-21 1.39283e-24 6.15529e-22 5.03219e-19 6.85997e-21 6.15529e-22
          6.15529e-22 6.85997e-21 3.65917e-21 3.65917e-21 6.85997e-21 1.24176e-18 7.84793e-21 3.9211e-18 5.03219e-19 9.01249e-16 6.85929e-16 3.9211e-18
          1.47239e-16 5.03219e-19 3.9211e-18 3.9211e-18 6.85929e-16 1.47239e-16 1.24176e-18 6.85997e-21 5.03219e-19 1.24176e-18 5.03219e-19 1.47239e-16
          1.47239e-16 1.295e-16 1.24176e-18 1.24176e-18 1.295e-16 4.21852e-17 9.8703e-35 7.73402e-30 5.02004e-24 9.8703e-35 5.02004e-24 5.53957e-23
          5.02004e-24 1.39283e-24 3.65917e-21 5.53957e-23 5.02004e-24 6.70606e-20 1.2292e-24 5.53957e-23 1.27712e-22 5.53957e-23 6.70606e-20 4.34319e-21
          4.34319e-21 1.27712e-22 5.53957e-23 3.65917e-21 4.08874e-21 5.02004e-24 3.65917e-21 4.79035e-19 4.08874e-21 5.02004e-24 4.08874e-21 6.70606e-20
          6.70606e-20 4.08874e-21 1.2226e-17 1.24176e-18 4.79035e-19 3.65917e-21 1.24176e-18 4.21852e-17 4.79035e-19 4.08874e-21 4.79035e-19 1.2226e-17
          4.79035e-19 1.97694e-17 1.2226e-17 4.21852e-17 1.97694e-17 4.79035e-19 4.21852e-17 4.32631e-16 1.97694e-17 6.70606e-20 1.2226e-17 4.14032e-19
          1.2226e-17 1.97694e-17 6.18896e-16 1.2226e-17 6.18896e-16 2.4119e-17 1.2226e-17 2.4119e-17 4.14032e-19 4.14032e-19 4.34319e-21 6.70606e-20
          1.27712e-22 4.34319e-21 9.12352e-21 4.34319e-21 4.14032e-19 9.12352e-21 4.71907e-21 4.93134e-19 5.72243e-18 2.72207e-15 1.02198e-12 8.16087e-15
          2.13299e-17 2.72207e-15 8.16087e-15 2.71396e-15 5.72243e-18 4.75725e-16 4.75725e-16 1.19869e-12 2.71396e-15 3.74403e-12 8.16087e-15 1.02198e-12
          1.4905e-12 8.16087e-15 3.74403e-12 8.16087e-15 4.07536e-15 2.13299e-17 2.13299e-17 4.07536e-15 9.01249e-16 9.01249e-16 4.07536e-15 4.57782e-13
          9.01249e-16 4.57782e-13 1.41256e-13 8.16087e-15 1.4905e-12 4.07536e-15 4.57782e-13 4.07536e-15 1.4905e-12 1.02292e-12 1.78871e-12 1.30647e-14
          1.00404e-14 4.81024e-13 1.02292e-12 6.96016e-14 2.62439e-11 4.85479e-14 4.85479e-14 1.67622e-16 6.96016e-14 1.78871e-12 3.94979e-12 1.53565e-12
          1.27197e-15 8.66229e-17 4.85479e-14 4.85479e-14 8.66229e-17 1.67622e-16 3.81162e-18 8.66229e-17 1.27197e-15 1.67622e-16 8.66229e-17 9.71682e-15
          1.30647e-14 1.53565e-12 5.29341e-13 9.71682e-15 8.66229e-17 3.81162e-18 1.53565e-12 1.30647e-14 1.78871e-12 1.30647e-14 1.00404e-14 1.02292e-12
          1.30647e-14 1.78748e-16 1.00404e-14 5.29341e-13 4.09602e-15 1.30647e-14 4.09602e-15 1.78748e-16 1.30647e-14 2.98691e-17 1.78748e-16 4.09602e-15
          1.41256e-13 6.85929e-16 9.01249e-16 3.84041e-14 6.85929e-16 1.41256e-13 1.47239e-16 6.85929e-16 3.84041e-14 1.00404e-14 6.65604e-15 4.81024e-13
          4.81024e-13 6.65604e-15 1.18944e-13 1.18944e-13 6.65604e-15 1.27586e-15 1.47239e-16 1.10554e-14 1.295e-16 3.84041e-14 1.10554e-14 1.47239e-16
          3.92187e-15 1.295e-16 1.10554e-14 4.21852e-17 1.295e-16 3.92187e-15 2.78939e-14 1.18944e-13 1.27586e-15 1.27586e-15 5.5475e-16 2.78939e-14
          2.78939e-14 5.5475e-16 5.84434e-15 1.1127e-16 6.65604e-15 1.00404e-14 1.1127e-16 1.00404e-14 1.78748e-16 1.27586e-15 6.65604e-15 1.1127e-16
          1.1127e-16 1.64401e-17 1.27586e-15 1.1127e-16 1.78748e-16 2.98691e-17 1.1127e-16 2.98691e-17 1.22809e-18 1.22809e-18 1.64401e-17 1.1127e-16
          1.27586e-15 1.64401e-17 1.55207e-17 1.55207e-17 5.5475e-16 1.27586e-15 9.21752e-17 5.5475e-16 1.55207e-17 1.55207e-17 1.64401e-17 2.12173e-19
          1.27197e-15 5.49638e-18 3.81162e-18 3.81162e-18 5.49638e-18 4.06825e-20 9.71682e-15 3.81162e-18 2.55963e-17 2.55963e-17 1.86571e-14 9.71682e-15
          4.06825e-20 2.55963e-17 3.81162e-18 4.06825e-20 8.25456e-20 3.27842e-17 1.86571e-14 2.55963e-17 3.27842e-17 3.27842e-17 2.55963e-17 4.06825e-20
          5.29341e-13 1.73101e-13 4.09602e-15 1.73101e-13 2.57253e-15 4.09602e-15 4.09602e-15 6.74053e-17 2.98691e-17 4.09602e-15 2.57253e-15 6.74053e-17
          2.87649e-14 2.57253e-15 1.73101e-13 3.27842e-17 3.81116e-15 1.86571e-14 2.77976e-16 6.74053e-17 2.57253e-15 2.77976e-16 2.57253e-15 2.87649e-14
          2.31594e-20 8.25456e-20 4.06825e-20 9.30434e-21 8.25456e-20 2.31594e-20 8.50523e-18 8.25456e-20 9.30434e-21 3.27842e-17 8.25456e-20 8.50523e-18
          3.81116e-15 3.27842e-17 8.50523e-18 9.30434e-21 2.99157e-20 8.50523e-18 7.4021e-23 2.99157e-20 9.30434e-21 2.99157e-20 6.12827e-20 8.50523e-18
          8.50523e-18 6.12827e-20 6.03394e-18 2.77976e-16 2.87649e-14 3.99665e-15 8.50523e-18 9.21625e-16 3.81116e-15 3.99665e-15 7.0294e-17 2.77976e-16
          8.50523e-18 6.03394e-18 9.21625e-16 9.21625e-16 6.03394e-18 2.17533e-16 5.48089e-16 7.0294e-17 3.99665e-15 2.98691e-17 6.74053e-17 2.99464e-18
          1.22809e-18 2.98691e-17 2.99464e-18 2.99464e-18 6.74053e-17 2.77976e-16 2.99464e-18 5.31377e-20 1.22809e-18 5.31377e-20 2.99464e-18 2.65722e-18
          2.12173e-19 1.64401e-17 1.22809e-18 2.12173e-19 1.22809e-18 5.31377e-20 1.55207e-17 2.12173e-19 1.44498e-19 2.12173e-19 2.53842e-21 1.44498e-19
          5.31377e-20 2.53842e-21 2.12173e-19 2.99464e-18 2.77976e-16 2.65722e-18 2.77976e-16 7.0294e-17 2.65722e-18 2.65722e-18 7.0294e-17 8.43056e-18
          2.65722e-18 1.68928e-19 1.98783e-20 8.43056e-18 1.68928e-19 2.65722e-18 1.98783e-20 2.53842e-21 5.31377e-20 1.98783e-20 5.31377e-20 2.65722e-18
          4.32631e-16 4.21852e-17 3.92187e-15 9.21752e-17 8.88086e-16 5.84434e-15 6.18896e-16 1.97694e-17 4.32631e-16 8.88086e-16 6.24489e-17 6.18896e-16
          5.84434e-15 5.5475e-16 9.21752e-17 9.21752e-17 6.24489e-17 8.88086e-16 2.33564e-18 6.24489e-17 9.21752e-17 2.4119e-17 6.18896e-16 6.24489e-17
          2.4119e-17 6.24489e-17 2.33564e-18 2.07973e-19 2.4119e-17 2.33564e-18 1.55207e-17 2.00147e-18 9.21752e-17 9.21752e-17 2.00147e-18 2.33564e-18
          1.44498e-19 2.00147e-18 1.55207e-17 4.70426e-20 2.00147e-18 1.44498e-19 2.07973e-19 2.33564e-18 4.70426e-20 2.33564e-18 2.00147e-18 4.70426e-20
          4.14032e-19 2.4119e-17 2.07973e-19 9.12352e-21 4.14032e-19 2.07973e-19 2.07973e-19 4.70426e-20 3.1275e-22 9.12352e-21 2.07973e-19 2.849e-21