<?xml version="1.0"?>
<VTKFile type="UnstructuredGrid" version="0.1" byte_order="LittleEndian">
  <UnstructuredGrid>
    <Piece NumberOfCells="7334" NumberOfPoints="3794">
      <PointData Scalars="vertexData">
        <DataArray type="Float32" Name="vertexData" NumberOfComponents="1" format="ascii">
          3427 95 3426 3424 3634 3635 98 3493 96 1085 1084 531
          529 3425 3242 3494 3491 3492 97 3520 3521 8 3472 186
          1216 1088 122 1086 3490 3241 1087 3546 3547 305 3213 530
          3243 187 1215 1264 1217 1213 3471 89 3470 3473 3526 88
          3527 842 2932 2929 3343 3344 3341 3342 1 3444 1345 129
          2933 837 2931 3757 2930 871 2862 1342 1344 1346 1322 64
          1323 3214 1326 1325 1263 557 2683 549 1267 1214 1265 543
          550 2044 1324 120 2682 2684 3548 1990 556 2681 2555 1266
          544 2042 2043 3631 2299 542 2300 547 992 3159 3210 3161
          3158 3160 3209 838 1343 841 3579 2644 2646 2413 3630 545
          2772 872 993 995 994 2773 2775 3230 839 2645 3232 840
          2710 3442 3443 0 3481 87 3482 3712 3711 3480 1622 128
          1433 843 23 1623 2046 22 2047 1038 1037 1625 844 2045
          1039 846 2863 1434 1430 1432 2411 1431 849 1624 845 3301
          3288 3300 262 85 1809 1035 86 1810 2679 1807 1036 260
          1808 84 2680 2677 3271 3270 258 2678 1174 3289 3287 3713
          2319 261 1897 1898 239 3719 1173 3011 3181 2414 2412 3180
          3479 2318 847 3059 1778 850 1180 1779 1182 1179 263 1239
          1181 3060 2320 1896 1899 1240 1895 246 259 3012 3010 1698
          3717 240 1242 3246 1241 3247 244 1697 1699 1696 1695 3293
          3292 1989 1993 94 1991 1992 2557 1120 1121 548 991 1123
          1122 2139 895 3568 3569 2556 558 2623 108 2626 3628 3454
          2624 1119 185 2138 553 3455 2973 2974 546 2774 554 2137
          2888 2890 3231 2711 1777 417 3670 2889 2104 851 3629 2621
          1328 552 1327 2106 535 2107 2105 1477 536 3632 1392 890
          2625 1391 889 1395 92 1393 3261 3403 3263 555 1310 3404
          1309 551 1311 1394 3566 888 3262 891 3567 109 1471 1472
          3269 3402 892 1307 3576 3268 1579 1308 541 1331 1329 2622
          1330 537 2620 1476 1479 1478 534 1455 434 3129 2994 2993
          2178 2992 2991 1456 1454 3659 435 251 1178 1776 2089 252
          2570 848 2092 2090 2572 2118 2509 2510 873 2448 984 250
          2091 249 2571 248 3391 3716 1238 245 3244 3245 2120 2119
          3726 243 1794 3718 2892 242 3197 1795 2893 2891 2117 225
          1798 3725 2515 1797 256 1796 3198 2171 257 1142 2450 983
          985 981 2449 436 3660 3264 982 874 3392 2516 247 2327
          2247 1452 437 3266 2328 1453 3265 878 2329 2246 2248 1740
          876 2245 2244 2517 2334 255 3714 253 2335 812 2337 2170
          2172 1141 1143 1353 813 1140 2333 2336 3715 3315 254 2701
          1352 1356 1354 810 1355 2659 809 2544 83 2545 20 2546
          3722 2543 3723 238 1175 228 2844 21 1260 1261 81 1262
          1258 2846 773 1259 772 1177 1176 230 2725 2724 2845 3128
          1520 792 3127 791 2 2199 2200 2198 3788 3787 3518 1517
          138 3785 3784 3 3515 2971 82 3519 3517 771 2869 1521
          1518 3786 1519 2731 784 3516 774 3588 2868 2729 2870 2479
          2661 232 2478 3721 2481 2480 2662 3177 2664 793 3176 2885
          231 1788 233 1787 1790 1789 2663 2887 790 1543 2144 787
          2886 1542 3585 3249 2730 3248 3586 2732 1821 775 1281 783
          1280 785 3185 1544 1540 3186 1822 1820 782 1819 2972 2970
          80 2615 1533 1534 1535 764 2616 140 3783 3782 5 1531
          4 3118 3119 3115 1532 139 3117 2614 2613 2867 3589 762
          2568 3317 3435 761 3318 766 3116 79 27 1975 1976 1974
          1972 3710 2801 1973 264 3727 26 3728 1825 1826 1823 1350
          24 223 1824 224 1349 2802 2723 2722 2800 265 2721 1965
          1966 1439 266 1963 1441 282 2368 763 2369 1282 1278 2370
          2569 1057 1056 765 1058 1054 1279 2039 768 879 1584 2041
          2040 1582 2567 767 1055 3777 1586 148 1588 290 1941 2958
          1943 1942 1962 1964 1270 304 1961 1545 1245 291 1244 1247
          303 1246 2579 2578 241 1786 227 2146 1710 1709 786 2145
          1712 1711 3196 3469 3468 3724 3033 226 236 2182 237 1443
          1442 781 1446 1541 135 2593 2518 136 1581 3789 2352 2350
          779 2519 2520 2033 2238 134 2353 2351 137 1923 776 1139
          3034 2181 2183 808 3032 235 234 1444 1628 1629 1445 770
          2657 3720 2658 2469 2470 807 1627 1626 769 3190 2747 2034
          2240 2031 2032 1926 1927 1924 1925 777 819 2239 3189 2267
          2268 820 2990 2024 2021 2023 2022 1583 2038 778 2670 1585
          2671 1587 1547 147 2669 3778 1954 2953 2951 3776 150 2952
          780 2443 3779 2441 1953 294 1956 1955 2444 149 1483 1480
          292 1548 1243 1546 295 1939 214 215 3736 1683 1940 1867
          1868 1682 2446 1684 2445 293 1563 216 1607 217 1866 1608
          2326 3587 2988 2634 2442 788 2635 717 1484 1481 1482 2632
          718 2882 2989 2633 3019 817 712 3018 3179 3178 2880 3598
          880 2707 714 3474 2986 3705 1566 2881 302 1567 1564 1565
          2242 2243 299 1206 1609 296 2325 269 2241 1805 1205 710
          2987 1804 1806 300 1803 1207 1203 2771 2770 1204 301 2354
          267 1475 887 2490 1474 1473 894 1580 1578 1145 893 93
          3633 2716 2489 2492 2715 532 2718 2491 1144 1148 525 1146
          2180 538 2179 2177 2371 3657 539 2184 2187 2188 2185 3084
          438 2374 439 3098 2373 2372 422 2186 540 3086 2840 2843
          3085 121 2717 942 2911 533 941 2910 1367 518 1147 421
          1368 2027 2025 945 63 943 3413 1370 944 2638 520 3412
          519 1371 524 2026 1369 2499 419 2500 3097 3666 3476 431
          3324 3323 3478 2841 2842 3661 3477 3662 433 2848 1396 420
          2876 1400 1397 2879 3254 432 2847 3255 2877 3253 3252 441
          3333 3658 3334 1739 877 2584 1741 1742 3663 875 1738 430
          1828 2583 2585 429 495 2036 979 428 2004 1827 1831 2005
          427 1189 494 2700 3316 1829 3314 811 804 2264 2266 2265
          2219 2997 806 1830 3667 2218 2550 1190 2549 805 2995 2221
          3791 2220 1256 978 2037 980 976 2849 977 487 2035 1192
          1188 3664 493 1919 1191 1748 488 1749 2457 1752 490 1918
          1922 1920 1861 489 1921 2688 497 499 2287 1255 800 2921
          1257 2288 2289 2687 1293 870 1253 1254 868 2641 123 2639
          3522 2804 2640 3545 526 2883 523 3636 2805 521 1399 2498
          2806 2803 426 3665 3544 1420 100 1421 1424 2884 1156 1157
          522 1835 1836 1158 1837 1154 424 2878 444 1398 2209 3251
          3250 3267 440 3656 2924 2923 2925 2211 423 3218 425 2210
          3219 443 2115 1389 2114 445 1423 902 1422 1599 898 107
          1598 1601 1600 1155 1764 896 3139 1766 3140 1763 3571 901
          3570 1994 3575 3024 3057 899 897 1765 2935 2934 469 2912
          3094 446 447 2116 1782 2113 3095 467 1785 1762 2914 2913
          3654 3093 1502 470 3483 3092 465 3215 1784 1751 442 1750
          1860 3655 1386 1862 1858 2314 2312 1390 492 1388 1387 2685
          1859 496 2313 2686 2611 2612 500 3641 1297 1630 498 1296
          1294 2109 503 1436 2108 1633 1295 504 1632 1631 2376 1438
          869 2864 1435 1437 2629 491 3642 2427 1783 909 2429 2315
          913 2206 2317 2205 2208 907 2316 2428 3217 3216 908 3573
          912 1469 1072 911 2375 2207 3640 506 974 502 971 2627
          2628 975 973 456 910 2903 2904 1069 1073 1071 2590 501
          972 505 2692 3467 2691 2591 2304 458 455 2996 2468 803
          3126 1186 1183 1184 1187 2748 131 2918 2922 130 833 1185
          2746 1004 2217 1003 824 1005 825 3582 3485 818 1314 3486
          1313 1316 816 1816 1315 2279 2821 826 1312 1001 2822 3009
          815 2278 814 2956 2957 2954 3583 2920 2919 3792 132 3385
          2216 2215 834 1002 133 3790 2792 831 2795 3441 3387 3386
          2865 2415 799 3131 3132 798 2793 2794 3133 3130 3538 2819
          2820 3580 3008 830 829 2955 821 3581 3164 3163 2812 832
          2810 2813 3537 2811 827 2365 3162 3597 3151 2472 828 3448
          1817 789 3774 2706 1818 1605 154 2709 2708 3475 713 2705
          153 1910 1604 1815 1606 1602 823 3149 1603 152 1064 1913
          2894 1914 1911 151 1912 716 2985 711 2169 2167 3513 3512
          3773 2168 2355 1772 155 1132 156 1775 2636 709 1529 2637
          1530 1526 1131 1133 1129 1774 157 1130 158 3150 3775 1067
          1068 3152 822 2598 1066 1065 1952 1951 415 1754 750 715
          2599 1753 2597 3449 3671 412 1756 3596 1755 1416 2165 1528
          1527 749 2825 755 2067 2068 1656 1657 2066 756 1655 2826
          2823 3592 2697 2824 751 2696 2699 2698 2745 754 1886 2866
          801 1872 2418 1871 795 2416 794 3400 2417 3205 797 3401
          802 1873 1869 1870 3668 2330 796 2332 3206 1905 860 3202
          3399 3584 836 3203 2366 2367 3204 2364 2363 2473 3450 2471
          835 1719 3153 229 2949 127 2946 3793 861 2950 1718 1721
          3155 1720 126 929 409 1524 418 1908 2331 1909 2689 3669
          852 1907 1906 3498 3146 854 3497 859 457 2269 2075 2690
          3652 2270 2271 2076 855 2074 3578 1405 853 2258 2260 2948
          2947 3148 863 3007 928 930 926 865 927 2259 3147 3006
          862 3577 866 3388 2618 2619 864 2617 2564 2565 3238 413
          3239 1415 414 2166 1419 1417 1874 752 3154 3237 189 408
          3755 1418 188 3337 1878 1877 3282 3591 3284 753 1615 1616
          1889 1875 3283 3590 760 1614 3121 1617 141 1888 1613 2425
          1522 1525 3336 1523 403 1019 3335 3756 190 3347 410 2673
          1018 1020 404 3349 1016 3348 1876 758 3122 3120 2649 2426
          2548 2424 600 2423 3672 759 2650 2916 411 2648 2917 757
          3617 3507 3509 2647 3221 3220 598 3506 1351 1347 1348 25
          3408 3405 3406 30 3524 3525 284 3407 285 2504 19 3735
          3734 3523 18 3357 218 3358 3356 1440 3706 2507 2508 1271
          283 2506 2505 3730 287 3355 286 2540 3733 3732 3354 1460
          28 1461 1457 288 1459 289 1458 29 2704 2702 2703 6
          3452 7 3453 1089 146 1226 1813 2285 2286 3731 2541 1092
          2284 270 1093 1090 145 1814 1091 738 1811 1812 737 1272
          1268 3707 280 2814 1269 2539 2542 1137 2816 281 1733 1730
          1732 1731 2815 1136 279 3438 271 2872 1138 1134 2945 2249
          2252 2250 2871 2808 735 734 2251 2809 739 1135 272 2272
          274 2275 1987 2273 2807 937 940 3593 733 736 2759 936
          1227 1223 1224 78 2060 2057 2058 1225 560 2059 565 71
          3447 3445 3393 72 3394 3395 91 1969 3446 566 2381 2142
          2140 2214 2212 2141 561 2213 3626 2383 2384 563 2382 2123
          694 1970 75 1971 1967 3600 1968 76 3601 3328 3325 3329
          691 3327 3326 73 3322 2124 3321 3602 695 3561 3560 3361
          3359 113 3362 2839 2838 3320 938 559 3134 3319 3627 701
          2125 562 3141 2122 3142 939 3135 3080 142 2851 3081 1050
          747 693 2359 692 2121 2362 2360 3144 3360 696 3559 3558
          699 2361 698 1053 1051 2766 3145 1304 1305 74 3143 706
          1306 1302 298 1864 1865 2818 2817 3436 3437 222 3499 3417
          297 1028 278 1027 1030 1029 3416 3418 3020 1665 219 1988
          1986 3729 1985 273 2274 3709 221 2527 2525 1550 2526 2762
          2763 2760 2897 742 2761 740 1549 1553 276 3708 220 1552
          1551 1670 3294 3295 1555 1554 720 2290 1558 741 1026 268
          1722 3021 2078 1664 277 2079 275 3083 1724 1725 1949 727
          1723 726 1409 1410 2077 1411 723 2456 1666 1663 719 1673
          2112 1672 1671 1557 2293 721 2291 2784 2111 2110 722 2292
          677 2960 3606 1007 1006 2850 748 2853 1104 1105 3082 1014
          1013 746 564 1015 745 2852 1556 3603 744 1108 1491 1107
          1011 1012 1106 704 1669 2764 1052 700 2765 697 3599 1413
          1303 1414 112 1412 1364 2229 2227 3014 2228 883 2742 3013
          705 2743 1365 1366 707 1363 1494 77 1362 684 1493 2783
          1490 1492 743 703 1667 1668 3610 702 3049 3604 683 2085
          1010 2088 2086 1008 3051 3050 663 2087 1893 674 3308 3419
          3306 3307 1497 1498 708 3563 1495 1792 111 1793 1791 881
          3608 2908 882 2528 2529 2909 1496 884 1251 90 2136 1250
          2135 1252 1248 3562 1950 1773 3594 1948 2098 732 1746 728
          2100 1408 1407 2455 3595 729 724 1273 3065 1745 1747 1743
          3772 1653 731 1744 730 2099 3781 3064 3067 1276 3339 143
          3066 2961 1274 1277 2959 676 2832 2833 162 2831 2483 725
          1275 144 2461 2463 3040 161 2749 1654 2020 2019 567 1450
          569 1451 1447 3340 3511 3338 3510 2744 3625 1449 1448 568
          587 2600 2164 584 3302 585 2163 3305 3303 2460 3780 2462
          675 690 3607 2750 2482 2753 2752 3366 2603 2602 3367 2751
          678 679 3605 2496 2497 1009 160 2694 3005 1892 1894 1228
          688 1891 2485 2484 159 2695 685 1229 1929 1231 1232 1375
          1890 2530 2394 670 2395 669 163 2061 2396 2102 1702 885
          1249 1703 110 1701 1700 1928 166 2063 2101 164 1372 2062
          3771 668 1780 2103 886 1768 3565 3564 1769 1771 1767 65
          1770 3466 1574 1573 1577 687 1230 686 1374 2134 1575 2133
          3609 2493 680 1576 2494 2693 2132 689 667 1590 1589 1505
          1506 2402 1376 1373 165 1610 1781 673 1591 1612 628 1644
          3552 1645 3551 672 1647 119 1593 1611 671 1592 665 1679
          1863 1681 1643 627 1646 3550 3549 1465 1466 1462 66 2601
          2162 1887 2502 586 1658 583 3304 1659 3621 579 3112 591
          1661 1662 2501 2503 589 2050 588 2051 1660 3760 2049 2052
          580 582 2605 2604 2280 597 2281 682 2495 2283 2282 2652
          3114 3113 3620 1944 2465 581 1945 2651 1947 1946 596 182
          3761 2547 1903 590 1904 1902 1900 184 2048 2464 1901 3759
          2225 3508 3619 602 2531 599 2431 3758 2224 577 2226 2432
          601 1686 2467 1685 1689 2466 592 3088 3087 2581 594 1687
          1360 1357 1361 578 1688 2222 2660 2537 2538 593 1359 2069
          595 1358 681 2160 2159 666 2161 1507 1639 664 1211 1504
          1638 1642 3766 1210 2158 644 1212 643 171 2155 1208 2157
          2156 1640 1680 639 638 1641 1834 1833 1464 1463 1561 634
          2944 1562 1560 117 1832 3767 1726 636 3035 173 3037 1727
          2943 1559 635 3555 3256 1487 1488 3554 68 2582 2580 1209
          183 2714 640 2154 170 2713 2712 3096 606 3110 3111 3109
          3616 642 1164 641 1728 1729 3036 3768 172 1040 637 2522
          633 1489 1485 1486 1043 1044 1041 1042 632 2521 2524 2523
          3553 118 2575 631 2576 2577 99 1995 1998 1997 3025 900
          3022 3058 1501 3023 3056 510 1996 106 3212 3211 3574 904
          3639 2738 2741 2739 512 1503 1499 3484 1500 464 3236 3235
          468 2926 3047 466 2387 2388 2385 2928 3048 3046 2927 3649
          472 3174 3045 1115 1114 2404 903 1118 905 2406 2405 2737
          2740 516 3637 3638 101 1116 1117 2403 515 1401 517 1404
          2828 2829 2487 2830 2827 1690 528 2386 2193 511 2488 2196
          2197 471 3172 3648 3175 2194 3647 3173 2754 527 2486 2195
          1691 513 3682 514 2081 2755 2080 2447 2084 2082 934 2262
          906 933 935 931 2263 1468 1470 1467 914 918 915 932
          2202 2204 2203 2261 1515 1516 2303 2302 1070 919 1513 2128
          2126 2592 2306 2307 1594 459 2305 460 2127 477 1514 920
          3651 2407 3171 3168 3170 3650 463 917 2201 3572 916 2296
          2980 2298 2297 921 2301 2982 2981 3157 3156 475 1334 473
          1333 474 1336 1335 2148 2147 476 1079 482 1082 1083 1080
          2409 2410 2408 479 3646 478 3169 3002 3528 3645 3529 3001
          3004 2346 3054 2349 2347 3055 480 3102 481 1047 3104 1046
          1049 124 1402 1403 3125 3124 3543 509 3542 1198 3123 508
          3683 360 1694 2963 2964 1693 1692 62 1199 1202 3370 3369
          1201 507 1200 3015 353 3686 2962 358 354 2230 361 2093
          2094 2097 922 2096 2095 2378 370 2083 3681 2377 2380 2379
          3298 3685 1635 356 3684 1637 1851 1636 1853 2338 367 368
          2787 1852 2341 2339 125 3017 997 3501 3016 3500 996 362
          1000 3687 3382 3502 352 2232 2233 1634 3379 359 2231 1620
          103 998 3384 3378 999 45 3383 44 355 3381 3137 3138
          1619 1621 3380 3136 43 1618 52 357 1427 366 2340 369
          2788 2786 2790 1426 1429 1428 48 1425 49 2791 3465 2789
          51 3464 1332 453 958 3299 957 960 454 1081 483 959
          2073 2348 364 956 452 3039 2014 2072 2015 3487 3653 449
          2018 451 3495 485 3489 3053 3644 3052 923 3103 484 1045
          3488 2453 3421 486 2452 3643 2451 2235 2237 2454 924 2234
          2785 3038 363 365 2016 3496 3420 2017 448 3458 450 3463
          3505 3504 46 3503 47 3531 3457 3460 3459 3530 50 3456
          102 3688 3423 3422 3700 925 1100 335 3311 987 988 990
          986 3313 989 1099 1103 1101 3689 41 1102 42 343 3312
          202 3534 3536 3695 3694 3432 40 3535 1595 461 1195 1196
          1597 1194 1197 336 1406 1234 1233 858 1237 1596 462 1193
          1380 1377 1379 856 1235 1236 1378 338 3699 857 2006 2008
          1982 3390 3389 1983 1984 867 3679 2566 374 3200 2563 2562
          3201 372 1981 379 2666 2596 2595 2665 2668 2667 3199 1854
          3430 375 3003 3698 339 2434 2436 2435 337 2007 1511 1508
          378 1959 1048 1960 205 1512 1509 1510 380 2295 195 198
          3749 2594 3750 2674 2676 1856 1855 3100 373 1857 376 3101
          3099 2294 2675 196 961 197 964 965 962 1571 1572 1568
          377 1570 1569 405 2672 3680 3540 3541 3539 3673 1017 406
          1094 3183 1098 1095 3428 371 407 2899 3429 2898 2902 2900
          1097 3184 1096 313 1298 2915 2874 416 314 315 2437 2438
          2149 2150 316 2440 2153 1299 1301 1300 2875 312 2873 212
          2152 2151 2439 210 2344 2345 3747 3296 200 2901 3297 3285
          3286 3182 199 3228 3748 3194 395 3229 2012 201 3193 2780
          397 3195 3191 3240 3227 3072 2777 3071 213 2779 2778 3738
          2776 211 1882 309 3070 2475 3737 3062 2476 3063 1884 1885
          1843 324 1883 350 1957 1958 2236 351 2459 1757 1758 2458
          342 1761 381 2976 2559 349 2975 348 2561 2560 1760 1759
          3697 340 2558 346 3042 3043 963 3291 382 3411 3410 3290
          383 384 2011 2143 1288 1289 385 2130 3409 341 3696 2836
          3451 2837 1291 2835 1292 387 1290 204 2129 3225 2907 2905
          3690 2322 2906 347 2323 2324 3691 3041 3044 345 1126 344
          3434 3433 2321 3693 3431 39 105 3692 37 1125 1128 1127
          2942 1124 38 2939 2940 2834 203 3363 3744 3364 3226 388
          3365 1160 1161 2941 3746 104 3745 13 1163 1162 1159 57
          2013 2009 2782 2010 2131 393 2781 1848 3192 396 2055 3675
          394 2420 2054 1847 1850 1849 386 1846 390 2419 2422 2056
          399 3676 392 2421 311 310 2477 2053 2474 3704 3061 3346
          3345 3224 3223 1932 321 3077 1934 1933 322 3079 2978 3222
          323 3702 3107 3108 1736 1737 389 1800 391 1219 1734 1735
          2631 1931 400 2630 398 1799 1802 1218 3678 3677 55 1801
          56 1222 1220 3281 3279 1221 53 3280 54 320 2977 1930
          3078 208 2979 2397 2398 2967 209 2401 3533 3396 3398 2966
          3532 34 3397 16 2969 2968 2400 2399 2965 17 3740 33
          3739 3618 2533 2534 604 2532 603 2433 3703 2430 2223 3622
          576 2389 2191 2342 317 2392 2393 2343 2391 622 621 2390
          1649 2192 3764 2190 2189 174 1650 574 2174 1652 1651 2176
          575 2071 1339 1340 2070 2175 614 1341 572 2173 1648 2999
          573 3000 3623 1706 1338 1705 1708 1707 3031 319 2536 2535
          1844 318 2719 175 2720 3353 2587 1286 2588 1845 1285 327
          1060 1287 328 177 2589 1283 176 2733 2586 1284 330 3763
          2735 3765 3352 618 2998 613 1704 178 2727 3030 2734 2736
          3368 2726 620 1979 1977 619 1980 1021 2728 3257 1935 181
          2653 180 605 2854 2855 1337 2857 3330 3332 1167 1165 1166
          1110 654 616 2856 615 2938 967 2936 3331 653 1109 1113
          3614 2768 2769 2643 2642 3089 1111 652 3613 1915 630 3091
          2574 67 2573 3090 629 3557 3556 1112 1917 1916 167 1536
          651 3208 2608 2609 116 3207 2610 966 2937 617 970 179
          968 3106 655 2767 1538 3105 3770 168 1152 969 607 2859
          1938 2858 646 2895 1151 2896 2861 2860 647 1153 1539 1537
          169 3373 3769 656 2606 2607 3374 3371 3611 69 948 657
          2551 1149 1150 2554 2552 3372 658 949 3514 947 950 114
          1059 1063 1061 2254 624 2277 2253 2257 325 1062 329 3350
          3351 2276 331 2255 2256 3167 3166 3234 1978 1024 1025 623
          3701 2029 1023 1022 2656 2654 626 2655 3762 610 3187 334
          2030 1168 2028 2983 308 2984 1172 1169 3069 3188 3068 625
          2064 1879 326 3165 3027 3029 332 207 3233 1839 206 3743
          3028 3742 1838 3026 35 3741 1842 1840 15 1841 14 2309
          1171 1170 2310 333 2065 612 1713 1714 1319 191 1717 2311
          1318 1321 2308 36 1317 1320 192 1716 1715 3752 59 3751
          9 3754 3753 1937 1936 3615 608 609 2001 2756 2798 645
          2799 2757 2797 2000 2003 2002 2758 611 1999 570 2513 571
          3624 650 1676 1678 1677 648 2796 2553 3278 662 3276 660
          3376 946 2357 3377 2358 2356 70 3277 3375 649 3612 3310
          3461 3274 953 659 954 661 955 952 1880 1881 3674 2512
          2514 1382 402 2511 1675 194 401 1674 1385 1381 1383 3440
          10 1384 61 3439 3260 3259 3074 3076 3258 60 12 3073
          3309 3462 3273 3075 193 1076 306 3275 115 951 307 3272
          1033 1032 1034 1075 1078 1077 11 1074 58 3415 32 3414
          31 1031
        </DataArray>
      </PointData>
      <Points>
        <DataArray type="Float32" Name="Coordinates" NumberOfComponents="3" format="ascii">
          3.01991 2.4744 0 2.625 0 0 1.3125 0 0 4.48421 1.78732 0
          5.46608 0 0 5.83429 1.14557 0 8.30716 0 0 7.55259 1.6494 0
          0 2.5 0 1.91975 3.83386 0 0 4.56985 0 3.10271 4.819 0
          6.48331 3.53424 0 4.36319 4.27642 0 9.29929 4.15655 0 9.68221 2.0224 0
          10.0573 0 0 11.8196 2.28367 0 11.8075 0 0 14.1047 0 0
          14.2562 2.55185 0 16.4019 0 0 16.72 2.69472 0 11.7153 4.63112 0
          14.3802 5.22899 0 1.58448 5.5097 0 0 6.6397 0 3.09347 6.29641 0
          4.92249 6.34803 0 7.03365 6.23255 0 1.32469 7.33867 0 0 8.63152 0
          0.898607 8.63435 0 2.85486 8.57955 0 5.19966 8.58675 0 7.40406 8.6128 0
          9.49937 6.66279 0 17.3185 5.8214 0 11.8951 7.18724 0 9.76944 9.0748 0
          14.4324 7.84237 0 16.8807 8.51654 0 21.1424 2.11327 0 21.1599 0 0
          18.7809 0 0 19.079 2.333 0 23.4998 0 0 25.8397 0 0
          23.2898 2.30887 0 21.1348 3.75062 0 19.6727 4.52402 0 22.7422 4.4708 0
          25.7748 2.65141 0 28.7994 2.61801 0 29.1207 0 0 31.6066 2.49801 0
          32.4018 0 0 34.0693 2.35868 0 28.6954 5.32264 0 31.4544 5.03936 0
          21.2815 6.07123 0 25.3388 5.69223 0 19.5905 7.56986 0 18.6503 8.86524 0
          23.1207 7.72022 0 21.2444 9.31648 0 34.2573 4.75886 0 32.1537 7.64161 0
          26.8017 8.56371 0 29.4743 8.02174 0 1.37113 9.93287 0 0 10.6233 0
          3.60857 11.1853 0 5.7488 11.0349 0 1.80718 12.0261 0 0 12.9849 0
          7.91961 11.0855 0 4.14438 13.3498 0 6.26737 13.2821 0 12.1351 9.69714 0
          10.0742 11.4485 0 14.5735 10.4367 0 12.2732 12.0634 0 8.44329 13.3684 0
          17.2979 11.3352 0 14.3628 12.6597 0 2.24902 14.0012 0 0 15.3465 0
          4.68555 15.4653 0 6.72672 15.488 0 3.14608 15.4491 0 2.50366 16.8808 0
          4.69936 17.6048 0 8.90365 15.4392 0 7.05033 17.7654 0 10.3347 13.5701 0
          12.2881 14.2734 0 16.4736 13.3759 0 14.131 14.7627 0 10.2632 14.9896 0
          11.5514 15.9595 0 9.9132 17.7004 0 13.3537 16.5304 0 16.1694 15.2685 0
          15.4171 16.9901 0 19.4798 10.5093 0 24.6794 9.85064 0 20.7219 12.3698 0
          18.9114 13.21 0 22.7811 11.2797 0 26.014 11.8389 0 27.8632 10.8665 0
          30.2466 10.559 0 32.9096 10.3208 0 27.1702 13.2181 0 28.6925 13.0631 0
          30.8793 13.0367 0 33.4051 12.9631 0 17.7268 13.9938 0 19.6385 15.0451 0
          21.7151 14.4802 0 24.4022 13.6861 0 17.7953 15.3954 0 17.3596 17.1917 0
          19.5759 17.1982 0 24.4593 16.6701 0 21.9783 16.9252 0 26.8042 14.7523 0
          28.9076 15.2298 0 31.1729 15.5616 0 26.734 17.0632 0 33.6516 15.7733 0
          28.935 17.5772 0 34.197 0 0 36.2165 2.17786 0 35.9922 0 0
          37.6003 0 0 39.2083 0 0 38.2126 1.93414 0 41.3326 1.22913 0
          41.4875 0 0 39.9713 1.63018 0 42.539 2.05721 0 36.7423 4.39608 0
          39.0622 3.92854 0 41.0759 3.26624 0 43.7668 0 0 45.114 2.29868 0
          45.8182 0 0 47.8697 0 0 46.7277 1.96421 0 49.8099 0 0
          48.6301 1.87603 0 43.8535 3.6273 0 45.9934 3.62994 0 47.3485 3.68214 0
          50.585 1.97294 0 49.2397 3.70072 0 34.9141 7.2553 0 40.0547 6.06569 0
          42.3685 5.10333 0 37.6062 6.74739 0 35.6393 9.87335 0 41.1818 8.48348 0
          38.5507 9.25696 0 45.3923 5.04997 0 44.2551 7.38711 0 47.3608 5.58869 0
          49.5172 5.78602 0 47.1852 7.83665 0 49.7445 8.00083 0 51.7502 0 0
          54.0951 0 0 52.6717 2.09541 0 56.44 0 0 54.8605 2.33821 0
          59.7946 0 0 57.3671 2.72123 0 51.2283 3.92032 0 53.3386 4.13255 0
          55.3079 4.53621 0 63.1491 0 0 60.2663 2.77439 0 63.2858 2.84239 0
          65.8274 2.38017 0 65.4393 0 0 57.7599 5.7048 0 60.6176 5.53396 0
          66.6371 4.58809 0 51.609 5.94959 0 53.6241 5.99858 0 54.9916 5.92766 0
          52.0665 8.09344 0 54.2881 7.95533 0 56.0428 7.2482 0 58.8473 8.37179 0
          63.8419 6.03994 0 60.5695 7.51919 0 66.5516 8.04024 0 62.2436 8.65182 0
          41.4981 11.2778 0 36.0146 12.5253 0 38.8197 11.9644 0 44.4332 10.6242 0
          47.1907 10.5586 0 49.9316 10.5119 0 44.4228 13.4544 0 47.2127 13.2616 0
          36.1942 15.3004 0 38.8419 14.7317 0 41.5576 14.0392 0 36.233 17.8276 0
          41.4542 16.7749 0 38.7159 17.3518 0 50.0918 13.1129 0 49.7613 15.8374 0
          44.1518 16.3271 0 46.9921 16.0532 0 52.3721 10.4636 0 54.8332 10.1945 0
          56.855 9.35255 0 52.6572 13.0547 0 57.6969 11.5957 0 55.558 12.979 0
          60.1295 10.875 0 64.565 10.148 0 66.684 11.5744 0 62.7806 12.3257 0
          58.2136 13.2289 0 65.0333 13.5731 0 52.2915 15.7013 0 57.2852 14.5167 0
          54.7037 15.733 0 56.5193 16.4962 0 58.8384 15.5453 0 59.6586 13.5743 0
          61.7119 14.6527 0 60.5712 16.7423 0 63.8372 15.9687 0 66.4399 16.7064 0
          67.243 14.4142 0 0 18.0165 0 2.21132 19.0631 0 0 20.6865 0
          4.43593 19.9384 0 1.90568 21.4165 0 6.75942 20.0497 0 9.11541 20.1862 0
          12.3152 18.4095 0 14.4868 18.8147 0 16.6503 19.1831 0 11.3643 20.4421 0
          13.4604 20.7048 0 15.6308 21.1564 0 4.03879 22.7271 0 0 23.1468 0
          1.38554 22.9655 0 6.43603 22.3089 0 8.43598 22.3751 0 2.25093 24.333 0
          0 25.6071 0 3.61889 25.8831 0 6.54803 23.7834 0 7.94655 24.2953 0
          5.26151 24.746 0 10.5663 22.4679 0 12.5737 22.59 0 14.8372 23.0705 0
          16.8581 23.5005 0 10.1087 24.608 0 12.2565 24.8519 0 14.6564 25.3873 0
          19.1815 19.7493 0 22.163 19.3523 0 24.6354 19.1483 0 17.5753 21.6672 0
          20.5005 22.0224 0 22.9657 21.7334 0 26.7375 19.2533 0 31.1965 17.9636 0
          33.6618 18.2753 0 28.7925 19.8986 0 26.7435 20.8208 0 25.2821 21.4021 0
          31.0162 20.44 0 33.6397 21.1463 0 19.0402 22.6082 0 23.917 24.1568 0
          19.045 24.1349 0 21.1984 24.2087 0 16.9435 25.8705 0 28.2107 21.8069 0
          26.9358 23.8281 0 30.4392 22.4329 0 32.5197 23.0082 0 30.0101 24.4763 0
          32.2582 24.7428 0 33.9507 23.5905 0 2.17772 27.0408 0 6.9379 26.4355 0
          4.78538 27.4125 0 0 27.7248 0 3.40634 27.9459 0 1.73555 28.6783 0
          0 29.8425 0 3.34081 29.4289 0 7.39144 29.1184 0 9.66559 26.817 0
          5.25035 29.3981 0 12.0611 27.1341 0 14.5885 27.7561 0 9.74481 29.2832 0
          12.121 29.6917 0 17.1371 28.3786 0 14.5728 30.3044 0 1.42367 30.5186 0
          0 31.8342 0 3.04166 31.7461 0 5.48377 31.6325 0 7.6968 31.4757 0
          0.959371 31.8265 0 0 33.8259 0 1.45444 33.1267 0 3.80263 34.3596 0
          6.10751 34.0594 0 9.80122 31.5057 0 11.9947 32.1061 0 17.2041 30.9842 0
          9.81937 33.1527 0 8.31865 33.7467 0 11.3382 34.2056 0 14.3778 32.7855 0
          17.0424 33.5584 0 19.4085 26.4318 0 21.9274 26.7396 0 24.701 26.8474 0
          19.7182 28.9822 0 22.476 29.4598 0 25.2616 29.6328 0 27.6979 26.8604 0
          30.5227 26.7449 0 32.86 26.5968 0 28.6778 29.9515 0 31.5229 29.0462 0
          33.848 28.4668 0 19.7243 31.5972 0 25.0414 32.1914 0 22.4784 32.155 0
          19.4963 34.2675 0 24.8635 34.5754 0 27.5619 32.4025 0 32.9383 31.1402 0
          30.8134 32.1059 0 29.2262 33.0957 0 32.1396 34.5862 0 38.6593 19.877 0
          41.3914 19.3814 0 36.3602 20.3829 0 39.4093 22.1005 0 43.9376 19.0594 0
          46.8427 18.7866 0 49.5285 18.5643 0 41.944 21.7808 0 44.3836 21.5806 0
          47.0377 21.325 0 49.6158 21.1804 0 35.1104 22.9404 0 37.2301 22.4563 0
          35.9623 24.5617 0 34.2222 24.8228 0 38.0403 24.4013 0 40.2297 24.226 0
          42.5915 24.0607 0 44.9706 23.9455 0 47.3085 23.7523 0 50.038 24.0852 0
          45.668 25.9837 0 47.2536 25.3551 0 52.044 18.1802 0 54.2302 17.9351 0
          58.1445 17.3536 0 55.9439 18.3813 0 51.9765 20.5121 0 53.9294 20.01 0
          55.2579 19.7973 0 57.6566 19.5767 0 55.9006 21.0007 0 59.581 17.8786 0
          60.0274 19.54 0 62.4412 18.7968 0 65.6768 19.3719 0 58.3894 22.161 0
          60.6375 21.9398 0 62.9742 21.8031 0 52.3171 22.6779 0 54.2084 21.8879 0
          56.4665 22.955 0 53.03 23.9678 0 52.1672 25.4614 0 54.6057 23.7641 0
          58.9445 24.3004 0 56.9703 24.8942 0 65.7057 22.0254 0 61.159 24.2549 0
          63.4294 24.3704 0 65.9321 24.6455 0 34.8827 26.4808 0 36.821 26.3766 0
          38.8631 26.3934 0 41.0976 26.3513 0 35.6278 28.1272 0 37.524 28.1937 0
          36.0854 29.5148 0 37.6046 30.1315 0 39.4937 28.4447 0 41.7739 28.589 0
          43.3606 26.2281 0 48.7844 26.3293 0 46.9365 28.2569 0 44.0855 28.5166 0
          49.541 29.4327 0 35.0237 30.2857 0 36.8754 32.2388 0 39.6027 30.608 0
          41.8719 30.9008 0 34.3933 33.1229 0 39.4407 32.9548 0 41.7918 33.3879 0
          44.1114 30.9419 0 46.4823 31.028 0 48.7845 31.6091 0 44.0057 33.3223 0