<?xml version="1.0"?>
<VTKFile type="UnstructuredGrid" version="0.1" byte_order="LittleEndian">
  <UnstructuredGrid>
    <Piece NumberOfCells="13826" NumberOfPoints="55304">
      <PointData Scalars="p">
        <DataArray type="Float32" Name="p" NumberOfComponents="1" format="ascii">
          0.0389549 0.0402194 0.0385408 0.0398053 0.029442 0.0294902 0.0298728 0.0299211 0.0127042 0.0128383 0.0127085 0.0128426
          0.0404881 0.0397238 0.0405914 0.0398272 0.00672731 0.00661759 0.00671842 0.0066087 0.000602945 0.000480176 0.000471055 0.000348285
          0.0302721 0.0298868 0.0306466 0.0302613 0.0444806 0.0440317 0.0434212 0.0429723 0.0350499 0.0355419 0.0356977 0.0361897
          0.0514475 0.0513427 0.0519881 0.0518832 0.0226606 0.0227955 0.022681 0.022816 0.0225561 0.022215 0.0223778 0.0220366
          0.0520759 0.0517267 0.0521585 0.0518093 0.0236346 0.0235081 0.0235935 0.0234669 0.0371221 0.037078 0.0366115 0.0365675
          0.0271029 0.0275836 0.0275684 0.0280491 0.0504458 0.0503113 0.0505956 0.0504611 0.015513 0.0153727 0.0154585 0.0153183
          0.0182522 0.0183844 0.0182575 0.0183897 0.0283813 0.0279042 0.0287411 0.028264 0.053508 0.0533243 0.0538552 0.0536714
          0.0240367 0.0239889 0.0241639 0.0241161 0.0335313 0.0333013 0.0341942 0.0339643 0.02399 0.0240877 0.0239853 0.0240829
          0.0504511 0.0508312 0.0509686 0.0513488 0.0578168 0.0573528 0.0590933 0.0586294 0.00357048 0.00369944 0.00356987 0.00369883
          0.0284081 0.0286652 0.0282487 0.0285058 0.0386366 0.0396637 0.0389563 0.0399833 0.0238773 0.0238669 0.0237667 0.0237563
          0.021268 0.0214201 0.0212855 0.0214376 0.0273715 0.0277724 0.0273163 0.0277172 0.0181337 0.0182603 0.0181402 0.0182668
          0.0541361 0.0541658 0.0543635 0.0543933 0.0254101 0.0252602 0.0252992 0.0251493 0.0279277 0.0285485 0.0273837 0.0280046
          0.00996188 0.00983419 0.00995489 0.00982719 0.0535508 0.0532412 0.0534283 0.0531187 0.0256142 0.0254854 0.0257648 0.0256361
          0.0449926 0.04538 0.0454423 0.0458297 0.0502725 0.0499452 0.0505446 0.0502173 0.00799986 0.00803702 0.00813494 0.0081721
          0.019817 0.0198224 0.0199537 0.019959 0.05183 0.0517205 0.0511378 0.0510283 0.0246348 0.024673 0.0247649 0.0248031
          0.0516636 0.0515422 0.0522764 0.052155 0.0372477 0.0375811 0.0383811 0.0387145 0.0329852 0.0330073 0.0336641 0.0336863
          0.0110868 0.0110889 0.0112508 0.0112529 0.0110977 0.0109523 0.0110631 0.0109177 0.0131406 0.0131271 0.0132576 0.0132441
          0.0506731 0.0508499 0.0509763 0.0511531 0.0607327 0.0610957 0.0588803 0.0592434 0.025006 0.0249585 0.0249051 0.0248577
          0.00522545 0.0052468 0.0053554 0.00537676 0.0486869 0.0479636 0.0479175 0.0471941 0.0178125 0.0176694 0.0177811 0.017638
          0.026638 0.0268097 0.0264221 0.0265938 0.022231 0.0215903 0.0215469 0.0209063 0.0481124 0.0485304 0.0485623 0.0489803
          0.0266013 0.0260665 0.0266335 0.0260987 0.0222084 0.0223526 0.0222312 0.0223753 0.0258939 0.0259608 0.0260186 0.0260856
          0.0237129 0.0237384 0.0238252 0.0238506 0.0282826 0.0283441 0.027717 0.0277784 0.0502875 0.049577 0.0496258 0.0489153
          0.0189979 0.0173352 0.0191167 0.017454 0.0503978 0.0502486 0.0506373 0.0504881 0.05157 0.0515323 0.0513757 0.0513379
          0.0252354 0.0250793 0.0251359 0.0249799 0.0178351 0.0178685 0.0179732 0.0180066 0.023894 0.023873 0.0237679 0.0237469
          0.0236218 0.0236132 0.0235013 0.0234927 0.0084272 0.00840337 0.00833648 0.00831265 0.0256108 0.0256764 0.025688 0.0257536
          0.0458566 0.0464663 0.0459394 0.0465492 0.0394418 0.0390337 0.0387167 0.0383087 0.0437426 0.0440672 0.0443465 0.0446711
          0.0240333 0.0239028 0.0239875 0.0238569 0.0152713 0.0152976 0.0153819 0.0154082 0.027927 0.0276284 0.0277835 0.0274849
          0.00970057 0.00982834 0.00972078 0.00984854 0.01787 0.0179822 0.0179129 0.018025 0.0535351 0.0548096 0.0530885 0.054363
          0.0247961 0.0248764 0.0248779 0.0249582 0.0297932 0.029762 0.0292773 0.0292461 0.0391494 0.0395381 0.0397535 0.0401422
          0.0527215 0.0531056 0.0528382 0.0532224 0.0247675 0.0248736 0.0249166 0.0250227 0.0432561 0.0430714 0.0432916 0.043107
          0.0213327 0.0214738 0.0227046 0.0228457 0.0311882 0.0314202 0.0315396 0.0317716 0.0321339 0.0326687 0.0318687 0.0324035
          0.0187906 0.0190639 0.0197986 0.0200719 0.0470986 0.0479878 0.0478271 0.0487162 0.0209367 0.0207858 0.0208915 0.0207406
          0.0523397 0.0526243 0.0522523 0.052537 0.0275928 0.0273638 0.0277058 0.0274767 0.0518763 0.0515864 0.0518922 0.0516023
          0.0548176 0.0556906 0.054628 0.0555009 0.026048 0.0259111 0.0260224 0.0258854 0.0251023 0.0254312 0.0252842 0.025613
          0.025136 0.0251606 0.0252555 0.02528 0.0232872 0.0232629 0.0231618 0.0231374 0.0510005 0.0511579 0.0514146 0.051572
          0.0187865 0.0188589 0.0173322 0.0174046 0.0235759 0.0235895 0.0234621 0.0234757 0.0203379 0.0204643 0.0203808 0.0205072
          0.0227932 0.0227586 0.0226782 0.0226435 0.023041 0.0230627 0.0228715 0.0228932 0.0136576 0.0135082 0.0136584 0.013509
          0.0561633 0.0562561 0.056744 0.0568368 0.000249637 0.000243508 0.000193929 0.000187799 0.0562998 0.0564587 0.0566733 0.0568322
          0.0272243 0.0269769 0.0266811 0.0264338 0.0450575 0.0456613 0.0447124 0.0453161 0.0550934 0.0554566 0.055287 0.0556502
          0.0200835 0.020216 0.0200969 0.0202295 0.0527335 0.0528429 0.0531287 0.053238 0.0366148 0.037117 0.036085 0.0365872
          0.0382816 0.0386578 0.0390472 0.0394234 0.0419784 0.0423496 0.0410977 0.0414688 0.0221215 0.0224715 0.0214679 0.0218178
          0.030291 0.0302309 0.0298747 0.0298147 0.0242761 0.0239934 0.0243816 0.0240989 0.0160956 0.0159547 0.0160656 0.0159246
          0.00699649 0.00700469 0.0068675 0.0068757 0.027652 0.0273474 0.0275306 0.0272261 0.0206316 0.0206437 0.020775 0.0207871
          0.0489064 0.0495065 0.0487885 0.0493886 0.0197955 0.0199341 0.0198118 0.0199505 0.00686409 0.00674163 0.00685411 0.00673164
          0.0257617 0.0258152 0.025891 0.0259445 0.0261495 0.0264802 0.0261406 0.0264714 0.0240567 0.0239683 0.0239513 0.0238629
          0.0527373 0.0529873 0.0520781 0.0523281 0.00185569 0.00177007 0.00180129 0.00171566 0.0196667 0.0195266 0.0196462 0.0195061
          0.0138119 0.0138302 0.0139291 0.0139474 0.0533728 0.0529494 0.0535497 0.0531262 0.0598216 0.0598229 0.0590973 0.0590987
          0.0163254 0.0164607 0.016321 0.0164563 0.0444899 0.0436409 0.0440389 0.0431899 0.0233536 0.0233449 0.0232191 0.0232105
          0.000728186 0.000606497 0.000628742 0.000507053 0.0545144 0.0540506 0.0544234 0.0539596 0.0416006 0.0413096 0.0409946 0.0407037
          0.0193825 0.0192403 0.0193593 0.0192171 0.0257148 0.0260401 0.0262923 0.0266176 0.0495128 0.0489945 0.0489929 0.0484745
          0.0299383 0.0303614 0.0288599 0.029283 0.0229184 0.0231539 0.0234731 0.0237086 0.0227204 0.0228839 0.0227351 0.0228986
          0.0539365 0.0532316 0.053481 0.0527761 0.0190965 0.0189541 0.019072 0.0189296 0.0381875 0.0378444 0.0385149 0.0381718
          0.0260206 0.0260991 0.0261357 0.0262141 0.0517335 0.0516455 0.0511173 0.0510293 0.0589408 0.0583928 0.0575017 0.0569536
          0.0468824 0.0473552 0.0470388 0.0475115 0.0188107 0.0186699 0.0187845 0.0186437 0.0140979 0.0142202 0.0141169 0.0142392
          0.0209116 0.0209207 0.021042 0.021051 0.0595218 0.0607905 0.0589913 0.06026 0.0243607 0.0242488 0.0243348 0.0242229
          0.0487653 0.048758 0.0480141 0.0480068 0.0185268 0.0183875 0.0184998 0.0183604 0.0166019 0.016441 0.0166332 0.0164723
          0.0245914 0.0242868 0.02447 0.0241654 0.0280366 0.0283986 0.0278738 0.0282358 0.0170717 0.0170463 0.016936 0.0169107
          0.030902 0.0310956 0.0304213 0.0306149 0.0548394 0.0556158 0.055138 0.0559144 0.0456482 0.0463235 0.0453118 0.0459871
          0.0354734 0.0361401 0.0353034 0.0359701 0.0311635 0.0301832 0.030459 0.0294787 0.00341757 0.00329854 0.00340245 0.00328341
          0.0264421 0.0264424 0.0264779 0.0264782 0.0213254 0.0212017 0.0214126 0.0212889 0.0284465 0.0289252 0.0278737 0.0283524
          0.0481559 0.0482241 0.0478815 0.0479497 0.0569128 0.0564878 0.0571401 0.056715 0.041886 0.0423341 0.0425073 0.0429555
          0.0262975 0.0259354 0.0258549 0.0254928 0.0271041 0.0273986 0.0272194 0.0275138 0.000251158 0.000187971 0.00032201 0.000258824
          0.0515894 0.0519589 0.051365 0.0517345 0.000257547 0.000370084 2.12918e-06 0.000114667 0.0234515 0.0233524 0.0234206 0.0233215
          0.0195269 0.0195103 0.0193882 0.0193716 0.0492663 0.0489641 0.0489476 0.0486454 0.054692 0.0545151 0.0547328 0.0545559
          0.0184484 0.0183143 0.0185611 0.0184269 0.0577575 0.0572405 0.0578256 0.0573085 0.007727 0.00782039 0.00781828 0.00791167
          0.0408108 0.0411137 0.0412144 0.0415174 0.0254168 0.0252921 0.0257674 0.0256427 0.0513938 0.0513541 0.0505881 0.0505484
          0.0573177 0.05706 0.0568309 0.0565732 0.021128 0.0212669 0.0211426 0.0212815 0.0417166 0.0423251 0.0405003 0.0411087
          0.0177324 0.0176147 0.0177259 0.0176082 0.0242327 0.0243799 0.0242095 0.0243567 0.0204736 0.0211725 0.0203254 0.0210243
          0.0253864 0.0254723 0.0255044 0.0255903 0.0532332 0.0528678 0.0534032 0.0530378 0.0061302 0.0061169 0.00631351 0.0063002
          0.0182773 0.0183657 0.0182917 0.0183802 0.0303138 0.0294941 0.0304261 0.0296064 0.00820845 0.0081702 0.00808319 0.00804494
          0.0497322 0.0503425 0.0496711 0.0502814 0.0253959 0.0255661 0.025292 0.0254622 0.0476245 0.0479973 0.047797 0.0481698
          0.0487168 0.0479737 0.0494616 0.0487185 0.0174623 0.0173308 0.0174584 0.0173269 0.0319336 0.0323648 0.0322948 0.0327259
          0.0171759 0.0170511 0.0171847 0.0170599 0.0533508 0.053177 0.0536352 0.0534614 0.0323803 0.0321806 0.0327808 0.0325812
          0.0238734 0.0237485 0.0238495 0.0237246 0.0166512 0.0166211 0.0165269 0.0164968 0.0205524 0.0206661 0.0212472 0.0213609
          0.0228229 0.0229471 0.0228587 0.0229829 0.0264466 0.0266441 0.0263454 0.0265429 0.0517431 0.0518873 0.0513309 0.0514751
          0.0227481 0.0227391 0.0229149 0.022906 0.0450438 0.0442593 0.0452335 0.0444491 0.0100836 0.0100698 0.0102459 0.0102321
          0.0211859 0.0211948 0.021321 0.0213299 0.0506015 0.0501766 0.0501396 0.0497148 0.0578102 0.0572853 0.057737 0.057212
          0.0426025 0.0423205 0.0426017 0.0423197 0.0542002 0.053581 0.0542741 0.0536549 0.0243644 0.0243758 0.0245031 0.0245145
          0.0400894 0.0405673 0.0406028 0.0410807 0.0230634 0.0230587 0.0229211 0.0229165 0.0103946 0.0102365 0.0103855 0.0102275
          0.054198 0.0548336 0.0534342 0.0540698 0.00671644 0.00684534 0.00671938 0.00684828 0.0371016 0.0376757 0.0364237 0.0369977
          0.0404048 0.0396433 0.0405241 0.0397626 0.0217207 0.0209554 0.0216393 0.020874 0.0466233 0.0471342 0.0463067 0.0468176
          0.00633307 0.00626508 0.00618508 0.00611709 0.0508438 0.051429 0.0509738 0.0515589 0.0258728 0.0259208 0.0257854 0.0258334
          0.0320093 0.031939 0.0313231 0.0312529 0.0463267 0.0461211 0.0468747 0.0466691 0.0254449 0.0255018 0.0253882 0.025445
          0.0360209 0.0367167 0.0361094 0.0368051 0.0181067 0.0179706 0.0181038 0.0179677 0.0268065 0.0270181 0.0265952 0.0268068
          0.015568 0.0155284 0.0154439 0.0154043 0.0266908 0.0264753 0.0268429 0.0266274 0.027305 0.0270325 0.0271468 0.0268743
          0.0152606 0.0154012 0.0153149 0.0154555 0.0165275 0.016538 0.0166716 0.0166821 0.0532915 0.0530815 0.0529709 0.0527608
          0.0500539 0.0496138 0.0510323 0.0505921 0.0242275 0.0246133 0.0244082 0.024794 0.0552413 0.0549898 0.0548749 0.0546235
          0.025734 0.0257816 0.0258172 0.0258648 0.0250691 0.0249231 0.0251997 0.0250537 0.0204205 0.0201537 0.0211269 0.02086
          0.0304982 0.0309094 0.0315541 0.0319653 0.0250433 0.0250636 0.0251518 0.0251722 0.0413549 0.0417376 0.0417867 0.0421694
          0.0256267 0.0256731 0.0257503 0.0257967 0.0124484 0.0125864 0.0124686 0.0126067 0.0109508 0.0110948 0.0109728 0.0111168
          0.0296805 0.0290423 0.030321 0.0296828 0.0167453 0.0168629 0.0166605 0.0167782 0.0263086 0.0262591 0.0261963 0.0261467
          0.0129677 0.0129851 0.0131099 0.0131273 0.0257634 0.0257888 0.0257427 0.0257682 0.0214653 0.0214751 0.0216036 0.0216134
          0.0239724 0.0240211 0.0238401 0.0238889 0.0446709 0.0451414 0.0441072 0.0445776 0.0225641 0.0225618 0.0227446 0.0227423
          0.0306049 0.0300028 0.030417 0.0298149 0.0576916 0.0572406 0.0575975 0.0571465 0.0508981 0.0514364 0.0506413 0.0511796
          0.0255373 0.0255923 0.0255575 0.0256125 0.0282923 0.0279352 0.0284187 0.0280616 0.0249249 0.0249436 0.0250474 0.025066
          0.011396 0.0114081 0.0112593 0.0112715 0.0437886 0.0431384 0.0430958 0.0424456 0.0160096 0.0160266 0.0161148 0.0161318
          0.0493973 0.0490185 0.0494807 0.0491018 0.0522322 0.0526422 0.0522048 0.0526148 0.0261779 0.0262339 0.0260571 0.0261132
          0.0544874 0.053762 0.0538221 0.0530967 0.0266236 0.026446 0.0269155 0.0267379 0.0232407 0.0233933 0.0227696 0.0229222
          0.0252452 0.0253073 0.025333 0.0253951 0.0352242 0.035232 0.0358581 0.035866 0.0490651 0.0487515 0.0486877 0.0483741
          0.0238785 0.0238862 0.0239814 0.0239891 0.037727 0.0369528 0.0379656 0.0371913 0.0125649 0.0126504 0.0126699 0.0127553
          0.0612892 0.0628576 0.0616275 0.0631959 0.0521328 0.051856 0.0520533 0.0517765 0.047665 0.0472122 0.0480167 0.0475639
          0.0322229 0.0311081 0.033241 0.0321262 0.0467824 0.0462042 0.046229 0.0456508 0.0240563 0.0241615 0.0241426 0.0242478
          0.0030049 0.00314292 0.00300712 0.00314515 0.0534466 0.0530095 0.0543388 0.0539018 0.0207838 0.0209342 0.0208353 0.0209857
          0.0109321 0.0109407 0.0110904 0.011099 0.0225692 0.0225636 0.022428 0.0224224 0.0230194 0.0229946 0.0228943 0.0228696
          0.00146876 0.00152987 0.0015898 0.00165091 0.0389078 0.0384384 0.0393911 0.0389218 0.0143602 0.014429 0.0142009 0.0142697
          0.0253709 0.0249349 0.0252686 0.0248326 0.0165371 0.0164699 0.0164095 0.0163423 0.0495323 0.0491626 0.0492003 0.0488306
          0.0217497 0.0217586 0.0218886 0.0218975 0.0495007 0.0501689 0.0495609 0.0502291 0.00529685 0.00524459 0.0051554 0.00510313
          0.00746005 0.00730947 0.00747761 0.00732703 0.0236277 0.0236371 0.0237424 0.0237519 0.0246143 0.0247315 0.0245422 0.0246595
          0.0050679 0.00506984 0.00493102 0.00493297 0.0256325 0.025564 0.0255408 0.0254724 0.0503374 0.0503379 0.0497012 0.0497016
          0.0528479 0.0524623 0.0526789 0.0522932 0.0254412 0.0253181 0.0255881 0.0254651 0.040711 0.0416129 0.0399361 0.040838
          0.0204945 0.0204882 0.0203639 0.0203576 0.0127057 0.0128755 0.0126616 0.0128314 0.0133929 0.0133972 0.0135232 0.0135274
          0.0136719 0.0136816 0.0138042 0.0138139 0.0210215 0.0209581 0.0208906 0.0208272 0.0273269 0.0272345 0.0271024 0.02701
          0.016312 0.0163239 0.0161937 0.0162056 0.0504283 0.0505361 0.0508048 0.0509127 0.0568028 0.0572008 0.0563998 0.0567978
          0.0259187 0.0258685 0.0259103 0.0258601 0.0367297 0.0366027 0.0362215 0.0360944 0.0229528 0.0228206 0.022936 0.0228038
          0.0259405 0.0263774 0.0263147 0.0267516 0.0298242 0.0302186 0.0297256 0.0301201 0.0169446 0.0170726 0.0169059 0.0170339
          0.0298594 0.0302166 0.029753 0.0301103 0.0570225 0.0577824 0.0568016 0.0575616 0.0611238 0.0608599 0.0614673 0.0612035
          0.0479925 0.0480219 0.0473312 0.0473607 0.0548573 0.0551154 0.055409 0.0556671 0.00857623 0.00844261 0.00856358 0.00842997
          0.0472701 0.0467797 0.0469525 0.0464621 0.025793 0.025778 0.0258917 0.0258767 0.0243105 0.0245132 0.0243372 0.0245399
          0.00178389 0.00187236 0.00191009 0.00199855 0.0328865 0.0320787 0.0331269 0.032319 0.047895 0.0487215 0.0485556 0.049382
          0.0268888 0.0267283 0.0267018 0.0265412 0.0264656 0.0264076 0.0266292 0.0265711 0.0173194 0.0171892 0.0173191 0.0171888
          0.0274821 0.0268912 0.0269973 0.0264063 0.0546825 0.0545857 0.0545714 0.0544745 0.0233553 0.0233639 0.0234792 0.0234879
          0.0095624 0.00969632 0.00957619 0.00971011 0.0243574 0.0244259 0.0244002 0.0244686 0.0422786 0.0425962 0.0428119 0.0431296
          0.0519915 0.0511642 0.0525606 0.0517333 0.0129569 0.012855 0.0128692 0.0127672 0.0267307 0.0269437 0.0268194 0.0270323
          0.0198404 0.0197925 0.0197062 0.0196583 0.0333064 0.0341751 0.0336901 0.0345587 0.0181124 0.0182457 0.0181159 0.0182493
          0.0247864 0.0248027 0.0249279 0.0249443 0.0220431 0.0220443 0.0221699 0.022171 0.0536529 0.0533691 0.0543539 0.05407
          0.0193906 0.0194034 0.0195267 0.0195394 0.0221686 0.0224832 0.0224017 0.0227163 0.000231349 0.000249816 0.000136924 0.000155392
          0.0569728 0.0565892 0.0567693 0.0563857 0.0479911 0.0487099 0.0471543 0.0478731 0.020081 0.0200761 0.0199557 0.0199508
          0.0273917 0.0271354 0.0275272 0.0272709 0.0263656 0.026165 0.0262288 0.0260282 0.0161374 0.0161436 0.0162555 0.0162617
          0.0230638 0.0230679 0.0232046 0.0232088 0.0344137 0.0351493 0.0348931 0.0356286 0.0577186 0.0580277 0.0573788 0.0576879
          0.0112912 0.011443 0.0112049 0.0113567 0.030595 0.0296122 0.0298984 0.0289156 0.0207719 0.0208283 0.0208992 0.0209556
          0.0294806 0.0294277 0.0289713 0.0289185 0.0274105 0.027388 0.0277603 0.0277377 0.0239057 0.0239325 0.0240215 0.0240483
          0.00645628 0.006594 0.00647405 0.00661177 0.0243988 0.0242667 0.0237761 0.0236439 0.0279215 0.0275193 0.0280089 0.0276067
          0.00343245 0.00356468 0.00342789 0.00356012 0.0506195 0.0502696 0.0508632 0.0505133 0.0294745 0.0300464 0.029045 0.029617
          0.00493229 0.00496011 0.00506935 0.00509717 0.0176024 0.0174735 0.017597 0.0174681 0.0444663 0.0439441 0.0448012 0.0442791
          0.0233231 0.023706 0.0235596 0.0239425 0.0431023 0.0421864 0.0433031 0.0423871 0.00546881 0.00553529 0.00561206 0.00567854
          0.0456954 0.0457753 0.0450097 0.0450896 0.0290942 0.0287582 0.0297881 0.0294521 0.0356587 0.0351545 0.0363461 0.0358418
          0.0149238 0.0150011 0.0150683 0.0151455 0.0209549 0.0210306 0.0210873 0.021163 0.0271021 0.0269235 0.0271002 0.0269216
          0.00435879 0.00423486 0.00432026 0.00419633 0.0113634 0.0115099 0.0112851 0.0114315 0.0388526 0.0392012 0.0394961 0.0398447
          0.0523946 0.052792 0.0523906 0.052788 0.0514856 0.0512281 0.050979 0.0507216 0.0283619 0.0289158 0.0281839 0.0287378
          0.0335628 0.0335351 0.0329437 0.0329159 0.0234454 0.0233231 0.0233818 0.0232595 0.0325739 0.0330899 0.0322172 0.0327332
          0.0114131 0.0114031 0.0115505 0.0115405 0.00314863 0.00328492 0.00315026 0.00328655 0.0369892 0.0363858 0.0369142 0.0363108
          0.0222749 0.0221989 0.0216761 0.0216002 0.0510391 0.0501548 0.0499231 0.0490388 0.0123036 0.0124403 0.0123252 0.012462
          0.0567979 0.0578485 0.0572658 0.0583164 0.0208874 0.0211098 0.0221751 0.0223975 0.0240652 0.0239489 0.024058 0.0239417
          0.0259167 0.0260854 0.0258337 0.0260024 0.0313244 0.0320204 0.0319483 0.0326443 0.0285066 0.0287274 0.0278593 0.0280801
          0.0238355 0.0237415 0.0238096 0.0237157 0.0263342 0.0261766 0.026398 0.0262404 0.0427306 0.0428022 0.0420531 0.0421247
          0.00408298 0.00395633 0.00404616 0.00391951 0.0245063 0.024524 0.0246404 0.0246581 0.02253 0.0223871 0.0225015 0.0223585
          0.0237425 0.0238665 0.0237804 0.0239044 0.0551469 0.0548165 0.0545088 0.0541784 0.0292757 0.0291811 0.0296585 0.0295639
          0.0106592 0.010664 0.0105284 0.0105332 0.0230108 0.0234345 0.0232063 0.02363 0.0231345 0.0232746 0.023167 0.0233071
          0.0269518 0.0268521 0.0269237 0.0268241 0.0254945 0.0255452 0.0256013 0.025652 0.0228613 0.0227986 0.0222467 0.022184
          0.0219542 0.021832 0.0213189 0.0211968 0.022477 0.0224001 0.0226592 0.0225822 0.0239065 0.024284 0.0242632 0.0246407
          0.0206041 0.020548 0.0204681 0.020412 0.0317085 0.0322854 0.0317162 0.032293 0.00966382 0.00984022 0.00958697 0.00976338
          0.0361622 0.0364547 0.0368639 0.0371564 0.0308859 0.030295 0.0307884 0.0301975 0.0411115 0.0417759 0.040684 0.0413484
          0.0555516 0.0555118 0.0547378 0.054698 0.0224425 0.0224435 0.0225389 0.02254 0.0369425 0.0362774 0.0368271 0.0361619
          0.0220527 0.0210611 0.0209907 0.0199991 0.0546824 0.0547049 0.0546951 0.0547176 0.0239388 0.0240612 0.0235494 0.0236718
          0.0319266 0.0314221 0.0322081 0.0317036 0.0216333 0.0215623 0.0215112 0.0214402 0.0260173 0.0261177 0.0260902 0.0261906
          0.0257626 0.0259237 0.0256515 0.0258125 0.0259262 0.0259246 0.0258424 0.0258408 0.0377428 0.0384441 0.0374366 0.0381379
          0.0539193 0.0542438 0.0541289 0.0544535 0.0238922 0.023614 0.0234873 0.0232091 0.0258656 0.0259253 0.0256712 0.0257309
          0.0178484 0.017738 0.0178423 0.0177319 0.0264323 0.0266458 0.0263545 0.0265679 0.0163969 0.0164021 0.0165242 0.0165295
          0.0234673 0.0232536 0.0228948 0.022681 0.0492508 0.0499195 0.0497081 0.0503767 0.0510549 0.0515404 0.0512151 0.0517005
          0.00454086 0.00469005 0.00465216 0.00480135 0.0556314 0.0555751 0.0550024 0.0549461 0.0256999 0.0255545 0.0257481 0.0256027
          0.0478515 0.047235 0.0470818 0.0464653 0.0258965 0.0259605 0.0259732 0.0260372 0.0223956 0.0225332 0.0224319 0.0225696
          0.0231532 0.0232882 0.0221611 0.0222961 0.0112567 0.0111184 0.0112307 0.0110925 0.0257898 0.0258595 0.0259788 0.0260485
          0.0506307 0.0510549 0.050359 0.0507832 0.0237175 0.0238493 0.0237546 0.0238863 0.0178646 0.0178186 0.0177212 0.0176752
          0.0212174 0.0210747 0.0211749 0.0210321 0.041136 0.0415843 0.0405847 0.041033 0.0355577 0.034879 0.0351077 0.034429
          0.045897 0.0455218 0.0462687 0.0458936 0.0252431 0.0250932 0.0243417 0.0241918 0.0529609 0.0531079 0.0526428 0.0527898
          0.0229992 0.0221834 0.0236674 0.0228515 0.0225293 0.0225546 0.0230297 0.023055 0.0266732 0.0269254 0.0265714 0.0268235
          0.052505 0.052039 0.0525605 0.0520945 0.0311126 0.0304572 0.031397 0.0307416 0.0506262 0.050142 0.0507639 0.0502796
          0.0226867 0.022662 0.0228317 0.0228069 0.0387248 0.0380396 0.0391134 0.0384283 0.0355838 0.0350312 0.0359287 0.0353761
          0.0507108 0.0499268 0.0504332 0.0496492 0.05448 0.0545567 0.0544733 0.0545501 0.0243309 0.0240519 0.0242479 0.0239689
          0.0250815 0.0253977 0.024898 0.0252141 0.00574725 0.00568272 0.00560101 0.00553648 0.0203623 0.0204097 0.0204976 0.0205451
          0.052447 0.0524834 0.0528519 0.0528883 0.0238354 0.0237461 0.0238339 0.0237445 0.032387 0.0337428 0.030933 0.0322887
          0.0209872 0.0211261 0.0209987 0.0211376 0.000194492 0.000234894 0.000234632 0.000275034 0.0131633 0.0130401 0.0132712 0.013148
          0.018568 0.0185784 0.0187078 0.0187182 0.027067 0.0268202 0.0273435 0.0270968 0.0522959 0.0514082 0.0528939 0.0520062
          0.022801 0.022711 0.0226897 0.0225996 0.0498308 0.0500528 0.049715 0.049937 0.0509344 0.050293 0.0511557 0.0505143
          0.0296375 0.0297195 0.0292822 0.0293643 0.0454769 0.0459842 0.0449177 0.0454249 0.0432899 0.0425676 0.042176 0.0414537
          0.0249815 0.0251647 0.0249038 0.0250869 0.0240208 0.0239821 0.0239029 0.0238642 0.00553493 0.00546864 0.0053915 0.00532522
          0.0231532 0.0231295 0.0230275 0.0230038 0.00380129 0.00367525 0.0037668 0.00364077 0.0268363 0.0266239 0.0271306 0.0269182
          0.0597492 0.0596789 0.0591383 0.059068 0.000920554 0.000802338 0.000861883 0.000743667 0.034435 0.0332194 0.0338149 0.0325993
          0.00523967 0.0052147 0.00510259 0.00507762 0.044285 0.04359 0.0443598 0.0436648 0.00210999 0.00205459 0.0019871 0.0019317
          0.00732004 0.00731186 0.00716318 0.00715499 0.0245542 0.0242745 0.0242489 0.0239692 0.0545667 0.0557737 0.0549515 0.0561585
          0.0475715 0.0476481 0.0472258 0.0473024 0.0596582 0.0594331 0.0609583 0.0607332 0.0277077 0.0283059 0.0275171 0.0281152
          0.0278516 0.0286552 0.0272295 0.0280331 0.0562866 0.0576696 0.0568236 0.0582067 0.0226464 0.0226039 0.0224923 0.0224497
          0.00960303 0.00976226 0.00953421 0.00969344 0.0216575 0.0215516 0.0215843 0.0214784 0.00366222 0.00353773 0.00362632 0.00350184
          0.0249695 0.0248785 0.0244678 0.0243767 0.0243468 0.0244067 0.0244908 0.0245507 0.0232285 0.0239372 0.0231218 0.0238305
          0.0205528 0.0206096 0.0206875 0.0207443 0.0231843 0.0231759 0.0233134 0.0233051 0.0237197 0.0235857 0.0237114 0.0235774
          0.0183859 0.0182481 0.0183583 0.0182205 0.0280466 0.0274631 0.0285124 0.0279289 0.00736864 0.00733266 0.00723055 0.00719457
          0.0335815 0.0330192 0.0336527 0.0330904 0.0238202 0.0239146 0.0239495 0.0240439 0.0570019 0.0574698 0.0572705 0.0577384
          0.0562802 0.0564218 0.0565728 0.0567144 0.00610619 0.00604094 0.00596653 0.00590129 0.0238934 0.0238454 0.02375 0.023702
          0.0238975 0.0239293 0.0235995 0.0236313 0.0335484 0.034367 0.0327585 0.0335771 0.0266631 0.026674 0.026537 0.0265479
          0.00765205 0.00761636 0.00751325 0.00747756 0.0120213 0.0121577 0.0120419 0.0121783 0.00520852 0.00523702 0.00507143 0.00509993
          0.0607293 0.0607343 0.0618945 0.0618995 0.04231 0.042677 0.041587 0.041954 0.0261647 0.0264214 0.0266934 0.02695
          0.0499921 0.050544 0.0495651 0.050117 0.0338807 0.0332467 0.0343029 0.0336689 0.019817 0.0198055 0.0196781 0.0196667
          0.027309 0.0270588 0.0272136 0.0269634 0.0107931 0.0108015 0.0109313 0.0109396 0.0216492 0.0210999 0.0217419 0.0211927
          0.025955 0.02589 0.025848 0.025783 0.0405837 0.0410286 0.0414071 0.041852 0.0422074 0.0414988 0.0413548 0.0406462
          0.0182478 0.0181084 0.0182166 0.0180773 0.0226561 0.0228221 0.0226884 0.0228543 0.0433927 0.0426442 0.0430427 0.0422942
          0.0479667 0.0475292 0.0479063 0.0474688 0.0234393 0.0234549 0.0235538 0.0235694 0.0296367 0.0299426 0.0290203 0.0293262
          0.0237505 0.0236978 0.0235998 0.0235471 0.00715121 0.00701503 0.00714505 0.00700887 0.0117189 0.0118595 0.0117566 0.0118972
          0.0283991 0.0286758 0.028388 0.0286647 0.0275398 0.0267678 0.0285678 0.0277959 0.029892 0.0299618 0.0302976 0.0303674
          0.022218 0.0228101 0.0222612 0.0228533 0.0430395 0.0428209 0.0421643 0.0419457 0.0607481 0.0594646 0.0605388 0.0592553
          0.0238351 0.0238295 0.0239489 0.0239434 0.00604383 0.00611064 0.00618316 0.00624997 0.0563374 0.0562226 0.0560463 0.0559314
          0.0541689 0.0540202 0.0542253 0.0540766 0.0178736 0.0179132 0.0180079 0.0180475 0.0543813 0.0546067 0.0543709 0.0545964
          0.0240699 0.0240723 0.0242114 0.0242139 0.00251079 0.0024747 0.00238764 0.00235154 0.0494239 0.0498654 0.049107 0.0495484
          0.0231807 0.0229749 0.0225457 0.0223399 0.0133801 0.013376 0.0135219 0.0135178 0.050343 0.0503574 0.0505106 0.050525
          0.0355272 0.0364636 0.0351623 0.0360987 0.0353279 0.034571 0.0353364 0.0345794 0.00135616 0.00138505 0.00147171 0.00150061
          0.0585708 0.0580802 0.0574766 0.0569861 0.0236182 0.0236566 0.0237342 0.0237727 0.0232444 0.023387 0.023286 0.0234286
          0.0459436 0.045743 0.0454981 0.0452974 0.0557047 0.0567688 0.0562208 0.057285 0.0500849 0.0504436 0.0496497 0.0500084
          0.0260517 0.0261479 0.026022 0.0261182 0.0201818 0.020126 0.0200351 0.0199794 0.0186684 0.0185285 0.0186415 0.0185015
          0.0125693 0.0127216 0.0126477 0.0128 0.0523149 0.0520509 0.0528129 0.0525489 0.0151075 0.0149685 0.0150472 0.0149082
          0.00855736 0.00850897 0.00841923 0.00837085 0.0382108 0.0389788 0.0385471 0.0393151 0.0260294 0.026157 0.0259809 0.0261084
          0.0423292 0.0429127 0.0416393 0.0422228 0.0103633 0.0103709 0.0105008 0.0105083 0.0363811 0.0370313 0.0361889 0.0368392
          0.0277023 0.0278914 0.027526 0.0277152 0.0199345 0.0199801 0.020076 0.0201216 0.0314219 0.030901 0.0315874 0.0310664
          0.0289465 0.0295562 0.0291132 0.0297229 0.0383027 0.0378214 0.0387299 0.0382486 0.0254012 0.0254485 0.0250986 0.025146
          0.0389085 0.0384926 0.039905 0.039489 0.0189307 0.0189563 0.0190692 0.0190948 0.0472852 0.0465821 0.0479162 0.047213
          0.0540753 0.0537822 0.0539772 0.0536841 0.0241025 0.023986 0.0241179 0.0240014 0.0336515 0.0329143 0.0332292 0.032492
          0.0236665 0.023554 0.0237035 0.023591 0.0260778 0.0266321 0.0265923 0.0271467 0.0260356 0.0263458 0.0264162 0.0267264
          0.0255813 0.0257206 0.0255517 0.025691 0.0317817 0.0312181 0.032251 0.0316873 0.0491171 0.0495369 0.0496659 0.0500857
          0.0587619 0.0584548 0.0583742 0.0580671 0.0328014 0.0320728 0.0339677 0.0332391 0.0234542 0.0234143 0.0233283 0.0232885
          0.0049544 0.00492751 0.00481655 0.00478966 0.0236023 0.02371 0.0236081 0.0237158 0.035399 0.0351935 0.0346969 0.0344914
          0.056463 0.0572996 0.0559429 0.0567796 0.0474724 0.0476931 0.0478167 0.0480375 0.0061948 0.00632695 0.00629354 0.0064257
          0.0233249 0.0234506 0.0233881 0.0235137 0.0373765 0.0384089 0.0378229 0.0388553 0.0331061 0.0341413 0.0322472 0.0332824
          0.020986 0.021638 0.0211415 0.0217936 0.035922 0.0359415 0.0353006 0.0353201 0.0259056 0.0259109 0.0252676 0.0252729
          0.0216419 0.0211268 0.0217465 0.0212314 0.0236619 0.0239236 0.0238809 0.0241427 0.0247198 0.024342 0.0243321 0.0239544
          0.0615287 0.0622288 0.0614445 0.0621445 0.000200068 0.000247436 0.000229513 0.000276882 0.0105208 0.0105292 0.0103869 0.0103953
          0.0235917 0.0235486 0.0234654 0.0234223 0.0522503 0.0528623 0.0530301 0.0536421 0.0253754 0.025475 0.0252675 0.025367
          0.0314141 0.0309329 0.031666 0.0311847 0.0267058 0.0268469 0.0262463 0.0263874 0.0226383 0.0227078 0.0225065 0.022576
          0.0404881 0.0411648 0.0401793 0.040856 0.00256903 0.00270795 0.00257146 0.00271038 0.00942135 0.00955894 0.0094292 0.00956678
          0.0224346 0.0223125 0.022816 0.022694 0.0410247 0.0423044 0.0410456 0.0423253 0.0484941 0.0477963 0.0493586 0.0486609
          0.0374462 0.0379594 0.0384089 0.0389221 0.0426786 0.0431352 0.0423503 0.0428069 0.056075 0.0561224 0.0554344 0.0554817