<?xml version="1.0"?>
<VTKFile type="UnstructuredGrid" version="0.1" byte_order="LittleEndian">
  <UnstructuredGrid>
    <Piece NumberOfCells="1000" NumberOfPoints="1331">
      <CellData Scalars="wetting pressure">
        <DataArray type="Float32" Name="wetting pressure" NumberOfComponents="1" format="ascii">
          265545 270750 272319 271365 268372 263502 256698 247722 236069 220666 265552 270771
          272361 271436 268482 263654 256869 247878 236176 220703 265561 270803 272426 271550
          268664 263930 257195 248187 236386 220775 265568 270828 272479 271648 268805 264244
          257616 248626 236673 220868 265568 270828 272486 271667 268814 264214 257898 249129
          236923 220934 265557 270794 272426 271580 268728 264176 257558 248574 236637 220855
          265538 270734 272316 271408 268504 263767 257047 248064 236304 220746 265516 270665
          272190 271212 268222 263380 256612 247666 236035 220654 265497 270607 272086 271051
          267999 263101 256313 247401 235856 220591 265487 270574 272027 270963 267880 262957
          256162 247270 235767 220560 261995 264556 264994 263524 260333 255477 248892 240436
          229905 217126 262003 264582 265045 263615 260479 255679 249112 240632 230036 217171
          262014 264621 265128 263768 260740 256085 249565 241042 230311 217263 262023 264654
          265201 263911 260954 256667 250266 241716 230754 217397 262024 264658 265220 263980
          261194 256742 250565 242592 231435 217529 262011 264619 265146 263841 260873 256570
          250237 241676 230721 217385 261990 264549 265014 263623 260580 255922 249424 240923
          230229 217234 261965 264470 264866 263380 260207 255394 248846 240412 229890 217120
          261944 264404 264745 263189 259934 255047 248480 240093 229678 217046 261932 264367
          264678 263087 259793 254877 248303 239941 229576 217011 260243 260461 259524 257314
          253815 248982 242738 235030 225858 215391 260253 260495 259593 257441 254024 249266
          243037 235285 226024 215448 260268 260547 259707 257665 254445 249891 243693 235844
          226382 215565 260280 260593 259814 257894 254870 250828 244860 236838 226993 215744
          260282 260602 259851 258024 255349 251139 245397 238157 227976 215930 260267 260556
          259757 257825 254812 250790 244885 236819 226967 215733 260241 260470 259585 257513
          254290 249743 243572 235732 226302 215536 260211 260373 259397 257184 253731 248962
          242756 235051 225868 215393 260186 260293 259247 256940 253367 248500 242279 234649
          225606 215303 260172 260249 259166 256813 253188 248283 242058 234462 225483 215261
          259126 257490 255257 252267 248421 243613 237753 230833 222939 214293 259138 257532
          255347 252434 248701 243983 238127 231142 223136 214359 259157 257600 255497 252738
          249298 244829 238965 231823 223559 214497 259174 257660 255640 253055 249949 246081
          240478 233024 224264 214702 259177 257675 255691 253222 250512 246474 241141 234513
          225324 214908 259160 257619 255577 252980 249884 246024 240745 233061 224250 214693
          259128 257514 255362 252571 249134 244681 238891 231728 223480 214467 259092 257396
          255127 252147 248374 243649 237829 230891 222966 214299 259062 257299 254942 251840
          247909 243064 237233 230404 222655 214194 259045 257245 254843 251682 247686 242795
          236962 230178 222509 214144 258261 255074 251659 247909 243711 238926 233454 227303
          220574 213448 258276 255125 251768 248111 244049 239364 233885 227652 220792 213521
          258300 255208 251950 248480 244772 240361 234838 228406 221251 213669 258320 255281
          252123 248862 245566 241798 236512 229692 221981 213882 258323 255299 252184 249048
          246141 242199 237243 231229 222980 214080 258304 255235 252053 248778 245490 241710
          236995 229771 221973 213873 258267 255111 251798 248293 244588 240198 234791 228313
          221167 213636 258224 254970 251518 247786 243678 238987 233555 227372 220602 213453
          258188 254855 251298 247418 243123 238297 232861 226815 220253 213336 258168 254792
          251180 247231 242858 237980 232545 226556 220087 213279 257469 252833 248287 243796
          239252 234491 229402 224002 218387 212676 257487 252894 248414 244030 239635 234981
          229878 224382 218623 212754 257515 252990 248625 244449 240438 236070 230900 225180
          219101 212908 257538 253075 248822 244875 241298 237578 232618 226481 219819 213119
          257543 253096 248890 245071 241878 237988 233360 228002 220699 213298 257521 253024
          248744 244781 241215 237499 232906 226513 219798 213106 257478 252881 248454 244238
          240230 235878 230789 225051 218998 212869 257428 252718 248131 243660 239212 234547
          229488 224056 218404 212677 257386 252584 247875 243235 238577 233770 228723 223445
          218023 212549 257363 252509 247736 243016 238270 233407 228366 223156 217839 212487
          256613 250442 244734 239504 234626 229897 225188 220537 216062 211844 256634 250513
          244882 239775 235064 230449 225719 220957 216320 211929 256666 250625 245125 240250
          235948 231631 226821 221811 216826 212091 256693 250722 245348 240717 236854 233183
          228565 223127 217536 212301 256699 250747 245423 240926 237446 233613 229311 224630
          218294 212461 256674 250665 245260 240614 236765 233112 228573 223093 217497 212285
          256624 250503 244934 240013 235713 231404 226624 221635 216701 212046 256567 250316
          244563 239356 234583 229951 225259 220578 216069 211841 256519 250159 244265 238863
          233853 229069 224407 219901 215648 211700 256492 250072 244103 238607 233496 228649
          224000 219573 215441 211630 255510 247517 240554 234593 229415 224730 220385 216477
          213224 210772 255535 247601 240731 234921 229950 225402 221024 216974 213524 210870
          255573 247733 241019 235485 230989 226775 222301 217958 214097 211053 255605 247847
          241279 236020 231991 228425 224159 219378 214852 211277 255611 247877 241366 236254
          232623 228903 224951 220913 215526 211428 255583 247785 241183 235908 231895 228348
          224176 219347 214811 211260 255527 247600 240809 235224 230731 226525 222083 217764
          213960 211003 255461 247383 240377 234454 229413 224844 220506 216549 213244 210772
          255405 247201 240026 233866 228533 223783 219494 215755 212757 210611 255374 247099
          239835 233559 228099 223275 219007 215368 212515 210529 253775 243478 235194 228571
          223175 218555 214509 211267 209287 209072 253804 243578 235412 228995 223910 219485
          215361 211904 209657 209191 253848 243734 235763 229710 225288 221327 217073 213187
          210372 209413 253885 243869 236074 230363 226522 223190 219256 214998 211299 209682
          253894 243905 236180 230647 227276 223785 220137 216508 211999 209848 253862 243802
          235972 230244 226422 223083 219601 215060 211280 209669 253799 243591 235538 229432
          225017 221069 216903 213014 210238 209363 253725 243342 235029 228489 223333 218887
          214810 211450 209356 209086 253661 243132 234612 227762 222185 217487 213507 210460
          208768 208894 253625 243015 234387 227387 221635 216838 212899 209990 208481 208798
          250237 237325 227956 220898 215427 210877 206978 204158 203216 205561 250269 237439
          228215 221446 216568 212356 208176 204982 203666 205700 250318 237616 228628 222366
          218644 215475 211010 206816 204581 205971 250359 237767 228991 223174 220387 217435
          213913 210119 205891 206316 250369 237810 229119 223535 221456 218361 214794 211223
          206939 206538 250335 237699 228886 223052 220289 217350 213869 210325 205903 206308
          250267 237468 228396 222082 218380 215231 210839 206671 204456 205922 250186 237193
          227815 220924 216008 211781 207605 204513 203354 205591 250117 236961 227340 220034
          214362 209722 205894 203292 202662 205371 250078 236833 227086 219592 213668 208893
          205155 202741 202335 205264
        </DataArray>
        <DataArray type="Float32" Name="nonwetting pressure" NumberOfComponents="1" format="ascii">
          265545 270750 272319 271365 268372 263502 256698 247722 236069 220666 265552 270771
          272361 271436 268482 263654 256869 247878 236176 220703 265561 270803 272426 271550
          268664 263930 257195 248187 236386 220775 265568 270828 272479 271648 268818 264244
          257616 248626 236673 220868 265568 270828 272486 271667 269221 264359 257955 249129
          236923 220934 265557 270794 272426 271580 268743 264176 257558 248574 236637 220855
          265538 270734 272316 271408 268504 263767 257047 248064 236304 220746 265516 270665
          272190 271212 268222 263380 256612 247666 236035 220654 265497 270607 272086 271051
          267999 263101 256313 247401 235856 220591 265487 270574 272027 270963 267880 262957
          256162 247270 235767 220560 261995 264556 264994 263524 260333 255477 248892 240436
          229905 217126 262003 264582 265045 263615 260479 255679 249112 240632 230036 217171
          262014 264621 265128 263768 260740 256085 249565 241042 230311 217263 262023 264654
          265201 263911 261020 256695 250266 241716 230754 217397 262024 264658 265220 263980
          261878 257080 250746 242673 231435 217529 262011 264619 265146 263841 260946 256605
          250237 241676 230721 217385 261990 264549 265014 263623 260580 255922 249424 240923
          230229 217234 261965 264470 264866 263380 260207 255394 248846 240412 229890 217120
          261944 264404 264745 263189 259934 255047 248480 240093 229678 217046 261932 264367
          264678 263087 259793 254877 248303 239941 229576 217011 260243 260461 259524 257314
          253815 248982 242738 235030 225858 215391 260253 260495 259593 257441 254024 249266
          243037 235285 226024 215448 260268 260547 259707 257665 254445 249891 243693 235844
          226382 215565 260280 260593 259814 257894 255007 250910 244860 236838 226993 215744
          260282 260602 259851 258024 256148 251583 245655 238285 227976 215930 260267 260556
          259757 257825 254956 250879 244885 236819 226967 215733 260241 260470 259585 257513
          254290 249743 243572 235732 226302 215536 260211 260373 259397 257184 253731 248962
          242756 235051 225868 215393 260186 260293 259247 256940 253367 248500 242279 234649
          225606 215303 260172 260249 259166 256813 253188 248283 242058 234462 225483 215261
          259126 257490 255257 252267 248421 243613 237753 230833 222939 214293 259138 257532
          255347 252434 248701 243983 238127 231142 223136 214359 259157 257600 255497 252738
          249298 244829 238965 231823 223559 214497 259174 257660 255640 253055 250127 246202
          240478 233024 224264 214702 259177 257675 255691 253222 251338 246950 241425 234655
          225324 214908 259160 257619 255577 252980 250069 246152 240745 233061 224250 214693
          259128 257514 255362 252571 249134 244681 238891 231728 223480 214467 259092 257396
          255127 252147 248374 243649 237829 230891 222966 214299 259062 257299 254942 251840
          247909 243064 237233 230404 222655 214194 259045 257245 254843 251682 247686 242795
          236962 230178 222509 214144 258261 255074 251659 247909 243711 238926 233454 227303
          220574 213448 258276 255125 251768 248111 244049 239364 233885 227652 220792 213521
          258300 255208 251950 248480 244772 240361 234838 228406 221251 213669 258320 255281
          252123 248862 245753 241932 236512 229692 221981 213882 258323 255299 252184 249048
          246967 242679 237529 231364 222980 214080 258304 255235 252053 248778 245684 241853
          237003 229771 221973 213873 258267 255111 251798 248293 244588 240198 234791 228313
          221167 213636 258224 254970 251518 247786 243678 238987 233555 227372 220602 213453
          258188 254855 251298 247418 243123 238297 232861 226815 220253 213336 258168 254792
          251180 247231 242858 237980 232545 226556 220087 213279 257469 252833 248287 243796
          239252 234491 229402 224002 218387 212676 257487 252894 248414 244030 239635 234981
          229878 224382 218623 212754 257515 252990 248625 244449 240438 236070 230900 225180
          219101 212908 257538 253075 248822 244875 241482 237714 232618 226481 219819 213119
          257543 253096 248890 245071 242696 238466 233639 228122 220699 213298 257521 253024
          248744 244781 241407 237643 232908 226513 219798 213106 257478 252881 248454 244238
          240230 235878 230789 225051 218998 212869 257428 252718 248131 243660 239212 234547
          229488 224056 218404 212677 257386 252584 247875 243235 238577 233770 228723 223445
          218023 212549 257363 252509 247736 243016 238270 233407 228366 223156 217839 212487
          256613 250442 244734 239504 234626 229897 225188 220537 216062 211844 256634 250513
          244882 239775 235064 230449 225719 220957 216320 211929 256666 250625 245125 240250
          235948 231631 226821 221811 216826 212091 256693 250722 245348 240717 237033 233319
          228565 223127 217536 212301 256699 250747 245423 240926 238258 234089 229582 224731
          218294 212461 256674 250665 245260 240614 236952 233255 228573 223093 217497 212285
          256624 250503 244934 240013 235713 231404 226624 221635 216701 212046 256567 250316
          244563 239356 234583 229951 225259 220578 216069 211841 256519 250159 244265 238863
          233853 229069 224407 219901 215648 211700 256492 250072 244103 238607 233496 228649
          224000 219573 215441 211630 255510 247517 240554 234593 229415 224730 220385 216477
          213224 210772 255535 247601 240731 234921 229950 225402 221024 216974 213524 210870
          255573 247733 241019 235485 230989 226775 222301 217958 214097 211053 255605 247847
          241279 236020 232169 228562 224159 219378 214852 211277 255611 247877 241366 236254
          233437 229379 225215 220990 215526 211428 255583 247785 241183 235908 232082 228492
          224176 219347 214811 211260 255527 247600 240809 235224 230731 226525 222083 217764
          213960 211003 255461 247383 240377 234454 229413 224844 220506 216549 213244 210772
          255405 247201 240026 233866 228533 223783 219494 215755 212757 210611 255374 247099
          239835 233559 228099 223275 219007 215368 212515 210529 253775 243478 235194 228571
          223175 218555 214509 211267 209287 209072 253804 243578 235412 228995 223910 219485
          215361 211904 209657 209191 253848 243734 235763 229710 225288 221327 217073 213187
          210372 209413 253885 243869 236074 230363 226719 223340 219256 214998 211299 209682
          253894 243905 236180 230647 228129 224278 220405 216573 211999 209848 253862 243802
          235972 230244 226628 223243 219608 215060 211280 209669 253799 243591 235538 229432
          225017 221069 216903 213014 210238 209363 253725 243342 235029 228489 223333 218887
          214810 211450 209356 209086 253661 243132 234612 227762 222185 217487 213507 210460
          208768 208894 253625 243015 234387 227387 221635 216838 212899 209990 208481 208798
          250237 237325 227956 220898 215427 210877 206978 204158 203216 205561 250269 237439
          228215 221446 216568 212356 208176 204982 203666 205700 250318 237616 228628 222366
          218811 215616 211010 206816 204581 205971 250359 237767 228991 223174 220968 217930
          214186 210130 205891 206316 250369 237810 229119 223535 222827 219298 215412 211505
          206939 206538 250335 237699 228886 223052 220882 217857 214150 210344 205903 206308
          250267 237468 228396 222082 218561 215388 210839 206671 204456 205922 250186 237193
          227815 220924 216008 211781 207605 204513 203354 205591 250117 236961 227340 220034
          214362 209722 205894 203292 202662 205371 250078 236833 227086 219592 213668 208893
          205155 202741 202335 205264
        </DataArray>
        <DataArray type="Float32" Name="wetting saturation" NumberOfComponents="1" format="ascii">
          1 1 1 1 1 1 1 1 1 1 1 1
          1 1 1 1 1 1 1 1 1 1 1 1
          1 1 1 1 1 1 1 1 1 1 0.998728 1
          1 1 1 1 1 1 1 1 0.95928 0.985586 0.994211 1
          1 1 1 1 1 1 0.998468 1 1 1 1 1
          1 1 1 1 1 1 1 1 1 1 1 1
          1 1 1 1 1 1 1 1 1 1 1 1
          1 1 1 1 1 1 1 1 1 1 1 1
          1 1 1 1 1 1 1 1 1 1 1 1
          1 1 1 1 1 1 1 1 1 1 1 1
          1 1 1 1 1 1 1 1 1 1 1 1
          1 1 0.993354 0.997258 1 1 1 1 1 1 1 1
          0.931559 0.966174 0.981974 0.991928 1 1 1 1 1 1 0.992684 0.996505
          1 1 1 1 1 1 1 1 1 1 1 1
          1 1 1 1 1 1 1 1 1 1 1 1
          1 1 1 1 1 1 1 1 1 1 1 1
          1 1 1 1 1 1 1 1 1 1 1 1
          1 1 1 1 1 1 1 1 1 1 1 1
          1 1 1 1 1 1 1 1 1 1 1 1
          1 1 1 1 1 1 0.986256 0.991793 1 1 1 1
          1 1 1 1 0.920147 0.955584 0.97412 0.987232 1 1 1 1
          1 1 0.985573 0.991106 1 1 1 1 1 1 1 1
          1 1 1 1 1 1 1 1 1 1 1 1
          1 1 1 1 1 1 1 1 1 1 1 1
          1 1 1 1 1 1 1 1 1 1 1 1
          1 1 1 1 1 1 1 1 1 1 1 1
          1 1 1 1 1 1 1 1 1 1 1 1
          1 1 1 1 1 1 1 1 1 1 0.98222 0.987862
          1 1 1 1 1 1 1 1 0.917381 0.952473 0.971563 0.985883
          1 1 1 1 1 1 0.98154 0.987144 0.999991 1 1 1
          1 1 1 1 1 1 1 1 1 1 1 1
          1 1 1 1 1 1 1 1 1 1 1 1
          1 1 1 1 1 1 1 1 1 1 1 1
          1 1 1 1 1 1 1 1 1 1 1 1
          1 1 1 1 1 1 1 1 1 1 1 1
          1 1 1 1 1 1 1 1 1 1 1 1
          1 1 0.98127 0.98659 1 1 1 1 1 1 1 1
          0.917441 0.952036 0.971431 0.986502 1 1 1 1 1 1 0.980561 0.98569
          0.99918 1 1 1 1 1 1 1 1 1 1 1
          1 1 1 1 1 1 1 1 1 1 1 1
          1 1 1 1 1 1 1 1 1 1 1 1
          1 1 1 1 1 1 1 1 1 1 1 1
          1 1 1 1 1 1 1 1 1 1 1 1
          1 1 1 1 1 1 1 1 1 1 1 1
          1 1 1 1 1 1 0.981581 0.986396 1 1 1 1
          1 1 1 1 0.918193 0.952211 0.972102 0.987988 1 1 1 1
          1 1 0.98084 0.985579 0.999887 1 1 1 1 1 1 1
          1 1 1 1 1 1 1 1 1 1 1 1
          1 1 1 1 1 1 1 1 1 1 1 1
          1 1 1 1 1 1 1 1 1 1 1 1
          1 1 1 1 1 1 1 1 1 1 1 1
          1 1 1 1 1 1 1 1 1 1 1 1
          1 1 1 1 1 1 1 1 1 1 0.982104 0.986449
          1 1 1 1 1 1 1 1 0.918786 0.952417 0.972924 0.989908
          1 1 1 1 1 1 0.981328 0.985716 1 1 1 1
          1 1 1 1 1 1 1 1 1 1 1 1
          1 1 1 1 1 1 1 1 1 1 1 1
          1 1 1 1 1 1 1 1 1 1 1 1
          1 1 1 1 1 1 1 1 1 1 1 1
          1 1 1 1 1 1 1 1 1 1 1 1
          1 1 1 1 1 1 1 1 1 1 1 1
          1 1 0.982181 0.986315 1 1 1 1 1 1 1 1
          0.918524 0.952413 0.973672 0.992291 1 1 1 1 1 1 0.98138 0.985566
          1 1 1 1 1 1 1 1 1 1 1 1
          1 1 1 1 1 1 1 1 1 1 1 1
          1 1 1 1 1 1 1 1 1 1 1 1
          1 1 1 1 1 1 1 1 1 1 1 1
          1 1 1 1 1 1 1 1 1 1 1 1
          1 1 1 1 1 1 1 1 1 1 1 1
          1 1 1 1 1 1 0.980271 0.985014 1 1 1 1
          1 1 1 1 0.91469 0.950625 0.973227 0.99346 1 1 1 1
          1 1 0.979453 0.984036 0.999296 1 1 1 1 1 1 1
          1 1 1 1 1 1 1 1 1 1 1 1
          1 1 1 1 1 1 1 1 1 1 1 1
          1 1 1 1 1 1 1 1 1 1 1 1
          1 1 1 1 1 1 1 1 1 1 1 1
          1 1 1 1 1 1 1 1 1 1 1 1
          0.983318 0.985945 1 1 1 1 1 1 1 1 0.941904 0.950498
          0.972751 0.998934 1 1 1 1 1 1 0.862846 0.906228 0.938113 0.971792
          1 1 1 1 1 1 0.940688 0.949379 0.971903 0.998111 1 1
          1 1 1 1 0.981927 0.984322 1 1 1 1 1 1
          1 1 1 1 1 1 1 1 1 1 1 1
          1 1 1 1 1 1 1 1 1 1 1 1
          1 1 1 1
        </DataArray>
        <DataArray type="Float32" Name="C^w from cellData" NumberOfComponents="1" format="ascii">
          199.956 199.956 199.956 199.956 199.956 199.956 199.955 199.954 199.953 199.952 199.956 199.956
          199.956 199.956 199.956 199.956 199.955 199.954 199.953 199.952 199.956 199.956 199.956 199.956
          199.953 199.956 199.955 199.954 199.953 199.952 199.956 199.956 199.956 199.942 199.327 199.668
          199.926 199.954 199.953 199.952 199.956 199.956 199.956 199.846 191.622 196.791 198.101 199.319
          199.953 199.952 199.956 199.956 199.956 199.94 199.264 199.617 199.921 199.954 199.953 199.952
          199.956 199.956 199.956 199.956 199.948 199.956 199.955 199.954 199.953 199.952 199.956 199.956
          199.956 199.956 199.956 199.956 199.955 199.954 199.953 199.952 199.956 199.956 199.956 199.956
          199.956 199.956 199.955 199.954 199.953 199.952 199.956 199.956 199.957 199.956 199.956 199.956
          199.955 199.954 199.953 199.952 199.956 199.956 199.956 199.956 199.955 199.955 199.954 199.954
          199.953 199.952 199.956 199.956 199.956 199.956 199.955 199.955 199.954 199.954 199.953 199.952
          199.956 199.956 199.956 199.956 199.841 199.95 199.954 199.954 199.953 199.952 199.956 199.956
          199.956 199.926 198.231 198.926 199.669 199.92 199.953 199.952 199.956 199.956 199.956 199.751
          186.474 192.952 195.959 197.562 199.559 199.952 199.956 199.956 199.956 199.926 198.122 198.787
          199.616 199.918 199.953 199.952 199.956 199.956 199.956 199.956 199.806 199.945 199.954 199.954
          199.953 199.952 199.956 199.956 199.956 199.956 199.955 199.955 199.954 199.954 199.953 199.952
          199.956 199.956 199.956 199.956 199.955 199.955 199.954 199.954 199.953 199.952 199.956 199.956
          199.956 199.956 199.955 199.955 199.954 199.954 199.953 199.952 199.955 199.955 199.955 199.955
          199.955 199.954 199.954 199.953 199.952 199.951 199.955 199.955 199.955 199.955 199.955 199.954
          199.954 199.953 199.952 199.951 199.955 199.955 199.955 199.955 199.639 199.866 199.954 199.953
          199.952 199.951 199.955 199.955 199.955 199.926 196.839 197.622 199.171 199.836 199.952 199.951
          199.955 199.955 199.955 199.777 184.237 190.981 194.236 196.291 199.121 199.951 199.955 199.955
          199.955 199.924 196.69 197.452 199.134 199.831 199.952 199.951 199.955 199.955 199.955 199.955
          199.603 199.843 199.954 199.953 199.952 199.951 199.955 199.955 199.955 199.955 199.955 199.954
          199.954 199.953 199.952 199.951 199.955 199.955 199.955 199.955 199.955 199.954 199.954 199.953
          199.952 199.951 199.955 199.955 199.955 199.955 199.955 199.954 199.954 199.953 199.952 199.951
          199.955 199.955 199.955 199.955 199.954 199.954 199.953 199.953 199.952 199.951 199.955 199.955
          199.955 199.955 199.954 199.954 199.953 199.953 199.952 199.951 199.955 199.955 199.955 199.954
          199.539 199.764 199.953 199.953 199.952 199.951 199.955 199.955 199.955 199.922 195.981 196.685
          199 199.806 199.952 199.951 199.955 199.955 199.955 199.807 183.634 190.374 193.639 195.984
          199.131 199.951 199.955 199.955 199.955 199.922 195.825 196.546 198.902 199.801 199.952 199.951
          199.955 199.955 199.955 199.954 199.505 199.726 199.953 199.953 199.952 199.951 199.955 199.955
          199.955 199.955 199.954 199.954 199.953 199.953 199.952 199.951 199.955 199.955 199.955 199.955
          199.954 199.954 199.953 199.953 199.952 199.951 199.955 199.955 199.955 199.955 199.954 199.954
          199.953 199.953 199.952 199.951 199.955 199.955 199.955 199.954 199.954 199.953 199.953 199.952
          199.952 199.951 199.955 199.955 199.955 199.954 199.954 199.953 199.953 199.952 199.952 199.951
          199.955 199.955 199.954 199.954 199.501 199.714 199.953 199.952 199.952 199.951 199.955 199.955
          199.954 199.919 195.763 196.396 198.972 199.826 199.952 199.951 199.955 199.955 199.954 199.871
          183.618 190.28 193.595 196.213 199.323 199.951 199.955 199.955 199.954 199.919 195.599 196.273
          198.779 199.821 199.952 199.951 199.955 199.955 199.954 199.954 199.466 199.668 199.953 199.952
          199.952 199.951 199.955 199.955 199.955 199.954 199.954 199.953 199.953 199.952 199.952 199.951
          199.955 199.955 199.955 199.954 199.954 199.953 199.953 199.952 199.952 199.951 199.955 199.955
          199.955 199.954 199.954 199.953 199.953 199.952 199.952 199.951 199.955 199.955 199.954 199.954
          199.953 199.953 199.952 199.952 199.951 199.951 199.955 199.955 199.954 199.954 199.953 199.953
          199.952 199.952 199.951 199.951 199.955 199.955 199.954 199.954 199.493 199.699 199.952 199.952
          199.952 199.951 199.955 199.955 199.954 199.914 195.819 196.369 198.993 199.863 199.952 199.951
          199.955 199.955 199.954 199.874 183.776 190.311 193.713 196.685 199.555 199.951 199.955 199.955
          199.954 199.914 195.645 196.215 198.88 199.859 199.952 199.951 199.955 199.955 199.954 199.954
          199.455 199.647 199.952 199.952 199.952 199.951 199.955 199.955 199.954 199.954 199.953 199.953
          199.952 199.952 199.951 199.951 199.955 199.955 199.954 199.954 199.953 199.953 199.952 199.952
          199.951 199.951 199.955 199.955 199.954 199.954 199.953 199.953 199.952 199.952 199.951 199.951
          199.955 199.955 199.954 199.953 199.953 199.952 199.952 199.952 199.951 199.951 199.955 199.955
          199.954 199.953 199.953 199.952 199.952 199.952 199.951 199.951 199.955 199.954 199.954 199.953
          199.489 199.69 199.952 199.952 199.951 199.951 199.955 199.954 199.954 199.91 195.922 196.403
          199.027 199.899 199.951 199.951 199.955 199.954 199.954 199.914 183.943 190.358 193.846 197.233
          199.745 199.951 199.955 199.954 199.954 199.91 195.739 196.218 198.991 199.896 199.951 199.951
          199.955 199.954 199.954 199.953 199.449 199.634 199.952 199.952 199.951 199.951 199.955 199.954
          199.954 199.953 199.953 199.952 199.952 199.952 199.951 199.951 199.955 199.954 199.954 199.953
          199.953 199.952 199.952 199.952 199.951 199.951 199.955 199.954 199.954 199.953 199.953 199.952
          199.952 199.952 199.951 199.951 199.955 199.954 199.954 199.953 199.952 199.952 199.952 199.951
          199.951 199.951 199.955 199.954 199.954 199.953 199.952 199.952 199.952 199.951 199.951 199.951
          199.955 199.954 199.954 199.953 199.468 199.66 199.952 199.951 199.951 199.951 199.955 199.954
          199.953 199.906 195.929 196.386 199.05 199.924 199.951 199.951 199.955 199.954 199.953 199.901
          183.977 190.376 193.963 197.791 199.861 199.951 199.955 199.954 199.953 199.907 195.738 196.198
          199.014 199.923 199.951 199.951 199.955 199.954 199.953 199.953 199.428 199.6 199.952 199.951
          199.951 199.951 199.955 199.954 199.953 199.953 199.952 199.952 199.952 199.951 199.951 199.951
          199.955 199.954 199.953 199.953 199.952 199.952 199.951 199.951 199.951 199.951 199.955 199.954
          199.953 199.953 199.952 199.952 199.951 199.951 199.951 199.951 199.955 199.954 199.953 199.952
          199.952 199.951 199.951 199.951 199.951 199.951 199.955 199.954 199.953 199.952 199.952 199.951
          199.951 199.951 199.951 199.951 199.955 199.954 199.953 199.952 199.4 199.556 199.951 199.951
          199.951 199.951 199.955 199.954 199.953 199.907 195.5 196.084 199.018 199.931 199.951 199.951
          199.955 199.954 199.953 199.914 183.288 190.054 193.858 198.073 199.898 199.951 199.955 199.954
          199.953 199.907 195.304 195.925 198.829 199.929 199.951 199.951 199.955 199.954 199.953 199.952
          199.361 199.498 199.951 199.951 199.951 199.951 199.955 199.954 199.953 199.952 199.952 199.951
          199.951 199.951 199.951 199.951 199.955 199.954 199.953 199.952 199.952 199.951 199.951 199.951
          199.951 199.951 199.955 199.954 199.953 199.952 199.952 199.951 199.951 199.951 199.951 199.951
          199.955 199.953 199.952 199.952 199.951 199.951 199.95 199.95 199.95 199.95 199.955 199.953
          199.952 199.952 199.587 199.765 199.95 199.95 199.95 199.95 199.955 199.953 199.952 199.929
          196.058 196.361 198.983 199.95 199.95 199.95 199.955 199.953 199.952 199.914 188.114 189.765
          193.23 198.459 199.95 199.95 199.955 199.953 199.952 199.893 172.877 181.429 187.415 193.023
          199.058 199.95 199.955 199.953 199.952 199.914 187.884 189.56 193.074 198.304 199.95 199.95
          199.955 199.953 199.952 199.929 195.736 195.921 198.869 199.95 199.95 199.95 199.955 199.953
          199.952 199.952 199.483 199.686 199.95 199.95 199.95 199.95 199.955 199.953 199.952 199.952
          199.951 199.951 199.95 199.95 199.95 199.95 199.955 199.953 199.952 199.952 199.951 199.95
          199.95 199.95 199.95 199.95
        </DataArray>
        <DataArray type="Float32" Name="C^n from cellData" NumberOfComponents="1" format="ascii">
          0 0 0 3.49386e-15 6.38286e-11 4.53818e-12 1.4024e-13 2.5545e-15 8.07529e-18 0 0 0
          5.40372e-16 8.61018e-12 1.12158e-07 9.64285e-09 3.73198e-10 7.67298e-12 1.10783e-13 1.40996e-15 7.49973e-18 1.0459e-14 9.69246e-13 7.81872e-09
          9.01429e-05 7.92042e-06 4.66474e-07 1.09117e-08 1.58013e-10 2.08785e-12 2.82721e-13 1.39755e-11 1.03558e-09 3.67352e-06 0.0166255 0.00358762
          0.000410825 1.15271e-05 1.58196e-07 1.93423e-09 6.11016e-10 2.463e-08 1.39861e-06 0.00142604 0.0420017 0.0246397 0.0186962 0.00771856
          0.000129044 1.62775e-06 4.81626e-13 2.5116e-11 1.87672e-09 4.82181e-06 0.0167866 0.00437044 0.000479301 1.29907e-05 1.779e-07 2.172e-09
          2.17639e-16 2.23454e-14 2.17791e-12 1.22131e-08 0.00015322 1.11543e-05 6.29903e-07 1.41988e-08 2.02541e-10 2.64706e-12 0 2.49094e-18
          1.66761e-15 1.79334e-11 2.0787e-07 1.65939e-08 6.25475e-10 1.24507e-11 1.75728e-13 2.10515e-15 0 0 0 1.31501e-14
          1.82174e-10 1.27569e-11 3.82323e-13 6.84322e-15 2.01424e-17 0 0 0 0 0 6.49319e-14 3.72318e-15
          6.1317e-17 0 0 0 0 0 0 1.0521e-14 6.60308e-10 3.45794e-11 1.06906e-12 1.60569e-14
          3.99163e-17 0 0 0 5.70265e-16 2.32575e-11 1.58211e-06 8.59302e-08 3.61182e-09 6.80009e-11 6.77587e-13 4.79541e-15