<?xml version="1.0"?>
<VTKFile type="UnstructuredGrid" version="0.1" byte_order="LittleEndian">
  <UnstructuredGrid>
    <Piece NumberOfCells="4096" NumberOfPoints="4913">
      <CellData Scalars="wetting potential">
        <DataArray type="Float32" Name="wetting potential" NumberOfComponents="1" format="ascii">
          1.17248 1.46423 1.70962 1.86059 1.92701 1.88611 1.75465 1.53845 1.37963 1.32932 1.27726 1.2246
          1.1717 1.11913 1.06781 1.01937 1.14069 1.4598 1.63956 1.8268 1.84622 1.82948 1.70515 1.51913
          1.381 1.33715 1.28617 1.23064 1.17708 1.1247 1.07305 1.02207 1.13242 1.29733 1.54108 1.61122
          1.71971 1.72801 1.72293 1.68313 1.62707 1.57786 1.51556 1.43482 1.34407 1.24715 1.14731 1.04444
          1.05237 1.16054 1.24536 1.36087 1.43945 1.52011 1.5688 1.59796 1.62414 1.63674 1.63273 1.61125
          1.53237 1.41127 1.25811 1.0866 1.01941 1.06226 1.10487 1.14806 1.18941 1.22936 1.26988 1.30355
          1.39077 1.48929 1.53963 1.53853 1.48641 1.38665 1.24839 1.08398 1.0206 1.06606 1.11008 1.15259
          1.19327 1.23156 1.26665 1.29887 1.34569 1.38787 1.39945 1.38003 1.33141 1.25721 1.16265 1.05408
          1.01588 1.05122 1.08463 1.1159 1.14476 1.17043 1.19239 1.21069 1.22715 1.23482 1.22823 1.20835
          1.17633 1.13402 1.0836 1.0274 1.0051 1.01711 1.02766 1.03703 1.04491 1.05115 1.05577 1.05855
          1.05871 1.05517 1.05073 1.0437 1.03575 1.02655 1.01639 1.00539 0.988388 0.964691 0.941621 0.921389
          0.903192 0.890112 0.882355 0.878002 0.876507 0.884885 0.891359 0.905461 0.922562 0.9427 0.965128 0.989088
          0.965439 0.896339 0.832474 0.778307 0.735006 0.714038 0.703781 0.704908 0.734977 0.744974 0.777013 0.808391
          0.846502 0.888022 0.932488 0.979022 0.935688 0.812285 0.712608 0.614604 0.568707 0.554677 0.536106 0.614438
          0.626478 0.684608 0.713583 0.763773 0.813072 0.865104 0.919415 0.975194 0.931359 0.688889 0.616298 0.407173
          0.501355 0.355553 0.517466 0.496929 0.675905 0.64657 0.734781 0.772939 0.822662 0.872893 0.924673 0.977045
          0.851509 0.80151 0.455765 0.533224 0.314794 0.38629 0.332652 0.381104 0.409158 0.452982 0.502985 0.583742
          0.671283 0.763861 0.856438 0.953279 0.96891 0.777994 0.74962 0.570505 0.521354 0.421135 0.366814 0.322255
          0.28635 0.256033 0.250337 0.270846 0.362421 0.504685 0.687591 0.894189 0.977148 0.926244 0.87647 0.824727
          0.773715 0.723702 0.674537 0.629911 0.489324 0.300562 0.187915 0.158965 0.222562 0.37221 0.591914 0.858693
          0.978289 0.928682 0.878472 0.828507 0.778566 0.729479 0.681195 0.63409 0.484704 0.280996 0.157222 0.126597
          0.192272 0.347125 0.574258 0.850127 1.1785 1.50662 1.74943 1.91979 1.98479 1.94556 1.79967 1.57168
          1.40094 1.34688 1.29096 1.23473 1.17863 1.12324 1.06966 1.01977 1.17905 1.43793 1.73225 1.8333
          1.9268 1.85975 1.75528 1.5468 1.40652 1.36158 1.30893 1.24931 1.19091 1.13398 1.07817 1.02338
          1.09916 1.40333 1.4702 1.71377 1.72168 1.77678 1.7462 1.7059 1.64499 1.59327 1.53173 1.45849
          1.36746 1.26335 1.15532 1.04749 1.0654 1.19032 1.31533 1.37675 1.49664 1.56088 1.61117 1.63343
          1.64832 1.64308 1.62808 1.59078 1.53139 1.41643 1.26374 1.08335 1.01983 1.06864 1.11831 1.16988
          1.21455 1.26076 1.30705 1.33099 1.43187 1.51523 1.55467 1.54634 1.49155 1.39071 1.25088 1.08161
          1.02127 1.07118 1.1205 1.16819 1.21343 1.25533 1.29121 1.32769 1.37187 1.40943 1.41548 1.39132
          1.33966 1.26317 1.16568 1.05254 1.017 1.05717 1.09539 1.1309 1.16329 1.19128 1.21513 1.23304
          1.24638 1.24997 1.23919 1.21582 1.18147 1.1374 1.085 1.02632 1.00682 1.02368 1.03827 1.05066
          1.06055 1.06745 1.07106 1.07135 1.06742 1.06039 1.05152 1.0431 1.03436 1.02513 1.01518 1.00445
          0.991005 0.971381 0.95079 0.932294 0.913583 0.897434 0.885695 0.877866 0.873925 0.872186 0.881658 0.894823
          0.913575 0.935966 0.961131 0.987942 0.970048 0.903474 0.838254 0.788265 0.736652 0.706062 0.696558 0.696386
          0.698993 0.728571 0.753583 0.789839 0.831121 0.876961 0.926227 0.977465 0.941391 0.82693 0.707913 0.639912
          0.539195 0.536267 0.542432 0.5364 0.620078 0.641984 0.692872 0.740052 0.794322 0.851898 0.911981 0.973282
          0.881368 0.757051 0.566369 0.521024 0.300725 0.505418 0.326456 0.560924 0.585143 0.66866 0.694021 0.751508
          0.805256 0.860996 0.917889 0.975171 0.970084 0.583098 0.676108 0.251042 0.5199 0.248056 0.406199 0.340585
          0.38982 0.42255 0.479684 0.547686 0.638316 0.740001 0.8471 0.951229 0.923933 0.886584 0.572263 0.676382
          0.418089 0.417031 0.340118 0.321857 0.269381 0.252592 0.245493 0.278714 0.343098 0.482643 0.667889 0.890526
          0.975952 0.920244 0.870571 0.804392 0.759391 0.699331 0.649767 0.60292 0.463999 0.284444 0.172471 0.139929
          0.20069 0.35069 0.575258 0.853547 0.980865 0.933674 0.883664 0.833474 0.78126 0.731094 0.680831 0.632088
          0.475538 0.264191 0.135832 0.102206 0.167008 0.323415 0.555 0.840153 1.17329 1.46532 1.70643 1.86077
          1.93143 1.88846 1.75846 1.54048 1.37881 1.32766 1.27475 1.22147 1.16818 1.11579 1.06532 1.01853
          1.12628 1.456 1.6285 1.7923 1.8598 1.83727 1.70082 1.53501 1.3925 1.34891 1.29852 1.2418
          1.18608 1.13005 1.07544 1.02251 1.13901 1.27295 1.51022 1.64367 1.72785 1.75823 1.75836 1.69196
          1.63534 1.5847 1.52545 1.45529 1.37157 1.28035 1.16578 1.05039 1.07782 1.19737 1.37144 1.37892
          1.50604 1.56204 1.62872 1.66746 1.66507 1.65466 1.62444 1.58612 1.51869 1.40777 1.26475 1.08158
          1.02122 1.07529 1.13459 1.18284 1.23709 1.28124 1.33111 1.34718 1.4611 1.53309 1.56439 1.54876
          1.49319 1.39219 1.2522 1.07977 1.02246 1.07645 1.13065 1.18234 1.23072 1.27459 1.31134 1.34919
          1.39216 1.42259 1.42286 1.3942 1.34081 1.2638 1.16546 1.05076 1.01823 1.06185 1.10368 1.14225
          1.17677 1.20588 1.22973 1.24644 1.25634 1.25502 1.24049 1.21468 1.17948 1.13542 1.08303 1.02468
          1.00819 1.02795 1.04496 1.05886 1.0695 1.07588 1.07758 1.07463 1.06699 1.0567 1.0461 1.03677
          1.02851 1.02035 1.01175 1.00292 0.992839 0.975788 0.956654 0.93769 0.919125 0.900325 0.883839 0.871609
          0.864944 0.864171 0.870269 0.885118 0.905415 0.929785 0.957189 0.98661 0.973622 0.909202 0.845854 0.792587
          0.746114 0.703972 0.685791 0.687167 0.697114 0.709818 0.742833 0.77971 0.823352 0.871419 0.92295 0.976519
          0.954196 0.83402 0.721571 0.645657 0.577794 0.504151 0.537583 0.5647 0.576961 0.641527 0.679882 0.73313
          0.789397 0.848552 0.910186 0.972853 0.947873 0.757338 0.58869 0.531691 0.442197 0.281482 0.576642 0.39252
          0.655508 0.623224 0.698509 0.750415 0.803017 0.859412 0.917367 0.975103 0.879059 0.783413 0.708203 0.39995
          0.246457 0.455452 0.237426 0.411865 0.394312 0.434646 0.474554 0.541666 0.624641 0.720176 0.833441 0.949742
          0.954846 0.792836 0.672603 0.521412 0.560081 0.351099 0.332918 0.267911 0.283821 0.234039 0.245407 0.269028
          0.34528 0.475535 0.659586 0.886779 0.975034 0.918424 0.850813 0.79943 0.735201 0.688722 0.629378 0.58037
          0.448782 0.272376 0.160333 0.126339 0.182776 0.333629 0.561749 0.849795 0.981487 0.934924 0.885365 0.831954
          0.78007 0.726491 0.675637 0.625246 0.463341 0.247489 0.11606 0.0802394 0.144748 0.303021 0.539358 0.833168
          1.13536 1.38874 1.57158 1.72398 1.75047 1.74778 1.63034 1.45266 1.31624 1.27321 1.22879 1.18403
          1.1396 1.09592 1.05409 1.01534 1.13077 1.31767 1.54451 1.61576 1.73154 1.67612 1.61408 1.45148
          1.33486 1.29712 1.25409 1.20639 1.15747 1.11015 1.06321 1.01893 1.07692 1.32629 1.39282 1.52352
          1.66181 1.69499 1.70986 1.6768 1.60639 1.55531 1.496 1.42883 1.3478 1.25561 1.16365 1.05054
          1.08031 1.22293 1.23354 1.54992 1.42149 1.57967 1.58146 1.64396 1.69554 1.66114 1.62899 1.57362
          1.51354 1.40589 1.26111 1.08274 1.02263 1.08281 1.13915 1.19848 1.25283 1.29235 1.34028 1.36418
          1.47274 1.54554 1.57063 1.54904 1.49136 1.39095 1.25226 1.07787 1.02353 1.08072 1.13786 1.19213
          1.24146 1.28555 1.32401 1.36106 1.40245 1.42649 1.4227 1.39035 1.3364 1.26057 1.16279 1.04874
          1.01905 1.06476 1.10847 1.14822 1.18306 1.21203 1.23472 1.24955 1.25632 1.25007 1.23344 1.20657
          1.17207 1.1296 1.07864 1.02271 1.00909 1.03015 1.04783 1.06143 1.07142 1.07634 1.07565 1.06978
          1.05883 1.04621 1.03548 1.02684 1.01996 1.01366 1.00717 1.00126 0.994664 0.979676 0.96065 0.939221
          0.920854 0.900847 0.880963 0.864289 0.8548 0.854205 0.862599 0.87822 0.899622 0.925312 0.954278 0.985718
          0.977336 0.921106 0.858429 0.795312 0.758065 0.717847 0.690084 0.68188 0.692051 0.713646 0.74435 0.781215
          0.824471 0.872104 0.923344 0.976759 0.954563 0.868667 0.758455 0.640346 0.623135 0.556867 0.539784 0.562551
          0.61198 0.654245 0.696114 0.74655 0.799302 0.855555 0.914426 0.97426 0.898269 0.847315 0.685801 0.46299
          0.58625 0.416958 0.46505 0.52871 0.643788 0.67197 0.728683 0.769966 0.819017 0.870793 0.924394 0.977227
          1.0311 0.669396 0.557395 0.836557 0.293939 0.356362 0.326633 0.342152 0.410257 0.449583 0.49857 0.55803
          0.639675 0.732852 0.833331 0.948583 0.913377 0.863278 0.795791 0.4629 0.457785 0.462269 0.366746 0.291075
          0.230445 0.25845 0.233285 0.27389 0.339706 0.47209 0.65562 0.884669 0.973612 0.910048 0.847223 0.788382
          0.725724 0.669414 0.618587 0.565204 0.431454 0.256599 0.147327 0.112191 0.168436 0.320382 0.551131 0.847081
          0.98151 0.934738 0.883097 0.829613 0.775408 0.721546 0.668165 0.616923 0.451936 0.232375 0.0987328 0.0614918
          0.125604 0.285838 0.52668 0.828254 1.09638 1.24804 1.40719 1.45951 1.53855 1.50019 1.43556 1.31514
          1.21954 1.1894 1.15834 1.12702 1.09594 1.06574 1.03691 1.01045 1.06373 1.25106 1.28788 1.52827
          1.32428 1.55855 1.42431 1.34965 1.25171 1.22054 1.18656 1.15103 1.11509 1.07927 1.04552 1.01361
          1.06203 1.2199 1.38077 1.34675 1.57876 1.54146 1.58278 1.59728 1.56814 1.51494 1.45421 1.38548
          1.31366 1.23519 1.13971 1.04875 1.08007 1.19687 1.37051 1.23429 1.61436 1.49847 1.61789 1.57761
          1.64651 1.68401 1.62698 1.57065 1.49085 1.39694 1.25866 1.08324 1.02452 1.08544 1.14918 1.20656
          1.26527 1.2884 1.34519 1.37888 1.48322 1.55637 1.57724 1.54895 1.48756 1.38779 1.251 1.07792
          1.02418 1.08312 1.14123 1.19554 1.24363 1.28993 1.32969 1.36441 1.40372 1.41957 1.41513 1.38007
          1.32747 1.25489 1.15763 1.04624 1.01927 1.06534 1.1089 1.14783 1.18165 1.20917 1.22922 1.24196
          1.24648 1.23517 1.21944 1.19319 1.16113 1.12125 1.07236 1.02092 1.00913 1.02972 1.04648 1.05843
          1.06622 1.0684 1.06506 1.05695 1.04365 1.0311 1.02209 1.01504 1.01018 1.00624 1.00229 0.999483
          0.994952 0.980714 0.963001 0.940807 0.920287 0.897607 0.875166 0.856458 0.846321 0.848632 0.859491 0.874974
          0.897091 0.923366 0.952999 0.985607 0.978513 0.924999 0.876549 0.817288 0.775423 0.732516 0.700319 0.688806
          0.704688 0.735162 0.757266 0.793417 0.833941 0.879027 0.927691 0.978322 0.968851 0.860759 0.815243 0.714273
          0.664996 0.602322 0.558468 0.596452 0.685497 0.678784 0.734924 0.774259 0.820599 0.871251 0.924133 0.977439
          1.03419 0.748382 0.823152 0.661337 0.60779 0.518563 0.374306 0.779929 0.593277 0.785423 0.760453 0.800565
          0.84526 0.890877 0.936929 0.981137 0.91958 1.01941 0.521351 0.620602 0.593122 0.458489 0.542094 0.254749
          0.406664 0.445673 0.523859 0.597391 0.662626 0.750078 0.847457 0.950725 0.957169 0.769186 0.773436 0.730006
          0.453625 0.31642 0.373925 0.406224 0.238318 0.238883 0.259185 0.269232 0.352215 0.474477 0.654947 0.883301
          0.97248 0.912662 0.847425 0.775068 0.724013 0.661983 0.601071 0.551644 0.413194 0.243353 0.133556 0.0986859
          0.154579 0.309723 0.542523 0.845557 0.981158 0.933028 0.880717 0.826782 0.77029 0.715848 0.661902 0.608902
          0.441436 0.218492 0.0838506 0.0455972 0.109726 0.271745 0.516608 0.825016 1.02996 1.11069 1.14583 1.2169
          1.21688 1.21051 1.20622 1.14101 1.09691 1.08283 1.06854 1.05433 1.04051 1.02722 1.01509 1.00424
          1.04422 1.02996 1.20145 1.07405 1.32343 1.13348 1.20338 1.19405 1.15537 1.13526 1.11032 1.08633
          1.06354 1.04262 1.02254 1.00658 1.00712 1.1772 1.24075 1.33814 1.24357 1.43378 1.47723 1.42029
          1.44141 1.45754 1.40234 1.33793 1.27261 1.19838 1.12899 1.03804 1.07295 1.20466 1.25389 1.47251
          1.25331 1.59925 1.55157 1.64018 1.56457 1.63903 1.64251 1.55168 1.47239 1.38132 1.24837 1.08789
          1.02455 1.08793 1.14492 1.19922 1.24074 1.28544 1.37126 1.40247 1.49001 1.57171 1.59412 1.55061
          1.47508 1.38733 1.2553 1.05806 1.02439 1.08361 1.14126 1.19429 1.2435 1.29003 1.32355 1.35341
          1.39565 1.39298 1.3933 1.35992 1.31695 1.24682 1.14637 1.05107 1.01882 1.06324 1.10485 1.14144
          1.17253 1.19617 1.21302 1.22475 1.22996 1.2153 1.20414 1.17909 1.14823 1.11133 1.06699 1.01558
          1.00851 1.02678 1.04084 1.04982 1.0541 1.05303 1.04795 1.03866 1.02162 1.0152 1.00676 1.00173
          1.00042 0.998866 0.996694 0.99934 0.99591 0.980386 0.961886 0.93999 0.91678 0.892522 0.870348 0.854234
          0.845709 0.852076 0.860539 0.876708 0.898537 0.924349 0.954106 0.985885 0.987252 0.936105 0.886693 0.842123
          0.79438 0.758765 0.737428 0.726653 0.747051 0.762473 0.782706 0.815452 0.85171 0.892368 0.936145 0.981358
          0.990139 0.919634 0.822822 0.792795 0.704391 0.716142 0.684738 0.694436 0.73307 0.733605 0.783504 0.813414
          0.85279 0.895452 0.939158 0.982324 0.924816 1.0316 0.724145 0.847328 0.594023 0.991939 0.560496 0.805291
          0.684995 0.852698 0.803103 0.846442 0.883169 0.919529 0.954712 0.986299 1.01739 0.842941 0.936876 0.574311
          0.823678 0.37423 0.516881 0.662796 0.484353 0.497278 0.553605 0.617015 0.703898 0.774341 0.861898 0.957232
          0.948014 0.861298 0.67372 0.718183 0.586216 0.520047 0.243545 0.272259 0.36862 0.239318 0.267335 0.296151
          0.362115 0.484688 0.659267 0.882607 0.972029 0.905673 0.849666 0.783554 0.713688 0.649971 0.602495 0.544433
          0.398675 0.234693 0.126315 0.0876838 0.144441 0.301064 0.535017 0.84545 0.980912 0.932437 0.878193 0.822737
          0.767457 0.71111 0.655062 0.602029 0.43202 0.206651 0.0714045 0.0326462 0.0967976 0.26061 0.508877 0.823516
          0.97635 0.930502 0.920105 0.897443 0.89202 0.921451 0.926271 0.951536 0.966136 0.968619 0.972206 0.976415
          0.980754 0.985796 0.991466 0.997554 0.960691 0.940031 0.837847 0.960129 0.903893 0.891619 1.08886 0.9774
          1.00731 1.0171 1.01161 1.00534 1.00239 0.998099 0.99588 0.996834 0.997261 1.02419 1.18606 1.20194
          1.1305 1.22437 1.15859 1.38077 1.31071 1.26683 1.36466 1.28581 1.20865 1.16657 1.09962 1.03561
          1.05711 1.19039 1.28163 1.25539 1.55023 1.26168 1.51697 1.57706 1.61195 1.56243 1.65423 1.5841
          1.44882 1.35872 1.25076 1.07813 1.02609 1.09285 1.1543 1.20805 1.26041 1.30729 1.38612 1.35692
          1.40832 1.44304 1.45076 1.42711 1.45652 1.37996 1.19246 1.12322 1.02396 1.08034 1.13601 1.18781
          1.23449 1.27605 1.29658 1.33159 1.41539 1.38734 1.41132 1.37577 1.30879 1.23683 1.15572 1.02758
          1.01768 1.05952 1.09752 1.13011 1.15684 1.17614 1.19509 1.20324 1.19413 1.1886 1.17438 1.1507
          1.13344 1.10142 1.05278 1.02065 1.00749 1.02164 1.03148 1.03648 1.03675 1.03312 1.02298 1.02683
          0.981953 1.00699 0.990421 0.992239 0.990431 0.98983 0.994883 0.995361 0.997332 0.980135 0.959542 0.93789
          0.912235 0.888058 0.87583 0.829076 0.885313 0.849706 0.867174 0.883845 0.904011 0.928535 0.956854 0.988418
          0.991312 0.95336 0.906015 0.871025 0.818401 0.796607 0.771298 0.811461 0.756553 0.805733 0.824662 0.849129
          0.878357 0.912277 0.948701 0.985565 0.976879 0.961658 0.900002 0.872656 0.756874 0.805194 0.764205 0.733715
          0.853218 0.831754 0.854367 0.870459 0.89763 0.928419 0.959418 0.988754 1.04237 0.916319 1.02623 0.962075
          0.649107 0.855788 0.707337 1.04132 0.820096 0.929545 0.882384 0.910886 0.933754 0.957024 0.978308 0.993668
          0.994311 1.00888 0.919617 0.647974 0.951228 0.736781 0.687599 0.442879 0.707594 0.633957 0.643837 0.686362
          0.734026 0.814121 0.882258 0.963787 0.957099 0.865011 0.731401 0.723266 0.60294 0.543856 0.488598 0.285642
          0.266408 0.314202 0.275989 0.319996 0.384555 0.497055 0.666346 0.883132 0.971148 0.906366 0.840528 0.785535
          0.715593 0.656409 0.58194 0.543246 0.39927 0.234559 0.121986 0.0833881 0.138636 0.297594 0.530659 0.846454
          0.980669 0.931354 0.877434 0.82026 0.764024 0.70672 0.652452 0.59621 0.424339 0.197687 0.0626165 0.0229222
          0.0872308 0.252291 0.503269 0.824327 0.916446 0.782545 0.671626 0.603821 0.582795 0.60375 0.666196 0.763612
          0.831343 0.854707 0.875912 0.898031 0.921079 0.944489 0.968311 0.991244 0.926217 0.771309 0.722951 0.606173
          0.629292 0.686016 0.702012 0.821763 0.869629 0.876057 0.908907 0.923313 0.936348 0.952134 0.966288 0.98523
          0.968999 0.95908 0.959377 1.09052 1.10733 0.938566 1.09499 1.06178 1.19754 1.21916 1.05045 1.28264
          1.19591 1.09942 1.08034 1.02486 1.04562 1.14543 1.28547 1.28414 1.24998 1.5717 1.27621 1.36963
          1.6681 1.45012 1.59735 1.57 1.42363 1.33944 1.23016 1.08469 1.02422 1.07885 1.13194 1.18894
          1.23923 1.29654 1.3138 1.28475 1.53861 1.62325 1.69577 1.69018 1.47466 1.34636 1.29754 1.02143
          1.023 1.08006 1.1338 1.18185 1.22501 1.25914 1.28503 1.31998 1.42028 1.30831 1.34868 1.29285
          1.29633 1.24284 1.11448 1.05408 1.0162 1.05326 1.0863 1.11397 1.13603 1.15262 1.16593 1.22012
          1.06368 1.20657 1.14509 1.14501 1.11436 1.079 1.05716 1.00513 1.00615 1.01477 1.01919 1.01971
          1.01586 1.00924 1.01187 0.908047 1.08699 0.949186 0.978876 0.980946 0.979653 0.982537 0.988181 1.00055
          0.997583 0.979962 0.958132 0.936161 0.909036 0.888336 0.846075 0.966162 0.773792 0.887266 0.882188 0.894284
          0.913302 0.93679 0.962937 0.990034 0.990694 0.968294 0.934288 0.902621 0.854801 0.844904 0.876063 0.722126
          0.926307 0.861354 0.868418 0.887991 0.911646 0.937995 0.964822 0.990187 1.01953 0.973606 0.97548 0.938855
          0.887263 0.93016 0.827976 1.06242 0.86465 0.892841 0.919695 0.933043 0.950792 0.968504 0.983739 0.995726
          0.987533 1.11362 1.02075 1.01302 1.21754 1.04329 1.19249 0.838553 0.96217 1.01512 0.976557 0.993029
          1.00035 1.00909 1.00905 1.00423 1.02983 1.00674 1.03534 1.01326 0.543043 1.14764 0.681247 0.969367
          0.622931 0.771343 0.75278 0.756791 0.818807 0.849846 0.915388 0.972304 0.961478 0.892476 0.800018 0.604386
          0.848223 0.448795 0.592175 0.420353 0.311724 0.287179 0.320244 0.346312 0.41244 0.513589 0.675555 0.884261
          0.970599 0.90516 0.839551 0.78236 0.713039 0.659779 0.589841 0.535604 0.390189 0.242838 0.123191 0.0836931
          0.13788 0.298616 0.528803 0.848557 0.980483 0.930747 0.876172 0.81921 0.762384 0.70426 0.648764 0.594351
          0.420846 0.192484 0.0576426 0.0174564 0.0813965 0.247296 0.499986 0.828514 0.88885 0.700622 0.548851 0.451602
          0.416368 0.440921 0.529681 0.659781 0.759429 0.791939 0.823373 0.856143 0.889684 0.92341 0.956651 0.987432
          0.898362 0.714813 0.590147 0.493244 0.473551 0.534759 0.586782 0.709956 0.777953 0.797558 0.829284 0.859567
          0.8868 0.921222 0.953212 0.98933 0.953512 0.900601 0.877145 0.908497 0.984906 0.936978 0.928749 0.908236
          1.01219 1.12058 1.14326 0.934792 1.17651 1.12259 1.03854 1.02023 1.02682 1.09345 1.16554 1.30796
          1.26484 1.19354 1.42557 1.40731 1.09957 1.73405 1.24147 1.75749 1.39607 1.25147 1.23631 1.07006
          1.02627 1.08934 1.14941 1.19571 1.24117 1.27025 1.26356 1.40234 1.69136 1.21132 1.38883 1.23327
          1.46957 1.45108 1.12473 1.13055 1.02133 1.07057 1.11757 1.15928 1.19604 1.23146 1.28882 1.34241
          1.072 1.40533 1.30665 1.32889 1.2574 1.1788 1.1472 1.0092 1.01363 1.0418 1.06655 1.08686
          1.10276 1.11546 1.11318 1.01835 1.26803 1.08935 1.11636 1.11726 1.08523 1.05952 1.03555 1.02166
          1.00426 1.00608 1.00467 1.0002 0.991643 0.979488 0.952846 1.07403 0.866529 0.984604 0.960747 0.965581
          0.969701 0.978416 0.987777 0.998739 0.995619 0.979699 0.958461 0.936566 0.910617 0.894232 0.920058 0.786681
          0.950921 0.873377 0.892742 0.90668 0.925609 0.94794 0.971222 0.993461 1.0025 0.972799 0.957088 0.930089
          0.901323 0.907116 0.852779 0.971562 0.856083 0.904211 0.91272 0.92592 0.943502 0.962513 0.980452 0.995977
          0.996329 1.02865 1.00561 0.997749 1.02584 0.989592 1.02808 0.94231 0.997882 0.987742 0.984836 0.988075
          0.995225 1.00139 1.00383 1.00138 1.05493 1.06013 1.15725 1.18498 1.07083 1.09409 1.13886 1.09849
          1.11134 1.07358 1.04564 1.0488 1.04234 1.03212 1.02094 1.00565 1.03347 1.05889 1.06701 1.07236
          0.927709 0.879716 1.0407 0.883901 0.932796 0.7778 0.886468 0.850441 0.846851 0.913086 0.940313 0.983591
          0.978558 0.913165 0.864088 0.786139 0.577367 0.832381 0.530161 0.601012 0.474176 0.320725 0.32784 0.40301
          0.485515 0.542428 0.698697 0.889771 0.971402 0.910423 0.851817 0.791908 0.730006 0.657305 0.617102 0.550358
          0.401007 0.26289 0.155217 0.0819228 0.12795 0.317515 0.522099 0.831964 0.980022 0.929208 0.874171 0.817736
          0.760662 0.703797 0.64532 0.592503 0.416242 0.191999 0.0556734 0.0152386 0.0760962 0.242827 0.496944 0.810649
          0.880908 0.67728 0.51374 0.40801 0.368793 0.394506 0.487327 0.633764 0.739386 0.772086 0.808989 0.843444
          0.880958 0.916782 0.953127 0.986619 0.891806 0.696334 0.556382 0.454228 0.425915 0.481919 0.56201 0.659106
          0.751023 0.790015 0.803885 0.84671 0.869001 0.91211 0.946053 0.98367 0.943699 0.867687 0.821698 0.821607
          0.862796 0.918933 0.798584 0.955263 0.814918 0.858907 1.14051 0.978289 1.03048 1.09209 1.04599 1.00681
          1.01081 1.03318 1.07132 1.11989 1.24173 1.22464 1.15087 1.11513 1.49536 1.22523 1.35124 1.17084
          1.44693 1.34659 1.10522 1.09712 1.01961 1.06524 1.1058 1.14474 1.18435 1.22844 1.15763 1.30353
          1.05886 1.65623 1.57671 1.70706 1.32652 1.13333 1.31335 0.986637 1.01591 1.05043 1.08181 1.109
          1.13031 1.13686 1.15857 1.13303 1.31055 1.2572 1.20439 1.2737 1.18606 1.13898 1.08025 1.05546
          1.00882 1.02459 1.03711 1.04579 1.05 1.05362 1.05833 1.11006 1.02464 1.06347 1.05221 1.06012
          1.04556 1.04134 1.02404 1.01052 1.00067 0.996312 0.988978 0.9795 0.968388 0.960588 0.963752 0.914331
          0.967554 0.934647 0.944466 0.951064 0.961612 0.976484 0.989468 0.999033 0.997967 0.978327 0.961323 0.941329
          0.921874 0.912918 0.892779 0.916273 0.888288 0.905913 0.911091 0.924184 0.941688 0.961218 0.980232 0.99642
          0.996082 0.991683 0.973906 0.958532 0.951827 0.940304 0.935754 0.942167 0.941474 0.941295 0.949803 0.95882
          0.970624 0.982661 0.992658 0.999116 1.01874 1.02735 1.04671 1.0529 1.03924 1.03374 1.06024 1.01924
          1.03418 1.03116 1.0226 1.02006 1.02079 1.01854 1.01318 1.00446 1.01857 1.15899 1.18598 1.22037
          1.27916 1.23838 1.21338 1.15921 1.11668 1.0876 1.07603 1.08436 1.06128 1.04382 1.02902 1.01032
          1.04305 1.07585 1.10561 1.12434 1.03002 0.949207 1.03939 0.957735 1.07834 0.913688 0.90109 0.951567
          0.906932 0.925363 0.967179 0.989399 0.990297 0.961367 0.912903 0.878481 0.830808 0.689767 0.787889 0.670796
          0.606561 0.591317 0.441797 0.465977 0.530177 0.673389 0.730857 0.904787 0.975605 0.925764 0.879231 0.830941
          0.782462 0.736852 0.690611 0.664955 0.539395 0.266163 0.213358 0.185887 0.250885 0.307477 0.576011 0.843569
          0.981483 0.934517 0.884337 0.833116 0.781319 0.729488 0.678947 0.628933 0.47755 0.271207 0.133628 0.0977739
          0.157002 0.311614 0.531689 0.830859 0.873422 0.655338 0.480517 0.366526 0.323514 0.350319 0.449369 0.604169
          0.721091 0.757298 0.793855 0.83248 0.872002 0.912327 0.949784 0.985857 0.884997 0.677298 0.522869 0.415695
          0.38042 0.428392 0.509766 0.650843 0.714187 0.750015 0.795871 0.823401 0.859315 0.889745 0.941214 0.980582
          0.934182 0.835413 0.768761 0.738463 0.755858 0.777711 0.915141 0.591711 0.966174 0.841337 0.78996 1.03706
          0.883321 1.1074 1.00448 1.00432 0.998749 0.995547 0.992809 1.01335 1.04189 1.13939 1.2031 1.19945
          0.756113 1.13095 1.47476 1.17368 1.3153 1.05153 1.26554 1.01741 1.01175 1.03958 1.06302 1.08522
          1.11383 1.15228 1.06566 1.2868 1.14869 1.28089 0.79224 1.35108 1.29157 1.37499 0.995524 1.13921
          1.00897 1.02694 1.04242 1.05575 1.06745 1.07168 1.11084 1.09147 1.07047 1.08382 1.06951 1.1292
          1.11051 1.13189 1.06323 1.01243 1.00311 1.00608 1.00673 1.00546 1.00307 1.00382 0.996277 0.984819
          0.997986 0.992966 0.99374 0.998494 1.00417 1.01885 1.02003 1.00656 0.997987 0.986866 0.974884 0.961996
          0.949705 0.93926 0.929435 0.930239 0.926566 0.926722 0.930706 0.940822 0.956768 0.974944 0.990971 1.00081
          0.995901 0.982352 0.966487 0.951145 0.938253 0.927895 0.921644 0.924213 0.9221 0.9259 0.933949 0.94579
          0.960651 0.97578 0.989221 0.999035 1.00365 1.00132 0.998741 0.994102 0.987741 0.982848 0.986187 0.982784
          0.984782 0.986641 0.989282 0.993507 0.99886 1.00289 1.00434 1.00244 1.01469 1.05946 1.08255 1.09961
          1.11066 1.10505 1.11014 1.0837 1.07894 1.07009 1.06198 1.05578 1.04692 1.03632 1.02362 1.00767
          1.05322 1.1369 1.2093 1.26246 1.27109 1.24578 1.22532 1.1956 1.15181 1.14014 1.12117 1.10055
          1.07164 1.05437 1.03672 1.01321 1.04583 1.10975 1.1455 1.17439 1.15662 1.0613 1.05674 1.11843
          0.955352 1.19047 0.938284 1.0188 0.996131 0.963858 0.982548 0.998759 0.999571 0.988384 0.978159 0.945776
          0.916828 0.888174 0.813696 0.826611 0.810404 0.694764 0.654387 0.622382 0.656945 0.70658 0.832053 0.909046
          0.984047 0.946485 0.911745 0.877421 0.841344 0.807495 0.774215 0.742981 0.664552 0.526002 0.385332 0.291091
          0.346458 0.504606 0.612265 0.892889 0.985289 0.948378 0.909126 0.869223 0.82938 0.78973 0.75102 0.713659
          0.592962 0.418573 0.318276 0.279743 0.321805 0.437277 0.630146 0.859516 0.866679 0.635238 0.449723 0.327536
          0.28053 0.30888 0.413617 0.57886 0.702585 0.741247 0.780834 0.823146 0.864215 0.906213 0.948293 0.985286
          0.878156 0.658218 0.48986 0.377661 0.338484 0.378227 0.466393 0.606867 0.698158 0.732164 0.771642 0.803172
          0.848952 0.888932 0.924419 0.979086 0.923837 0.803737 0.715553 0.663594 0.645858 0.679054 0.691472 0.944876
          0.497021 0.75009 0.768636 0.910124 0.874563 0.835487 1.08688 0.977 0.992619 0.962101 0.94295 0.920301
          0.922064 0.918796 1.00138 1.05011 1.46804 0.761343 0.80854 0.98191 1.28961 1.36778 0.880384 1.12777
          1.00436 1.01356 1.01838 1.02219 1.02754 1.03964 0.933148 1.21316 0.795314 1.43238 1.2749 1.07159
          1.01924 1.09876 1.26783 0.925829 1.00158 1.00247 1.001 0.997696 0.993116 0.984101 1.01532 0.952357
          1.03797 1.07509 1.02701 0.99244 1.00469 1.02885 1.07537 1.01847 0.997509 0.988193 0.977404 0.965803
          0.954665 0.948532 0.933917 0.948255 0.951148 0.94196 0.936605 0.943398 0.965203 0.984836 1.00701 1.0095
          0.99503 0.979672 0.963771 0.948254 0.934425 0.922869 0.918895 0.916555 0.912934 0.913959 0.921638 0.936088
          0.955581 0.973585 0.990167 1.00106 0.997288 0.986572 0.97566 0.965061 0.955516 0.948994 0.946464 0.946217
          0.947716 0.952467 0.960082 0.970008 0.980999 0.99055 0.997689 1.00117 1.00599 1.0175 1.02492 1.02975
          1.03186 1.03174 1.0342 1.03162 1.03178 1.03117 1.03016 1.02899 1.0268 1.02267 1.01574 1.00558
          1.02421 1.07649 1.11606 1.14573 1.16111 1.16117 1.15959 1.14059 1.12742 1.11535 1.10225 1.08816
          1.07126 1.05392 1.03372 1.01055 1.05038 1.16227 1.24585 1.30205 1.32204 1.31046 1.28318 1.23487
          1.18892 1.16917 1.14799 1.11256 1.0986 1.07409 1.04596 1.01447 1.05565 1.13537 1.19148 1.22884
          1.24424 1.20343 1.1319 1.13607 1.17372 1.01838 1.26312 0.989788 1.10535 1.03221 1.00164 1.00647
          1.00401 1.0225 1.02392 1.02865 1.01037 0.994565 0.970934 0.928585 0.893131 0.918852 0.920637 0.7608
          0.783003 0.828748 0.885074 0.941907 0.990287 0.967771 0.948863 0.929726 0.911316 0.893998 0.877995 0.86161
          0.801861 0.706023 0.526574 0.658781 0.550023 0.623283 0.758814 0.916978 0.99063 0.967064 0.942109 0.91705
          0.892044 0.867439 0.843527 0.820652 0.747692 0.641358 0.563031 0.527816 0.569972 0.638431 0.75077 0.91113
          0.86082 0.617328 0.421607 0.291608 0.240348 0.270076 0.380054 0.555376 0.687226 0.728725 0.77073 0.812813
          0.857912 0.902999 0.944974 0.984544 0.87287 0.641008 0.460108 0.340129 0.297592 0.333267 0.428207 0.576209
          0.669628 0.701909 0.745053 0.7995 0.830512 0.873791 0.930945 0.977219 0.914644 0.770939 0.662758 0.590794
          0.55921 0.560952 0.587634 0.638813 0.863831 0.676482 0.628747 0.603878 0.95465 0.880358 0.809336 1.03348
          0.982357 0.938103 0.892735 0.859461 0.819732 0.795879 0.773744 0.761753 0.725606 1.12577 1.09697 0.963111
          0.538474 1.14847 1.30967 0.897792 0.997152 0.989695 0.979098 0.966894 0.955104 0.940974 0.907721 0.93353
          0.985317 0.828888 0.861798 0.943826 1.13944 0.995321 0.981129 1.11266 0.994457 0.979482 0.962923 0.945442
          0.928186 0.913353 0.910108 0.910512 0.880945 0.853143 0.874666 0.913475 0.986972 0.971274 0.98279 1.01932
          0.992372 0.972241 0.951477 0.93105 0.91255 0.89843 0.888493 0.876252 0.864442 0.864605 0.87989 0.905964
          0.942976 0.959887 0.9801 1.00031 0.99304 0.974426 0.955971 0.938534 0.923295 0.911825 0.903253 0.897844