<?xml version="1.0"?>
<VTKFile type="UnstructuredGrid" version="0.1" byte_order="LittleEndian">
  <UnstructuredGrid>
    <Piece NumberOfCells="6000" NumberOfPoints="1331">
      <PointData Vectors="d">
        <DataArray type="Float64" Name="d" NumberOfComponents="3" format="ascii">
          -3.81847917582375 -3.81847917582375 0 -3.82752437208102 -3.82752437208102 0.082163674573073 -3.90902829400464 -3.83978037995737 0 -3.88861057546533 -3.88861057546533 0
          -3.84881389283807 -3.74909232898026 0.170878840341801 -3.83978037995737 -3.90902829400464 0 -3.74909232898026 -3.84881389283807 0.170878840341801 -3.73876936491793 -3.73876936491793 0.261817397115801
          -3.82837189946832 -3.94369277450795 0.000370417418298535 -3.93777999565174 -3.96305342182152 0 -3.87549537601499 -4.00951710425022 0 -3.89452954355048 -3.86897647463601 0.0883362580195676
          -3.73528169761696 -4.18645569741323 -0.0819240132976734 -3.94369277450795 -3.82837189946832 0.000370417418298815 -4.00951710425022 -3.87549537601499 0 -3.96305342182152 -3.93777999565174 0
          -3.868976474636 -3.89452954355049 0.0883362580195683 -4.18645569741323 -3.73528169761696 -0.0819240132976733 -3.94223866408064 -3.94223866408064 -0.0843398901244224 -3.99122028509315 -3.99122028509315 0
          -3.83948850754478 -4.19841763103409 -0.1741236488803 -4.19841763103409 -3.83948850754479 -0.1741236488803 -3.70658793665376 -3.70658793665376 0.168809114687336 -3.60892299950564 -3.60892299950564 0.51265019648931
          -3.72254609480074 -3.62741700498775 0.338959197185777 -3.62741700498775 -3.72254609480074 0.338959197185777 -3.50380554301968 -3.50380554301969 0.26009044541707 -3.71371213100813 -3.82714773043138 -0.000276121729057756
          -3.77676777098618 -3.75113602259646 0.173505665586897 -3.63028457766319 -4.07527557597583 -0.166171240132671 -3.52012711365956 -3.63017143408684 0.0115651953261748 -3.82714773043138 -3.71371213100813 -0.000276121729057714
          -3.75113602259646 -3.77676777098619 0.173505665586897 -4.07527557597583 -3.63028457766319 -0.166171240132671 -3.63017143408684 -3.52012711365956 0.0115651953261741 -3.8335023661422 -3.8335023661422 -0.179225051539111
          -3.74160075928528 -4.09708603576986 -0.36141453380106 -4.09708603576986 -3.74160075928528 -0.36141453380106 -3.64734524532168 -3.64734524532168 -0.252407690537071 -3.87256192329924 -4.18449663695515 0
          -3.77413073300267 -4.25464670598418 0 -3.84108336700748 -4.08831975031579 0.00750266512327947 -3.53120813144722 -4.52005728694872 -0.162299222383337 -3.56208280189584 -4.58888245260574 0
          -3.66354851243823 -4.38196447443461 -0.0700061713730305 -3.68447714664279 -4.48066812976023 0 -3.20626577389005 -4.90027846925662 -0.239675075804413 -3.3612488218869 -4.81250384504582 0
          -3.23107193859014 -4.96791714025484 0 -3.34779782541711 -4.71356305828709 -0.143977192904663 -3.87901602610061 -4.24769348047524 0 -3.6207258270009 -4.55509899693705 -0.263651661943524
          -3.65198922974329 -4.60364755578557 0 -4.09863013180788 -4.09863013180788 -0.274602137221073 -3.87358307355668 -4.46606609731131 -0.378166123925621 -3.28051735288925 -4.96461181170701 -0.351392798560155
          -3.30609056652039 -5.01162645308912 0 -3.5166772477577 -4.89308791193368 -0.482300693027757 -3.73377396314598 -3.97471129523968 0.013414745197335 -3.43802194753926 -4.41422363545194 -0.327380610092419
          -3.56858417393007 -4.27122907912596 -0.140559278597298 -3.45069866802536 -3.88433436095605 -0.233128849819707 -3.27688402158155 -4.2295352061995 -0.469071534183269 -3.12662536643287 -4.79953484712111 -0.479891065395583
          -3.26666905511866 -4.60532660050405 -0.285734008034748 -2.98637392513578 -4.62144629081096 -0.691334774831513 -3.53458452244515 -4.46174024999573 -0.542722124093755 -4.00941678945454 -4.00941678945455 -0.567148075469972
          -3.79754427253672 -4.38725961416381 -0.778561018645517 -3.5721473050995 -3.91978186877562 -0.521350716912261 -3.38564469791988 -4.29408293462859 -0.787163833272553 -3.20761340702057 -4.87923631720654 -0.717598191683573
          -3.45504385882716 -4.82554719469005 -0.987797364022802 -3.08031126567992 -4.72186381424176 -1.04298575092956 -4.25464670598417 -3.77413073300267 0 -4.18449663695515 -3.87256192329924 0
          -4.08831975031579 -3.84108336700748 0.00750266512328031 -4.52005728694872 -3.53120813144722 -0.162299222383337 -4.58888245260574 -3.56208280189584 0 -4.38196447443461 -3.66354851243823 -0.0700061713730303
          -4.24769348047523 -3.87901602610061 0 -4.55509899693705 -3.62072582700091 -0.263651661943524 -4.60364755578557 -3.65198922974329 0 -4.46606609731131 -3.87358307355668 -0.37816612392562
          -4.48066812976023 -3.6844771466428 0 -4.90027846925662 -3.20626577389005 -0.239675075804413 -4.96791714025484 -3.23107193859014 0 -4.81250384504582 -3.3612488218869 0
          -4.71356305828709 -3.34779782541711 -0.143977192904663 -4.964611811707 -3.28051735288925 -0.351392798560155 -5.01162645308911 -3.30609056652039 0 -4.89308791193368 -3.5166772477577 -0.482300693027757
          -3.97471129523968 -3.73377396314598 0.0134147451973359 -4.41422363545194 -3.43802194753926 -0.327380610092419 -4.27122907912596 -3.56858417393007 -0.140559278597298 -3.88433436095605 -3.45069866802537 -0.233128849819707
          -4.2295352061995 -3.27688402158155 -0.469071534183269 -4.46174024999572 -3.53458452244515 -0.542722124093755 -4.3872596141638 -3.79754427253672 -0.778561018645516 -3.91978186877562 -3.5721473050995 -0.521350716912261
          -4.29408293462859 -3.38564469791988 -0.787163833272553 -4.79953484712111 -3.12662536643287 -0.479891065395583 -4.60532660050405 -3.26666905511866 -0.285734008034748 -4.62144629081095 -2.98637392513578 -0.691334774831512
          -4.87923631720653 -3.20761340702057 -0.717598191683573 -4.82554719469005 -3.45504385882716 -0.987797364022801 -4.72186381424175 -3.08031126567992 -1.04298575092956 -4.13761938136802 -4.13761938136802 0
          -3.90316744584826 -4.50325372811832 0 -4.50325372811832 -3.90316744584826 0 -4.24004879564436 -4.24004879564436 -0.500547215105341 -3.53976488413267 -4.92761376721604 0
          -4.26633828373793 -4.26633828373793 0 -3.86668799349569 -4.67184588542136 -0.626496970286959 -3.8851241989613 -4.6941802671164 0 -4.92761376721604 -3.53976488413267 0
          -4.67184588542136 -3.86668799349569 -0.626496970286959 -4.6941802671164 -3.8851241989613 0 -4.2856174797928 -4.28561747979281 -0.778005498011066 -4.29839903792494 -4.29839903792494 0
          -4.17720073286075 -4.17720073286075 -1.02928704215679 -3.85224027818092 -3.85224027818092 -0.826112127450064 -3.6642248004965 -4.2442918136249 -1.13733835392298 -4.24429181362489 -3.6642248004965 -1.13733835392297
          -3.81996631529843 -4.62389601413224 -1.28384490332215 -3.34561515895369 -4.69809944218808 -1.44516334427705 -4.06311617641373 -4.06311617641374 -1.50809704679712 -3.73325210042795 -4.53145969459582 -1.88563754453436
          -4.62389601413224 -3.81996631529844 -1.28384490332215 -4.69809944218808 -3.34561515895369 -1.44516334427705 -4.53145969459582 -3.73325210042796 -1.88563754453436 -4.25649680370719 -4.2564968037072 -1.59185386102495
          -4.19657856002803 -4.19657856002804 -2.3471763362841 -3.3975473744443 -3.3975473744443 0.761854617021814 -3.51488159172048 -3.41888937410715 0.508995401866316 -3.41888937410715 -3.51488159172048 0.508995401866317
          -3.22092372576975 -3.22092372576975 0.350263281976748 -3.22319172000905 -3.12615474075937 0.676244138534639 -3.12615474075937 -3.22319172000905 0.676244138534639 -3.5777173809016 -3.54627069578258 0.267072180948745
          -3.24709804864867 -3.35595461583959 0.0281006492153631 -3.29443199806042 -3.25869982630084 0.365488632347882 -3.19299337251046 -3.61690419221829 -0.285946184238372 -3.54627069578257 -3.5777173809016 0.267072180948745
          -3.35595461583959 -3.24709804864867 0.0281006492153627 -3.25869982630084 -3.29443199806042 0.365488632347882 -3.61690419221829 -3.19299337251047 -0.285946184238372 -3.38512264617873 -3.38512264617874 -0.315100722472345
          -3.32768852725286 -3.66759851009367 -0.660641755854219 -3.66759851009367 -3.32768852725286 -0.660641755854219 -3.09653845597417 -3.09653845597417 1.00255426388994 -2.84834820614902 -2.84834820614902 0.436624992226118
          -2.718428637494 -2.718428637494 1.23551155692233 -2.84232371526065 -2.75274655579562 0.838678331980193 -2.75274655579562 -2.84232371526066 0.838678331980192 -2.8831257529928 -2.98546710149165 0.0491455710066532
          -2.91844025873803 -2.8861013154361 0.469294203363239 -2.84624048307063 -3.24264256532762 -0.327304362399483 -2.98546710149165 -2.8831257529928 0.0491455710066531 -2.8861013154361 -2.91844025873803 0.469294203363238
          -3.24264256532762 -2.84624048307063 -0.327304362399483 -3.02612554331338 -3.02612554331338 -0.365287470008989 -2.99030826967405 -3.30913357397264 -0.781542490456686 -3.30913357397264 -2.99030826967405 -0.781542490456686
          -3.5472826155421 -3.77272644748736 0.0326738624394824 -3.39948541561308 -4.07167414767989 -0.191020763802602 -3.277569960427 -3.48907027588958 0.0678200118251336 -3.04074007837494 -3.9662081177057 -0.589083015795502
          -3.1181052519696 -4.40923674591349 -0.400754990384599 -3.15006962282084 -3.78786016924705 -0.215839321104528 -2.77751755072993 -4.36039479351275 -0.874516948021654 -2.89568213846722 -4.12370891377223 -0.480733256411014
          -3.16455348983795 -4.05068359899134 -1.00386392872052 -3.62187768408115 -3.62187768408115 -1.05328197354019 -2.8871122106747 -4.48631310020021 -1.33529514775574 -3.46103561019186 -4.02931280453854 -1.45758912041886
          -3.17292028116775 -4.49950584702669 -1.86026241605054 -2.72076055522139 -3.58511252258125 -0.688984438684328 -2.91472068471439 -3.10974407904819 0.117794977578344 -2.81103890128067 -3.39775572095596 -0.215022381775703
          -2.49239220673181 -3.97152027029559 -1.02832198376065 -2.59034220959082 -3.72194494132084 -0.523980250070804 -2.85878147387089 -3.69081703436018 -1.1937927412763 -3.29200375216747 -3.29200375216747 -1.25755209320969
          -3.17066171307964 -3.7077144210848 -1.74714686156122 -2.61905865480254 -4.12501916673982 -1.59085715568684 -2.92610769773614 -4.18822661826204 -2.23438283320608 -3.77272644748736 -3.5472826155421 0.0326738624394828
          -4.07167414767989 -3.39948541561309 -0.191020763802602 -3.48907027588958 -3.277569960427 0.0678200118251331 -3.9662081177057 -3.04074007837494 -0.589083015795502 -4.05068359899134 -3.16455348983795 -1.00386392872052
          -4.40923674591349 -3.1181052519696 -0.400754990384599 -3.78786016924705 -3.15006962282084 -0.215839321104528 -4.36039479351275 -2.77751755072993 -0.874516948021654 -4.12370891377223 -2.89568213846722 -0.480733256411014
          -4.48631310020021 -2.8871122106747 -1.33529514775574 -4.02931280453854 -3.46103561019186 -1.45758912041886 -4.49950584702669 -3.17292028116775 -1.86026241605054 -3.58511252258125 -2.72076055522139 -0.688984438684327
          -3.10974407904819 -2.91472068471439 0.117794977578344 -3.39775572095596 -2.81103890128067 -0.215022381775703 -3.69081703436018 -2.85878147387089 -1.1937927412763 -3.7077144210848 -3.17066171307965 -1.74714686156122
          -3.97152027029559 -2.49239220673181 -1.02832198376065 -3.72194494132084 -2.59034220959082 -0.523980250070804 -4.12501916673982 -2.61905865480254 -1.59085715568684 -4.18822661826203 -2.92610769773614 -2.23438283320608
          -3.88240112181987 -3.88240112181987 -1.94284299226988 -3.58839312310726 -4.37743594459534 -2.44235337281303 -4.37743594459534 -3.58839312310726 -2.44235337281303 -4.08745692373988 -4.08745692373988 -3.06133101523768
          -3.61226258313546 -3.61226258313546 -2.34051213816787 -3.37161876413644 -4.13347329422198 -2.954474270313 -4.13347329422198 -3.37161876413644 -2.954474270313 -3.91177750848257 -3.91177750848257 -3.73124141509555
          -2.7555890342775 -5.28446327120897 -0.308686699483224 -2.89509535764563 -5.15178857421636 0 -2.77234066613118 -5.35119549288046 0 -2.88939430294253 -5.05031582171455 -0.209195834568014
          -2.18958007214213 -5.62784736096126 -0.368762170451872 -2.30179525849628 -5.45038661400717 0 -2.20124852060045 -5.6913125814519 0 -2.30068106048482 -5.35106793016006 -0.265830337120253
          -1.52068402821765 -5.90128866881646 -0.411982123020363 -2.81394318260546 -5.37998880729812 -0.429995610536612 -2.83101487859611 -5.4257630520101 0 -3.02155978469193 -5.33035781227473 -0.577601424842058
          -2.23362157713214 -5.75389909013725 -0.499393730373659 -2.24635553530763 -5.79719073626967 0 -1.54846479421163 -6.05101436968461 -0.54804892339826 -2.4022439512561 -5.72842714013885 -0.66293903390911
          -2.69083013775077 -5.18834088271646 -0.616530373031125 -2.82375098039167 -4.94357941502671 -0.414729482100518 -2.5749629262546 -5.01576977594735 -0.890032554842784 -2.14052368915958 -5.53568763232208 -0.732044418818659
          -2.2509446355902 -5.24636198863295 -0.524300724003298 -1.48811183137231 -5.81261425452078 -0.817354274572703 -2.04999846543472 -5.36817812557899 -1.05790852846024 -2.75516747326758 -5.30217923667146 -0.87615000749048
          -2.97379944969557 -5.27426800751826 -1.18184206304702 -2.65170317931628 -5.15416796938574 -1.27474445755797 -2.18943409120842 -5.68237297337032 -1.0111023028503 -1.51887870496547 -5.98477756274474 -1.1100830016375
          -2.36795178949339 -5.68203732276705 -1.34880177836428 -2.10851387259588 -5.54251362215334 -1.47250112300603 -1.59687348338359 -5.69193265228747 0 -1.52435939811491 -5.9634181763179 0
          -1.60057141061105 -5.59107691234195 -0.306478143332695 -0.782893298786951 -6.06645682863896 -0.442100274847622 -0.783400750408578 -6.12155607153622 0 -0.824109732855967 -5.74070043545836 -0.335628116810476
          -0.818448764279233 -5.83310102327275 0 0 -6.12276807641789 -0.444192473708414 0 -5.86645069284184 0 0 -6.17343529945669 0
          0 -5.76666328843037 -0.34150920762925 -1.55169084508704 -6.09367839161611 0 -0.796903823180538 -6.23509747777169 -0.583288332698657 -0.798985120599983 -6.27146136673038 0
          -1.66547839557192 -6.04725230443338 -0.723083686793105 -0.860234553387637 -6.2471525442438 -0.767118573592973 0 -6.30207475098351 -0.579239990867831 0 -6.33484923045267 0
          0 -6.32256838485327 -0.761777614855252 -1.56813670508298 -5.48752454014774 -0.604993650406494 -0.767396338379563 -5.98010802290284 -0.870847916552035 -0.808318427938259 -5.63838897938188 -0.658955716874529
          -1.42702075621705 -5.64695425971464 -1.18168062188202 -0.733597807786388 -5.81808201957642 -1.26105994749771 0 -6.04242777374327 -0.885859616415873 0 -5.66985743794866 -0.683253876618437
          0 -5.8784816449447 -1.28244833899572 -0.783575889401323 -6.17182737887042 -1.17080882249195 -1.64291844990291 -6.00891605479501 -1.47260376646638 -0.852170833950291 -6.21262023921908 -1.54745679710713
          -1.46475178302472 -5.84898814701661 -1.61712594024287 -0.752116919504673 -6.04058646805291 -1.70948785284431 0 -6.24429412035745 -1.18515823994088 0 -6.29469740455588 -1.56741711147019
          0 -6.11025891543786 -1.72831171441376 -3.03521171702679 -5.36168724635672 0 -3.33631781092712 -5.11885646982337 -0.744527913146868 -3.34449222389823 -5.13624939247287 0
          -2.41202772168294 -5.75595328867607 0 -2.66173255753343 -5.53160643788302 -0.851264421752843 -2.6662027082779 -5.54413284216749 0 -1.84966797949719 -5.86398988207951 -0.927259548650917
          -3.71965695484968 -4.72525803728008 -0.923609508197775 -3.72127577316732 -4.73074046992816 0 -2.98241244951129 -5.13759835207274 -1.05634442259281 -2.97978427536942 -5.13633839964877 0
          -2.08082251788454 -5.4727020105973 -1.15276433572179 -3.30337904186918 -5.08636328888128 -1.5253950156276 -2.88789835693432 -5.16204960629663 -1.73025376339286 -3.24041039149237 -5.01605312114946 -2.24406641596116
          -2.64039749631384 -5.51246676678555 -1.73565697886874 -1.83633209323127 -5.85527270467604 -1.89319216459568 -2.30172032688042 -5.58277689394442 -1.97613809922279 -2.5936673881544 -5.4611569163522 -2.55687093753897
          -3.7050191640408 -4.71491882375791 -1.89113407048394 -3.67029031143009 -4.68370209233197 -2.79695076175825 -2.97743029986017 -5.14404502951446 -2.1551031518716 -2.07962308226664 -5.49220248764552 -2.35567746198377
          -2.95581045608494 -5.13832308345524 -3.1945386305212 -1.66504204346774 -6.07211340845235 0 -0.861236401362661 -6.26579453047842 0 -1.84408000727592 -5.87229389823151 0
          -0.958254218383013 -6.07661298200999 -0.982902674377328 0 -6.33601337288756 0 -0.956991536467971 -6.07886387214793 0 0 -6.15521801055755 -0.977544483983765
          0 -6.152413954172 0 -2.06900402889633 -5.46485260052861 0 -1.08190875682334 -5.69138294415702 -1.22273711482027 -1.07672261520951 -5.6774185556894 0
          0 -5.77063194681387 -1.22028437485581 0 -5.75127301720793 0 -0.955635114127468 -6.0731349470875 -1.98821482855788 -1.59920512406629 -5.91757983084545 -2.15687063211941
          -0.825406996650034 -6.12715589138714 -2.27185138789455 -1.80640297140044 -5.81645359517643 -2.78854631573917 0 -6.15688630165248 -2.01524876247631 0 -6.20718644437835 -2.29500754535051
          -0.935306046320794 -6.042616931291 -2.93556038653535 0 -6.12424312304218 -2.96600209871627 -1.08643458488336 -5.71772914151486 -2.47714316162263 -2.06795370753605 -5.50466020186271 -3.49241421430914
          -1.07580941711851 -5.74162656106632 -3.68104665432416 0 -5.80129195520644 -2.5148236688797 0 -5.82465881825916 -3.72399427353836 -2.69997291662973 -4.74835374529709 -0.58696826782104
          -2.39956411778246 -4.7550393435451 -1.13011533454962 -2.51199672948724 -4.45825896027679 -0.715895966765811 -2.15390785890625 -5.05393006331379 -0.744679274632934 -1.91206404272511 -5.10661158360924 -1.34503902330574
          -2.00560529234656 -4.76097728977627 -0.913467339196957 -1.33212820115754 -5.38299717472567 -1.50433346144085 -2.49109213664799 -4.92479051100013 -1.63716349581843 -2.74718704101087 -4.97936639703847 -2.23607920088807
          -1.98240032921999 -5.31692349297197 -1.89342751941292 -1.37826544067356 -5.62424044646624 -2.08203661220481 -2.19227104720428 -5.41172597942194 -2.55844648205304 -2.15800984539086 -4.35754762896503 -1.33180766211144
          -2.25112534148371 -4.04237139930043 -0.798290651984573 -1.72046174560349 -4.70071719642759 -1.58676109987924 -1.79781239024679 -4.33286693289323 -1.0285166787591 -1.20010344318352 -4.96754359516203 -1.77618768288421
          -2.26652999611875 -4.56139976053261 -1.9519096552865 -2.54433715185492 -4.6782155006214 -2.68778254647258 -1.80390830770764 -4.9499472527037 -2.25766063318611 -1.25541064125722 -5.2502641014194 -2.48313602544117
          -2.03112627627778 -5.115619783324 -3.07406325492316 -1.5025889635251 -5.29237541590766 -0.860743028781429 -0.773105956360127 -5.44788614325646 -0.938797635259398 -1.40050570287055 -4.9937994653598 -1.05986854873479
          -0.684153897405553 -5.55303754735483 -1.60535393004246 0 -5.47199525097134 -0.974407503464997 -0.720212763879744 -5.14884851842194 -1.15684662940611 0 -5.6137542240036 -1.63510948887553
          0 -5.16848245377727 -1.20135819658972 -0.706726716840091 -5.81596813 -2.20019875496441 -1.52417422934436 -5.75307190236857 -2.79631258554523 0 -5.88600142094172 -2.22968983120536
          -0.786397321143033 -5.96433681197563 -2.94361262796284 0 -6.04503363792966 -2.98029640758319 -0.61463997150052 -5.13305299361224 -1.89617487092234 -1.25690439303038 -4.55011015242954 -1.20040108816984
          -0.645416100576321 -4.70052658170114 -1.31187324664787 0 -5.19145835161186 -1.93262221628745 0 -4.71199073358696 -1.3619052736829 -0.640332360812453 -5.43829122676025 -2.62568811639448
          -1.41262727141325 -5.45540549400818 -3.35716845146103 -0.724840288426066 -5.66406036218492 -3.53462493266199 0 -5.5036753197841 -2.66276211450987 0 -5.73934015183439 -3.57848000704095
          -3.12809086132903 -4.89027024469885 -2.92136487628811 -2.50837696725853 -5.35796362306579 -3.33669949381135 -3.5963966794876 -4.61451973423258 -3.67154616502476 -2.90442514279231 -5.10313630914349 -4.20681857726789
          -1.74816066352434 -5.72764301197935 -3.64464364846045 -2.03384959337429 -5.49292219680761 -4.60693860639601 -2.9570086129933 -4.67357222185254 -3.54287163435038 -2.37313448543335 -5.15941522578858 -4.04746686406193
          -1.65357993141662 -5.53566699992821 -4.41633801504471 -3.47072824319601 -4.4839259373188 -4.50003074908714 -2.80816962010885 -5.00633420273111 -5.16548874826034 -1.96575967771958 -5.41437191064254 -5.65313323999564
          -0.905116768526348 -5.95935206211741 -3.8337507028658 0 -6.04144532031952 -3.88168758800332 -1.05873629021925 -5.74037824477875 -4.85144680220504 0 -5.82487917752296 -4.91657270140587
          -0.850888128806845 -5.76829512970206 -4.64484271889393 0 -5.84359776116585 -4.6999015672434 -1.01769133704061 -5.66875479880883 -5.95104137973345 0 -5.74767359105322 -6.02349693123751
          -5.28446327120897 -2.7555890342775 -0.308686699483224 -5.35119549288045 -2.77234066613118 0 -5.15178857421636 -2.89509535764563 0 -5.05031582171455 -2.88939430294253 -0.209195834568014
          -5.37998880729811 -2.81394318260547 -0.429995610536612 -5.4257630520101 -2.83101487859611 0 -5.33035781227473 -3.02155978469193 -0.577601424842057 -5.62784736096126 -2.18958007214214 -0.368762170451871
          -5.6913125814519 -2.20124852060045 0 -5.45038661400717 -2.30179525849628 0 -5.35106793016006 -2.30068106048482 -0.265830337120253 -5.90128866881646 -1.52068402821765 -0.411982123020363
          -5.75389909013724 -2.23362157713214 -0.499393730373658 -5.79719073626967 -2.24635553530763 0 -5.72842714013885 -2.40224395125611 -0.662939033909108 -6.05101436968461 -1.54846479421163 -0.54804892339826
          -5.18834088271646 -2.69083013775077 -0.616530373031125 -4.9435794150267 -2.82375098039167 -0.414729482100518 -5.01576977594735 -2.5749629262546 -0.890032554842784 -5.30217923667146 -2.75516747326758 -0.876150007490479
          -5.27426800751826 -2.97379944969557 -1.18184206304702 -5.15416796938574 -2.65170317931628 -1.27474445755797 -5.53568763232208 -2.14052368915958 -0.732044418818658 -5.24636198863295 -2.2509446355902 -0.524300724003299
          -5.81261425452078 -1.48811183137231 -0.817354274572703 -5.36817812557899 -2.04999846543472 -1.05790852846024 -5.68237297337032 -2.18943409120842 -1.0111023028503 -5.68203732276704 -2.36795178949339 -1.34880177836427
          -5.98477756274474 -1.51887870496547 -1.1100830016375 -5.54251362215333 -2.10851387259588 -1.47250112300603 -5.36168724635672 -3.03521171702679 0 -5.11885646982337 -3.33631781092713 -0.744527913146867
          -5.13624939247286 -3.34449222389823 0 -4.72525803728007 -3.71965695484968 -0.923609508197774 -4.73074046992815 -3.72127577316732 0 -5.75595328867607 -2.41202772168294 0
          -5.53160643788302 -2.66173255753344 -0.851264421752841 -5.54413284216749 -2.66620270827791 0 -6.04725230443338 -1.66547839557192 -0.723083686793103 -5.86398988207951 -1.84966797949719 -0.927259548650916
          -5.13759835207274 -2.9824124495113 -1.05634442259281 -5.13633839964877 -2.97978427536942 0 -5.4727020105973 -2.08082251788455 -1.15276433572179 -5.08636328888128 -3.30337904186918 -1.52539501562759
          -5.16204960629662 -2.88789835693433 -1.73025376339286 -5.01605312114946 -3.24041039149238 -2.24406641596116 -4.71491882375791 -3.7050191640408 -1.89113407048394 -4.68370209233196 -3.6702903114301 -2.79695076175824
          -5.51246676678555 -2.64039749631385 -1.73565697886874 -6.00891605479501 -1.64291844990291 -1.47260376646638 -5.85527270467604 -1.83633209323127 -1.89319216459568 -5.58277689394442 -2.30172032688042 -1.97613809922279
          -5.4611569163522 -2.59366738815441 -2.55687093753897 -5.14404502951446 -2.97743029986018 -2.1551031518716 -5.49220248764551 -2.07962308226664 -2.35567746198377 -5.13832308345524 -2.95581045608494 -3.1945386305212
          -5.96341817631789 -1.52435939811491 0 -5.69193265228747 -1.5968734833836 0 -5.59107691234195 -1.60057141061105 -0.306478143332694 -6.06645682863896 -0.782893298786952 -0.442100274847622
          -6.12155607153622 -0.783400750408579 0 -5.74070043545836 -0.824109732855969 -0.335628116810477 -6.09367839161611 -1.55169084508704 0 -6.23509747777169 -0.79690382318054 -0.583288332698658
          -6.27146136673038 -0.798985120599985 0 -6.2471525442438 -0.860234553387639 -0.767118573592973 -5.83310102327275 -0.818448764279234 0 -6.12276807641789 0 -0.444192473708415
          -6.1734352994567 0 0 -5.86645069284184 0 0 -5.76666328843037 0 -0.341509207629249 -6.30207475098351 0 -0.579239990867832
          -6.33484923045267 0 0 -6.32256838485328 0 -0.761777614855254 -5.48752454014774 -1.56813670508298 -0.604993650406494 -5.98010802290284 -0.767396338379564 -0.870847916552036
          -5.63838897938188 -0.80831842793826 -0.658955716874529 -5.64695425971464 -1.42702075621705 -1.18168062188202 -5.81808201957642 -0.73359780778639 -1.26105994749771 -6.17182737887042 -0.783575889401324 -1.17080882249195
          -6.21262023921908 -0.852170833950293 -1.54745679710713 -5.84898814701661 -1.46475178302472 -1.61712594024287 -6.04058646805291 -0.752116919504675 -1.70948785284432 -6.04242777374327 0 -0.885859616415874
          -5.66985743794866 0 -0.683253876618436 -5.8784816449447 0 -1.28244833899572 -6.24429412035745 0 -1.18515823994088 -6.29469740455588 0 -1.56741711147019
          -6.11025891543786 0 -1.72831171441376 -6.07211340845235 -1.66504204346774 0 -5.87229389823151 -1.84408000727593 0 -6.26579453047842 -0.861236401362663 0
          -6.07661298200999 -0.958254218383016 -0.982902674377329 -5.46485260052861 -2.06900402889634 0 -6.07886387214793 -0.956991536467976 0 -5.69138294415702 -1.08190875682334 -1.22273711482027
          -5.67741855568941 -1.07672261520951 0 -6.33601337288756 0 0 -6.15521801055755 0 -0.977544483983768 -6.152413954172 0 0
          -5.77063194681388 0 -1.22028437485581 -5.75127301720794 0 0 -6.07313494708751 -0.95563511412747 -1.98821482855788 -5.91757983084545 -1.59920512406629 -2.1568706321194
          -5.81645359517643 -1.80640297140044 -2.78854631573917 -6.12715589138714 -0.825406996650036 -2.27185138789455 -5.71772914151486 -1.08643458488337 -2.47714316162263 -5.5046602018627 -2.06795370753605 -3.49241421430914
          -6.042616931291 -0.935306046320796 -2.93556038653536 -5.74162656106632 -1.07580941711851 -3.68104665432416 -6.15688630165249 0 -2.01524876247631 -6.20718644437835 0 -2.29500754535051
          -6.12424312304218 0 -2.96600209871628 -5.80129195520644 0 -2.51482366887971 -5.82465881825916 0 -3.72399427353837 -4.74835374529709 -2.69997291662973 -0.58696826782104
          -4.75503934354509 -2.39956411778246 -1.13011533454962 -4.45825896027679 -2.51199672948724 -0.715895966765811 -4.92479051100013 -2.49109213664799 -1.63716349581843 -4.97936639703846 -2.74718704101088 -2.23607920088807
          -5.05393006331379 -2.15390785890625 -0.744679274632934 -5.10661158360924 -1.91206404272511 -1.34503902330574 -4.76097728977627 -2.00560529234656 -0.913467339196958 -5.38299717472566 -1.33212820115754 -1.50433346144085
          -5.31692349297196 -1.98240032921999 -1.89342751941292 -5.41172597942193 -2.19227104720428 -2.55844648205304 -5.62424044646624 -1.37826544067356 -2.08203661220482 -4.35754762896502 -2.15800984539086 -1.33180766211144
          -4.04237139930043 -2.25112534148371 -0.798290651984574 -4.56139976053261 -2.26652999611875 -1.9519096552865 -4.6782155006214 -2.54433715185492 -2.68778254647258 -4.70071719642758 -1.72046174560349 -1.58676109987924
          -4.33286693289323 -1.79781239024679 -1.0285166787591 -4.96754359516203 -1.20010344318352 -1.77618768288421 -4.9499472527037 -1.80390830770764 -2.25766063318611 -5.115619783324 -2.03112627627778 -3.07406325492316
          -5.2502641014194 -1.25541064125722 -2.48313602544117 -4.89027024469885 -3.12809086132903 -2.92136487628811 -4.61451973423258 -3.5963966794876 -3.67154616502476 -5.35796362306579 -2.50837696725853 -3.33669949381135
          -5.75307190236856 -1.52417422934436 -2.79631258554523 -5.10313630914349 -2.90442514279232 -4.20681857726789 -5.72764301197935 -1.74816066352435 -3.64464364846045 -5.49292219680761 -2.03384959337429 -4.60693860639601
          -4.67357222185253 -2.9570086129933 -3.54287163435038 -4.4839259373188 -3.47072824319601 -4.50003074908714 -5.15941522578857 -2.37313448543335 -4.04746686406193 -5.45540549400817 -1.41262727141325 -3.35716845146103
          -5.53566699992821 -1.65357993141662 -4.41633801504471 -5.00633420273111 -2.80816962010885 -5.16548874826034 -5.41437191064253 -1.96575967771958 -5.65313323999564 -5.29237541590766 -1.5025889635251 -0.86074302878143
          -5.44788614325646 -0.773105956360129 -0.938797635259399 -4.99379946535979 -1.40050570287055 -1.05986854873479 -5.55303754735483 -0.684153897405553 -1.60535393004246 -5.81596813 -0.706726716840092 -2.20019875496442
          -5.47199525097133 0 -0.974407503464998 -5.14884851842194 -0.720212763879745 -1.15684662940611 -5.61375422400361 0 -1.63510948887553 -5.16848245377727 0 -1.20135819658972
          -5.88600142094172 0 -2.22968983120537 -5.96433681197563 -0.786397321143034 -2.94361262796284 -6.04503363792966 0 -2.9802964075832 -5.13305299361224 -0.61463997150052 -1.89617487092235
          -4.55011015242954 -1.25690439303039 -1.20040108816985 -4.70052658170114 -0.645416100576321 -1.31187324664787 -5.43829122676025 -0.640332360812454 -2.62568811639448 -5.66406036218492 -0.724840288426067 -3.53462493266199
          -5.19145835161186 0 -1.93262221628746 -4.71199073358696 0 -1.3619052736829 -5.5036753197841 0 -2.66276211450987 -5.73934015183439 0 -3.57848000704096