<?xml version="1.0"?>
<VTKFile type="UnstructuredGrid" version="0.1" byte_order="LittleEndian">
  <UnstructuredGrid>
    <Piece NumberOfCells="3198" NumberOfPoints="4179">
      <CellData Scalars="S_w">
        <DataArray type="Float32" Name="S_w" NumberOfComponents="1" format="ascii">
          0.289507 0.289475 0.289424 0.289381 0.289366 0.289392 0.289451 0.289523 0.289587 0.289623 0.289493 0.289453
          0.289389 0.289336 0.289316 0.289348 0.289417 0.289502 0.289575 0.289616 0.289475 0.289424 0.289338 0.289238
          0.289279 0.289364 0.289472 0.289561 0.289609 0.289473 0.289415 0.289319 0.289181 0.289331 0.289458 0.28956
          0.289615 0.289502 0.289454 0.289353 0.28926 0.289215 0.289237 0.289356 0.289484 0.289587 0.289643 0.289561
          0.289517 0.289313 0.289432 0.289548 0.289643 0.289696 0.289643 0.289609 0.289542 0.289486 0.289447 0.289474
          0.289543 0.289638 0.28972 0.289765 0.289731 0.289702 0.289653 0.289607 0.289584 0.289608 0.28966 0.289735
          0.2898 0.289837 0.289805 0.289782 0.289745 0.289711 0.289696 0.289713 0.289757 0.289815 0.289867 0.289897
          0.289846 0.289827 0.289797 0.289769 0.289758 0.289773 0.28981 0.28986 0.289905 0.289931 0.289207 0.289168
          0.289105 0.289048 0.289029 0.289056 0.289123 0.289206 0.289278 0.289319 0.289188 0.289137 0.289045 0.288945
          0.288986 0.289072 0.289176 0.289262 0.289309 0.289162 0.28909 0.288975 0.289128 0.28924 0.289298 0.289151
          0.289061 0.289093 0.289231 0.2893 0.289174 0.288737 0.289121 0.289258 0.289328 0.289234 0.289195 0.289319
          0.289384 0.289323 0.289029 0.28916 0.289299 0.289404 0.289459 0.289429 0.289385 0.28932 0.289256 0.289214
          0.289312 0.289413 0.289495 0.289539 0.289512 0.289483 0.289437 0.289391 0.289366 0.289386 0.289437 0.289509
          0.289571 0.289606 0.289558 0.289535 0.289499 0.289463 0.289446 0.289462 0.289505 0.289562 0.289614 0.289643
          0.288836 0.288788 0.288709 0.288638 0.288599 0.288623 0.2887 0.2888 0.288888 0.288938 0.288811 0.28875
          0.288645 0.288501 0.288527 0.288628 0.288757 0.288864 0.288923 0.288777 0.288692 0.288487 0.288685 0.288829
          0.288904 0.288757 0.288643 0.28862 0.288809 0.288899 0.288779 0.288834 0.288927 0.288845 0.288902 0.288989
          0.288946 0.288854 0.289003 0.289078 0.289064 0.289007 0.288912 0.2888 0.289001 0.289114 0.289172 0.28916
          0.289121 0.289056 0.288986 0.288933 0.289027 0.289128 0.289208 0.289252 0.289213 0.289183 0.289133 0.289083
          0.289055 0.289071 0.289125 0.289197 0.289261 0.289297 0.288409 0.288346 0.288241 0.288135 0.288077 0.288101
          0.288196 0.288321 0.288431 0.288494 0.288377 0.288297 0.288156 0.288004 0.287956 0.288095 0.28826 0.288396
          0.288471 0.288332 0.288221 0.288005 0.287904 0.28816 0.288345 0.288441 0.288304 0.28816 0.28807 0.28831
          0.288428 0.288326 0.288058 0.288328 0.288455 0.288401 0.288166 0.288409 0.288527 0.288518 0.288352 0.288539
          0.288635 0.288649 0.288576 0.288441 0.288275 0.288541 0.288678 0.288751 0.28876 0.288709 0.288621 0.288523
          0.28846 0.288582 0.288697 0.288794 0.288848 0.288822 0.288783 0.288717 0.28865 0.288614 0.288637 0.288698
          0.288783 0.288859 0.288903 0.287945 0.287864 0.287725 0.287584 0.287504 0.28752 0.287632 0.287786 0.287925
          0.288005 0.287906 0.287803 0.287613 0.287324 0.287491 0.2877 0.287875 0.287972 0.28785 0.287711 0.287237
          0.287561 0.287801 0.287928 0.287814 0.28764 0.287426 0.287746 0.287904 0.287834 0.287772 0.287933 0.287903
          0.2877 0.287863 0.288018 0.288037 0.287871 0.28759 0.287785 0.288025 0.28815 0.288197 0.288094 0.287907
          0.287673 0.287777 0.288024 0.2882 0.288293 0.288331 0.288263 0.288146 0.288018 0.287942 0.287955 0.28808
          0.288226 0.288346 0.288413 0.288406 0.288355 0.288271 0.288184 0.288136 0.288153 0.288231 0.288335 0.288427
          0.28848 0.28747 0.287368 0.287191 0.287001 0.286896 0.286904 0.287033 0.287221 0.287395 0.287497 0.287422
          0.287293 0.287052 0.28675 0.286824 0.28709 0.287323 0.287451 0.287355 0.28719 0.287217 0.287388 0.287309
          0.287103 0.287134 0.287351 0.287319 0.287076 0.287385 0.28741 0.287194 0.287284 0.287487 0.287563 0.287381
          0.287483 0.287646 0.287744 0.287616 0.287362 0.28748 0.287705 0.287821 0.287898 0.287815 0.287668 0.287508
          0.287423 0.287456 0.287579 0.287743 0.287886 0.287966 0.287984 0.287923 0.28782 0.287714 0.287656 0.287674
          0.28776 0.287878 0.287985 0.288047 0.28701 0.286888 0.286673 0.286446 0.286316 0.286317 0.286446 0.286664
          0.286877 0.287001 0.286953 0.286793 0.286775 0.286941 0.286873 0.28686 0.286819 0.286811 0.286831 0.286551
          0.286528 0.28684 0.286937 0.28669 0.286714 0.286967 0.287112 0.28691 0.286958 0.287156 0.287312 0.28717
          0.286886 0.286963 0.287225 0.287362 0.287483 0.287389 0.287222 0.28704 0.286934 0.286962 0.287095 0.287277
          0.28744 0.287532 0.287579 0.28751 0.287392 0.287269 0.287199 0.287214 0.287305 0.287436 0.287556 0.287626
          0.286597 0.286462 0.286224 0.285969 0.285929 0.286173 0.286415 0.286556 0.286531 0.286352 0.286009 0.285923
          0.286292 0.286485 0.286436 0.286177 0.286091 0.286387 0.286384 0.286343 0.286396 0.286372 0.286508 0.286502
          0.286701 0.28648 0.286476 0.286711 0.286921 0.286769 0.28648 0.286492 0.286788 0.286943 0.287105 0.287005
          0.286826 0.286622 0.286642 0.28685 0.287032 0.287134 0.287209 0.287133 0.287005 0.286869 0.286789 0.286797
          0.286888 0.28703 0.287162 0.287239 0.286249 0.286112 0.28587 0.285595 0.285386 0.285362 0.285544 0.285795
          0.286041 0.286186 0.286181 0.286007 0.285683 0.285284 0.285923 0.286115 0.286081 0.285838 0.285357 0.28602
          0.286007 0.285694 0.285965 0.286016 0.285668 0.2856 0.285979 0.286136 0.285818 0.286128 0.286348 0.286114
          0.285634 0.286105 0.286344 0.286583 0.286426 0.286129 0.285745 0.286119 0.286426 0.286588 0.286777 0.286672
          0.286486 0.286272 0.286117 0.286116 0.286281 0.286493 0.286683 0.28679 0.286885 0.286806 0.286671 0.286525
          0.286429 0.286432 0.286534 0.286683 0.286821 0.286902 0.285972 0.285836 0.285598 0.285328 0.285127 0.285101
          0.285257 0.285506 0.285751 0.285896 0.285905 0.285737 0.285431 0.285062 0.284763 0.284727 0.284945 0.285291
          0.285636 0.285824 0.285804 0.285578 0.285144 0.284571 0.284093 0.285462 0.285724 0.285728 0.285438 0.28485
          0.285351 0.285665 0.285734 0.285411 0.28473 0.285367 0.285691 0.285856 0.285557 0.284929 0.285513 0.285828
          0.28607 0.285843 0.285392 0.284757 0.284171 0.285312 0.28581 0.286053 0.286309 0.286153 0.285863 0.285498
          0.285192 0.285187 0.285448 0.285831 0.286139 0.286304 0.286506 0.286401 0.286215 0.286001 0.285846 0.285843
          0.285991 0.286208 0.286401 0.28651 0.286616 0.286535 0.286398 0.286249 0.286149 0.286149 0.28625 0.286401
          0.286543 0.286625 0.289308 0.28929 0.289263 0.289283 0.28918 0.289162 0.289107 0.289125 0.289265 0.289241
          0.289244 0.289267 0.289101 0.289082 0.289104 0.28913 0.289246 0.289272 0.28926 0.289234 0.289107 0.289136
          0.289109 0.289077 0.289458 0.289426 0.289463 0.289492 0.28934 0.289289 0.289324 0.289373 0.289386 0.289364
          0.289403 0.289429 0.289249 0.289237 0.289279 0.289291 0.289343 0.289364 0.289405 0.289384 0.289208 0.289229
          0.289277 0.289252 0.289037 0.289021 0.288983 0.289002 0.288898 0.288879 0.288806 0.288831 0.289031 0.288984
          0.288927 0.289004 0.288883 0.288801 0.288699 0.288831 0.288937 0.288911 0.288809 0.288813 0.288701 0.28866
          0.288399 0.288448 0.288885 0.288893 0.288841 0.28882 0.288674 0.288695 0.288601 0.28855 0.288919 0.288943
          0.288902 0.28887 0.288725 0.288768 0.288686 0.288634 0.288983 0.288899 0.288924 0.288991 0.288799 0.288657
          0.288689 0.288803 0.288762 0.288772 0.288813 0.288853 0.288408 0.288357 0.288504 0.288566 0.288775 0.288788
          0.288752 0.28877 0.288487 0.288531 0.288514 0.288517 0.288814 0.288852 0.288753 0.288694 0.288542 0.288559
          0.288322 0.288455 0.288915 0.28898 0.288967 0.288876 0.288682 0.288795 0.288754 0.288592 0.289141 0.289101
          0.289122 0.289163 0.288995 0.288927 0.288933 0.289004 0.289025 0.288957 0.288992 0.289055 0.288822 0.288725
          0.288757 0.288845 0.28889 0.288845 0.288889 0.288933 0.288643 0.288603 0.288663 0.288696 0.288771 0.288803
          0.288852 0.288822 0.288517 0.288497 0.288555 0.28856 0.288893 0.288979 0.289002 0.288924 0.288616 0.288761
          0.288779 0.288641 0.289201 0.289161 0.289199 0.289235 0.289038 0.288964 0.289005 0.289076 0.289109 0.289045
          0.289063 0.289147 0.288877 0.288778 0.288708 0.288905 0.289004 0.288972 0.289031 0.289046 0.288746 0.28872
          0.288787 0.288787 0.288921 0.288901 0.288957 0.288976 0.288699 0.288663 0.288739 0.288765 0.288906 0.288931
          0.289013 0.288966 0.288574 0.28857 0.288736 0.28871 0.288985 0.289056 0.289102 0.289051 0.288707 0.288844
          0.288926 0.288827 0.28929 0.289255 0.289302 0.289328 0.289135 0.289071 0.289147 0.289193 0.2892 0.289147
          0.289215 0.289254 0.288996 0.288913 0.289035 0.289087 0.289115 0.289095 0.289148 0.289175 0.288894 0.28889
          0.288979 0.288995 0.289052 0.289081 0.289141 0.289112 0.288814 0.288852 0.288921 0.288867 0.289219 0.28924
          0.289302 0.289285 0.289012 0.289046 0.289147 0.289124 0.288663 0.288639 0.288575 0.288608 0.288498 0.288474
          0.288393 0.288426 0.288651 0.288581 0.288495 0.288607 0.288485 0.288401 0.288307 0.288424 0.288494 0.288435
          0.288231 0.288327 0.288276 0.288205 0.288033 0.288139 0.288413 0.288423 0.288322 0.288288 0.28817 0.288165
          0.28802 0.288019 0.288446 0.288475 0.288387 0.288348 0.288184 0.288235 0.288106 0.288039 0.288557 0.288414
          0.288426 0.28855 0.288342 0.288193 0.288151 0.288312 0.288124 0.287869 0.288132 0.288265 0.288003 0.287819
          0.287691 0.287966 0.288157 0.28822 0.288169 0.28817 0.287875 0.287883 0.287789 0.287803 0.288227 0.288234
          0.287928 0.288111 0.287871 0.287902 0.287525 0.287694 0.28837 0.288491 0.288454 0.288266 0.288086 0.288247
          0.288181 0.287941 0.288753 0.288687 0.288704 0.288776 0.288562 0.288464 0.288463 0.288571 0.288574 0.28845
          0.288472 0.288594 0.288305 0.288128 0.288098 0.28831 0.288344 0.288258 0.288339 0.2884 0.288013 0.28789
          0.287991 0.28806 0.288206 0.288178 0.288234 0.288272 0.287855 0.287812 0.287889 0.287937 0.288157 0.288136
          0.288177 0.288212 0.287752 0.28774 0.287736 0.287835 0.28828 0.288462 0.288441 0.288231 0.287935 0.288172
          0.288161 0.287849 0.288634 0.288725 0.288748 0.288645 0.288433 0.288558 0.288566 0.288428 0.288813 0.288738
          0.288785 0.288855 0.28861 0.288502 0.288558 0.288658 0.288627 0.288501 0.288446 0.288662 0.288358 0.288194
          0.288164 0.28841 0.288458 0.288418 0.288497 0.28851 0.288137 0.288085 0.288181 0.288209 0.288375 0.288333
          0.288422 0.28846 0.288036 0.287993 0.28809 0.288134 0.288278 0.288161 0.288412 0.288396 0.287957 0.287936
          0.288111 0.288069 0.288344 0.288545 0.288644 0.288515 0.287991 0.288257 0.288375 0.288214 0.288703 0.288796
          0.288829 0.28876 0.288489 0.288617 0.288668 0.288567 0.288919 0.288857 0.288927 0.288969 0.288729 0.288642
          0.288735 0.288798 0.288767 0.288665 0.288789 0.288856 0.288532 0.288409 0.288566 0.288648 0.28863 0.288594
          0.288686 0.288731 0.288352 0.288296 0.288424 0.288488 0.288531 0.28848 0.288527 0.28861 0.288229 0.28816
          0.288212 0.288333 0.288452 0.288521 0.288546 0.288361 0.288104 0.288211 0.288266 0.287942 0.288617 0.288712
          0.288779 0.288693 0.288338 0.288478 0.288567 0.288438 0.288728 0.288687 0.288806 0.288813 0.288488 0.288407
          0.288581 0.288617 0.288672 0.288744 0.288884 0.288844 0.288352 0.288464 0.288639 0.288585 0.288818 0.288884
          0.288951 0.288913 0.288577 0.288684 0.288781 0.28871 0.288959 0.288981 0.289033 0.289017 0.288762 0.288789
          0.288876 0.288857 0.288026 0.288017 0.28795 0.287962 0.287813 0.287799 0.28768 0.287701 0.287955 0.287892
          0.287751 0.287855 0.287712 0.287607 0.287431 0.287584 0.28785 0.287826 0.287657 0.287694 0.287519 0.287472
          0.28721 0.287318 0.28783 0.28787 0.287744 0.287671 0.287499 0.287579 0.287403 0.287271 0.288037 0.287909
          0.28785 0.288013 0.287804 0.287643 0.287544 0.287749 0.287741 0.287566 0.287284 0.287639 0.287439 0.287232
          0.286902 0.287299 0.287533 0.287489 0.287338 0.287403 0.287139 0.287041 0.28685 0.286976 0.287449 0.287555
          0.287296 0.287082 0.286992 0.287167 0.286887 0.286501 0.287734 0.28789 0.287838 0.287615 0.287406 0.287608
          0.287529 0.287253 0.288279 0.288182 0.288196 0.288305 0.288068 0.287939 0.287936 0.288078 0.288012 0.28781
          0.287705 0.288005 0.287719 0.287472 0.28732 0.287699 0.287659 0.287495 0.287604 0.287688 0.287274 0.287047
          0.287158 0.287285 0.28745 0.287377 0.287489 0.287543 0.286991 0.286901 0.287044 0.287083 0.287238 0.287324
          0.287357 0.287427 0.286756 0.286686 0.287038 0.28701 0.287594 0.287823 0.287851 0.287627 0.287202 0.287511
          0.287561 0.287307 0.288356 0.28825 0.288318 0.288411 0.288149 0.288018 0.288095 0.288207 0.288076 0.28787
          0.287887 0.28815 0.287787 0.287547 0.287687 0.28789 0.28778 0.287713 0.287831 0.287878 0.287359 0.287286
          0.287441 0.287482 0.287659 0.287618 0.28773 0.287775 0.287233 0.287204 0.287333 0.287376 0.287599 0.287628
          0.287791 0.287721 0.287209 0.287282 0.287444 0.287343 0.287766 0.287948 0.288056 0.287916 0.287455 0.287664
          0.287775 0.287598 0.288488 0.28841 0.28849 0.288545 0.288299 0.288204 0.288298 0.288368 0.288285 0.288142
          0.288289 0.288388 0.288051 0.287907 0.288061 0.288169 0.288044 0.287965 0.288093 0.288177 0.287718 0.287605
          0.287773 0.287888 0.287886 0.287809 0.287871 0.288003 0.287501 0.287415 0.287465 0.287635 0.287759 0.28789
          0.287959 0.287613 0.287381 0.28755 0.287627 0.287177 0.288039 0.288176 0.288281 0.288154 0.287728 0.287903
          0.288022 0.28786 0.288166 0.288087 0.28828 0.288303 0.287863 0.287755 0.288006 0.288052 0.288006 0.288171
          0.288372 0.288301 0.287711 0.287879 0.288105 0.288024 0.288313 0.288418 0.288512 0.288448 0.288075 0.288205
          0.288318 0.288232 0.288502 0.288535 0.288619 0.288597 0.288306 0.288338 0.288445 0.288423 0.28755 0.287505
          0.287409 0.287484 0.28735 0.287272 0.287131 0.287246 0.287465 0.287436 0.287308 0.287342 0.287174 0.287158
          0.286976 0.286999 0.287566 0.287478 0.287393 0.287519 0.287353 0.287212 0.287085 0.28727 0.287374 0.28725
          0.287058 0.287237 0.287047 0.286884 0.286636 0.286879 0.287135 0.287062 0.286697 0.286877 0.286725 0.286646
          0.286133 0.286319 0.28708 0.287156 0.28697 0.286816 0.286709 0.286835 0.286585 0.286356 0.287474 0.287306
          0.287214 0.287427 0.287196 0.286978 0.286884 0.287143 0.287099 0.28688 0.286678 0.286961 0.286734 0.286479
          0.286329 0.286592 0.286699 0.286529 0.286306 0.286534 0.286201 0.285908 0.285694 0.286052 0.286486 0.286719
          0.286383 0.285842 0.285979 0.286286 0.286001 0.285361 0.286986 0.287192 0.287128 0.28684 0.286609 0.286869
          0.286763 0.286429 0.287768 0.287647 0.287651 0.287777 0.287577 0.287436 0.287444 0.287586 0.287412 0.287127
          0.286979 0.287393 0.287122 0.286802 0.286763 0.287124 0.286848 0.286425 0.28661 0.286877 0.286385 0.286203
          0.286274 0.2865 0.286456 0.286351 0.286544 0.286494 0.285901 0.285697 0.286042 0.28603 0.286162 0.286423
          0.286678 0.286549 0.285769 0.286049 0.286216 0.286083 0.286826 0.287132 0.287187 0.286925 0.286397 0.28673
          0.286769 0.286443 0.287377 0.287528 0.287558 0.287402 0.287047 0.287276 0.287284 0.287039 0.287457 0.287221
          0.287372 0.287538 0.287192 0.28693 0.287088 0.287291 0.287006 0.286777 0.287033 0.287185 0.286676 0.286447
          0.286623 0.286835 0.286756 0.286749 0.286898 0.286937 0.286308 0.286276 0.286429 0.286468 0.286779 0.286882
          0.287063 0.286938 0.286314 0.286377 0.286647 0.286508 0.287075 0.287296 0.287424 0.287237 0.28662 0.286904
          0.28707 0.286844 0.287486 0.287629 0.287691 0.28758 0.287145 0.287361 0.287461 0.28729 0.287345 0.287198
          0.287354 0.287485 0.286982 0.286758 0.286949 0.287169 0.287057 0.286964 0.286898 0.287173 0.286531 0.286479
          0.286385 0.286591 0.287005 0.287195 0.287304 0.286877 0.286637 0.286832 0.287018 0.286748 0.287383 0.287553
          0.287662 0.28752 0.287028 0.287242 0.2874 0.287228 0.287464 0.287367 0.287657 0.287685 0.287092 0.287006
          0.287369 0.287407 0.287389 0.287551 0.287749 0.287681 0.287113 0.287285 0.287507 0.287414 0.286778 0.286757
          0.286562 0.286608 0.286492 0.286445 0.28619 0.286265 0.286738 0.286766 0.286633 0.286568 0.28645 0.286514
          0.286312 0.286208 0.287017 0.286864 0.286741 0.286942 0.286773 0.286564 0.286395 0.286665 0.286654 0.286476
          0.286253 0.286499 0.286301 0.286083 0.285826 0.286089 0.286331 0.286236 0.285724 0.285989 0.285918 0.285829
          0.285329 0.285556 0.286284 0.286407 0.286113 0.285874 0.285873 0.286005 0.285649 0.285437 0.286536 0.28668
          0.286548 0.286341 0.286182 0.286363 0.286145 0.285897 0.286885 0.287019 0.286952 0.286779 0.286586 0.286781
          0.286666 0.286411 0.286859 0.286626 0.286541 0.286803 0.286569 0.286259 0.286176 0.286511 0.286343 0.286057
          0.285931 0.286225 0.285879 0.285587 0.285461 0.285765 0.285712 0.28539 0.285231 0.285612 0.285131 0.284877
          0.284638 0.285099 0.285435 0.285786 0.285458 0.28463 0.284912 0.28526 0.284911 0.284138 0.286123 0.286414
          0.286287 0.285929 0.285619 0.285948 0.285747 0.285368 0.286671 0.286869 0.286839 0.286602 0.286274 0.28657
          0.286522 0.286175 0.286778 0.286494 0.286506 0.286793 0.286491 0.286166 0.286202 0.286515 0.286138 0.285867
          0.28582 0.286139 0.285796 0.285461 0.285497 0.285845 0.285611 0.285381 0.285585 0.285694 0.285174 0.284897
          0.28501 0.285248 0.285227 0.285449 0.285627 0.285568 0.284751 0.285025 0.285256 0.285027 0.285869 0.286233
          0.286275 0.285899 0.285265 0.285616 0.285879 0.285539 0.286586 0.286889 0.286908 0.28655 0.286158 0.286541
          0.286594 0.286246 0.287144 0.287263 0.287285 0.287169 0.286913 0.287073 0.287096 0.286942 0.286868 0.286607
          0.286722 0.286955 0.286592 0.286284 0.286391 0.286683 0.286299 0.285987 0.286159 0.286424 0.285923 0.285455
          0.285707 0.286031 0.285833 0.285777 0.285907 0.285945 0.285248 0.285202 0.285319 0.285469 0.285824 0.285957
          0.28622 0.286045 0.285317 0.285529 0.285777 0.285561 0.286203 0.28649 0.286677 0.286429 0.285788 0.286087
          0.28627 0.285988 0.286754 0.286999 0.287104 0.286912 0.286395 0.286688 0.286802 0.28655 0.287055 0.286832
          0.286999 0.287158 0.286809 0.286503 0.286733 0.286955 0.286461 0.286228 0.28647 0.286761 0.285971 0.285687
          0.286054 0.286404 0.285796 0.285892 0.286099 0.285935 0.285399 0.285467 0.285899 0.285644 0.286212 0.286431
          0.286675 0.286425 0.285806 0.28601 0.286323 0.286129 0.286602 0.286854 0.28705 0.286863 0.286088 0.286455
          0.286716 0.286491 0.287063 0.287221 0.287318 0.287206 0.286725 0.286952 0.287096 0.286929 0.287026 0.28685
          0.287122 0.287213 0.286751 0.28652 0.286872 0.287004 0.286664 0.286671 0.287037 0.287046 0.286352 0.286387
          0.286773 0.286778 0.286799 0.286952 0.287185 0.287097 0.2865 0.286639 0.286921 0.286832 0.287097 0.287226
          0.287358 0.287278 0.286788 0.286964 0.287153 0.287036 0.286628 0.286509 0.286388 0.28656 0.286463 0.28632
          0.286158 0.286363 0.286313 0.28619 0.28595 0.286141 0.286092 0.285942 0.285622 0.285859 0.286112 0.286075
          0.285795 0.285836 0.285829 0.285782 0.28542 0.285456 0.286084 0.286141 0.285907 0.285817 0.285785 0.285846
          0.285534 0.285435 0.286228 0.286337 0.286188 0.286037 0.285952 0.286084 0.285862 0.28568 0.286512 0.286622
          0.28655 0.286393 0.286298 0.286436 0.286325 0.286127 0.286771 0.286666 0.286595 0.286731 0.286611 0.286474
          0.286376 0.286551 0.286464 0.286204 0.286018 0.286346 0.286197 0.285898 0.285656 0.286056 0.285854 0.28552
          0.285349 0.285595 0.285498 0.285093 0.284882 0.285152 0.285404 0.285394 0.284931 0.285106 0.284777 0.284926
          0.284335 0.284567 0.285438 0.285567 0.285143 0.284949 0.284988 0.28512 0.284605 0.284421 0.28575 0.285955
          0.285664 0.285406 0.285314 0.285525 0.285008 0.284865 0.286203 0.286441 0.286305 0.285981 0.285823 0.286127
          0.285942 0.285436 0.286643 0.286752 0.286709 0.286564 0.286425 0.286574 0.286506 0.286312 0.286673 0.286521
          0.286493 0.286643 0.286475 0.286272 0.286255 0.286458 0.286246 0.285874 0.285778 0.286185 0.285944 0.285481
          0.285446 0.285891 0.285425 0.285129 0.284886 0.285147 0.284996 0.284697 0.284461 0.284905 0.284791 0.284437
          0.284119 0.284536 0.284365 0.283987 0.283746 0.284181 0.28428 0.284642 0.284177 0.28334 0.28385 0.284002
          0.283749 0.28311 0.285078 0.285452 0.285238 0.284802 0.284503 0.284913 0.284767 0.284358 0.28583 0.286199
          0.286139 0.285713 0.285325 0.285827 0.285768 0.285113 0.286486 0.28665 0.286621 0.28646 0.286198 0.286427
          0.286414 0.286188 0.286153 0.285801 0.285857 0.286183 0.28587 0.285453 0.285489 0.285898 0.285364 0.284935
          0.285112 0.285476 0.28499 0.284559 0.284671 0.285055 0.284688 0.284392 0.284577 0.284828 0.284224 0.283879
          0.284062 0.284337 0.284151 0.284479 0.284749 0.284326 0.283576 0.283897 0.284245 0.283887 0.284836 0.285215
          0.285473 0.285107 0.284446 0.284872 0.28507 0.284664 0.285746 0.286135 0.2862 0.285866 0.285353 0.285814
          0.285889 0.285486 0.28627 0.285954 0.286087 0.286378 0.285996 0.285601 0.285784 0.28613 0.285586 0.285229
          0.285401 0.285735 0.285163 0.284813 0.285022 0.285386 0.284968 0.284804 0.285028 0.285157 0.284503 0.284292
          0.284505 0.284721 0.284719 0.28504 0.285314 0.285064 0.284285 0.284549 0.284829 0.284597 0.285342 0.285664
          0.285823 0.285539 0.284875 0.285211 0.285227 0.285064 0.286009 0.286315 0.286438 0.28616 0.285614 0.286003
          0.286128 0.285738 0.286527 0.286247 0.286451 0.286668 0.286306 0.286 0.28624 0.286475 0.285877 0.285523
          0.285558 0.286115 0.285637 0.28526 0.285438 0.285902 0.285316 0.285281 0.285631 0.285554 0.284948 0.284788
          0.285142 0.285053 0.285419 0.285597 0.285959 0.285785 0.284941 0.285174 0.285568 0.285353 0.285666 0.286042
          0.286369 0.286131 0.285404 0.285687 0.286051 0.285797 0.286365 0.286612 0.286764 0.286592 0.286025 0.286332
          0.286524 0.286311 0.286457 0.286203 0.286583 0.286714 0.286252 0.285978 0.286373 0.286526 0.286083 0.286088
          0.28647 0.286486 0.285779 0.285739 0.286216 0.286254 0.286179 0.286312 0.28661 0.286521 0.28583 0.285983
          0.286351 0.286259 0.286468 0.286643 0.286841 0.28673 0.286165 0.286376 0.286617 0.286481 0.285895 0.285863
          0.28576 0.285809 0.285731 0.28568 0.285569 0.285638 0.285856 0.285877 0.285787 0.285751 0.285669 0.285708
          0.285606 0.285552 0.285814 0.285685 0.285395 0.285608 0.285661 0.285526 0.285254 0.285468 0.285573 0.285498
          0.285087 0.285213 0.285368 0.28527 0.284862 0.285023 0.285478 0.285544 0.285177 0.285026 0.285225 0.285303
          0.284899 0.284685 0.28564 0.285757 0.285532 0.285343 0.285422 0.285566 0.285316 0.285088 0.285895 0.285636
          0.285396 0.285776 0.285737 0.285501 0.285277 0.285613 0.285267 0.28495 0.284395 0.284741 0.285133 0.284806
          0.284241 0.284772 0.284707 0.284603 0.283965 0.284131 0.284528 0.284349 0.283682 0.28381 0.284546 0.284676
          0.284034 0.283759 0.284181 0.284365 0.283618 0.28354 0.284904 0.285148 0.284493 0.284313 0.28459 0.284911
          0.284334 0.283777 0.285484 0.285771 0.285609 0.285135 0.285285 0.285593 0.285422 0.284959 0.286214 0.286025
          0.28598 0.286197 0.28606 0.285864 0.285794 0.286028 0.285685 0.285252 0.285132 0.285608 0.285469 0.285029
          0.284726 0.285346 0.284749 0.284311 0.284171 0.284634 0.28452 0.283891 0.283752 0.284244 0.283925 0.283521
          0.283162 0.283718 0.283463 0.282784 0.282358 0.283168 0.28326 0.283261 0.282909 0.282352 0.282777 0.282786
          0.28267 0.281778 0.283761 0.28438 0.284455 0.283843 0.283465 0.284214 0.284216 0.283523 0.284789 0.285495
          0.285487 0.284923 0.284743 0.285308 0.285279 0.284768 0.285914 0.286137 0.286131 0.285892 0.285725 0.285963
          0.28594 0.285682 0.286176 0.285963 0.285986 0.286196 0.286016 0.28577 0.285791 0.286038 0.285575 0.285085
          0.28503 0.285587 0.285303 0.284714 0.284547 0.285297 0.284566 0.284108 0.284111 0.284502 0.284036 0.283536
          0.283402 0.283802 0.283662 0.283233 0.283361 0.283695 0.282949 0.282318 0.28239 0.282808 0.282974 0.283363
          0.28368 0.283186 0.282094 0.282837 0.283063 0.282282 0.284011 0.284559 0.284674 0.284199 0.28361 0.284257
          0.284312 0.283743 0.285049 0.285529 0.285583 0.285085 0.284803 0.285292 0.285327 0.28482 0.285913 0.28613
          0.286161 0.285955 0.285715 0.28596 0.285992 0.285752 0.286274 0.286075 0.286185 0.286342 0.286121 0.285889
          0.286021 0.286205 0.285697 0.285181 0.285462 0.285868 0.28544 0.284866 0.285214 0.285641 0.284498 0.284248
          0.28451 0.284936 0.28406 0.283668 0.28421 0.284682 0.283849 0.283555 0.28357 0.284151 0.2829 0.28259
          0.28319 0.283697 0.283625 0.28398 0.284237 0.283916 0.282786 0.283368 0.283518 0.283144 0.28438 0.284779
          0.28482 0.284473 0.283932 0.284355 0.284625 0.28416 0.285197 0.285675 0.285798 0.285238 0.284748 0.285392
          0.285547 0.28494 0.286041 0.286246 0.286319 0.286147 0.285811 0.286065 0.286161 0.285944 0.286057 0.285751
          0.286007 0.286224 0.285888 0.285582 0.285853 0.286066 0.285359 0.284956 0.285316 0.285696 0.28514 0.284734
          0.285189 0.285514 0.284514 0.283873 0.284247 0.28479 0.284324 0.283961 0.284549 0.284843 0.284278 0.284665
          0.285101 0.284812 0.283946 0.28416 0.28446 0.28442 0.284996 0.285334 0.285728 0.285426 0.284633 0.285055
          0.285449 0.285045 0.285678 0.286017 0.286216 0.285997 0.28542 0.285796 0.286021 0.28577 0.286038 0.285789
          0.286155 0.286291 0.285906 0.285677 0.286014 0.286149 0.285531 0.285339 0.285962 0.286037 0.285415 0.285247
          0.28578 0.285867 0.285427 0.285633 0.286081 0.285988 0.285219 0.285317 0.285847 0.285775 0.28585 0.286073
          0.286324 0.286194 0.28557 0.285842 0.286131 0.285975 0.286418 0.286374 0.286577 0.286593 0.286274 0.286213
          0.286437 0.286467 0.286385 0.286438 0.286607 0.286585 0.286215 0.286278 0.286475 0.28644 0.285142 0.285064
          0.284721 0.284874 0.285036 0.284963 0.284674 0.284806 0.285025 0.285088 0.284736 0.284613 0.284931 0.284978
          0.284675 0.284608 0.285223 0.285373 0.28514 0.28492 0.285115 0.285253 0.285039 0.284842 0.285563 0.28569
          0.285595 0.285401 0.285455 0.285594 0.285486 0.285287 0.284944 0.284687 0.284275 0.284681 0.284859 0.28464
          0.284305 0.284638 0.284435 0.284201 0.283599 0.283899 0.284383 0.284193 0.283665 0.283945 0.283867 0.284186
          0.283506 0.283267 0.284052 0.284147 0.283416 0.283391 0.284454 0.284752 0.284164 0.283862 0.284376 0.284685
          0.284281 0.283738 0.285122 0.285439 0.285269 0.284795 0.285019 0.285313 0.285157 0.284765 0.28571 0.285848
          0.285802 0.285618 0.2856 0.285751 0.285693 0.285501 0.285239 0.28489 0.284684 0.28514 0.285134 0.284833
          0.284657 0.285043 0.284395 0.283795 0.283463 0.284105 0.28434 0.283852 0.283434 0.284065 0.283289 0.28284
          0.281916 0.282719 0.28336 0.282939 0.282165 0.282679 0.282465 0.282642 0.28214 0.280786 0.28244 0.28283
          0.282461 0.281655 0.283489 0.284108 0.284037 0.283293 0.283522 0.284103 0.283957 0.283284 0.2846 0.285149
          0.285102 0.284608 0.284599 0.285039 0.284971 0.284507 0.285536 0.285761 0.285728 0.285507 0.285423 0.285637
          0.285614 0.285405 0.285075 0.284546 0.284499 0.285078 0.284972 0.284526 0.284503 0.284979 0.283738 0.282927
          0.282444 0.283568 0.283815 0.283016 0.28274 0.283694 0.282155 0.281278 0.280937 0.281466 0.281957 0.281249
          0.279609 0.281616 0.280328 0.282172 0.282418 0.281274 0.280815 0.282014 0.28176 0.28061 0.283247 0.284
          0.283984 0.2833 0.28306 0.283842 0.28375 0.282818 0.284594 0.28506 0.285086 0.284603 0.28445 0.284917
          0.28494 0.284449 0.285211 0.284714 0.285014 0.285376 0.285104 0.284665 0.284923 0.285251 0.283989 0.283143
          0.283927 0.284491 0.283912 0.282928 0.283767 0.284361 0.282248 0.281905 0.282936 0.283361 0.2819 0.281378
          0.282666 0.283157 0.282137 0.282885 0.283287 0.2826 0.281566 0.282506 0.283063 0.282059 0.283543 0.283894
          0.284378 0.283918 0.283289 0.283828 0.284291 0.283754 0.28465 0.285209 0.285374 0.284852 0.284555 0.285074
          0.285247 0.284809 0.285638 0.285862 0.285952 0.285753 0.28554 0.285754 0.285835 0.285644 0.284931 0.284542
          0.285011 0.285264 0.284824 0.284456 0.284906 0.285134 0.284152 0.283841 0.284529 0.284749 0.284051 0.283755
          0.284449 0.284634 0.283673 0.283697 0.284305 0.284401 0.283513 0.283701 0.284431 0.284348 0.284341 0.28483
          0.285215 0.284689 0.284242 0.284708 0.285098 0.284739 0.285243 0.285598 0.2858 0.285559 0.285162 0.285486
          0.285676 0.28545 0.285285 0.285141 0.285581 0.285646 0.285207 0.285078 0.285466 0.28553 0.285089 0.285136
          0.285619 0.285565 0.285035 0.285096 0.285501 0.285451 0.285352 0.285625 0.285908 0.28576 0.285295 0.285525
          0.285787 0.285649 0.284063 0.284141 0.283692 0.283619 0.284053 0.284124 0.283749 0.283678 0.284348 0.284605