<?xml version="1.0"?>
<VTKFile type="UnstructuredGrid" version="0.1" byte_order="LittleEndian">
  <UnstructuredGrid>
    <Piece NumberOfCells="1000" NumberOfPoints="1331">
      <CellData Scalars="wetting pressure">
        <DataArray type="Float32" Name="wetting pressure" NumberOfComponents="1" format="ascii">
          265546 270752 272322 271368 268377 263506 256702 247725 236071 220666 265552 270773
          272364 271440 268487 263658 256873 247882 236178 220704 265562 270805 272429 271554
          268669 263935 257200 248190 236388 220776 265569 270830 272483 271653 268812 264251
          257622 248630 236675 220869 265569 270830 272489 271672 268821 264222 257904 249134
          236926 220935 265558 270796 272429 271585 268735 264182 257564 248578 236639 220856
          265538 270736 272319 271412 268509 263772 257051 248067 236306 220747 265516 270667
          272193 271215 268226 263384 256615 247669 236037 220654 265498 270608 272088 271054
          268002 263104 256316 247403 235857 220592 265487 270575 272029 270966 267883 262960
          256165 247272 235768 220560 261995 264558 264996 263528 260337 255482 248896 240439
          229907 217127 262003 264584 265048 263619 260483 255683 249116 240635 230038 217172
          262015 264623 265131 263773 260745 256091 249570 241046 230313 217264 262024 264656
          265205 263916 260962 256676 250272 241721 230757 217398 262024 264660 265224 263985
          261202 256750 250573 242599 231437 217530 262012 264621 265150 263846 260880 256578
          250242 241680 230724 217386 261990 264551 265017 263627 260586 255928 249428 240926
          230231 217235 261965 264472 264869 263384 260211 255398 248850 240414 229892 217121
          261944 264406 264747 263192 259937 255051 248483 240096 229679 217047 261933 264369
          264680 263090 259796 254880 248306 239943 229577 217011 260243 260463 259526 257318
          253819 248986 242742 235033 225859 215392 260253 260497 259596 257445 254029 249270
          243041 235288 226026 215448 260268 260549 259711 257670 254451 249896 243698 235848
          226385 215566 260281 260595 259818 257899 254877 250836 244867 236842 226995 215745
          260283 260605 259855 258030 255358 251148 245404 238164 227978 215931 260268 260558
          259760 257830 254819 250798 244889 236823 226969 215734 260242 260472 259588 257517
          254296 249748 243576 235735 226304 215536 260212 260374 259400 257188 253735 248966
          242760 235054 225869 215393 260187 260294 259249 256943 253370 248504 242282 234651
          225607 215304 260173 260250 259168 256815 253191 248286 242060 234464 225484 215261
          259126 257492 255260 252271 248425 243617 237757 230836 222940 214294 259139 257534
          255350 252438 248706 243988 238132 231146 223138 214360 259158 257602 255500 252743
          249304 244835 238970 231827 223561 214497 259175 257663 255644 253061 249957 246089
          240484 233029 224266 214703 259177 257677 255695 253229 250521 246483 241147 234520
          225326 214908 259160 257621 255581 252986 249892 246032 240742 233064 224251 214694
          259129 257516 255365 252576 249139 244686 238894 231730 223481 214467 259092 257397
          255130 252151 248379 243653 237832 230894 222967 214300 259062 257300 254944 251843
          247912 243067 237236 230406 222657 214195 259046 257247 254845 251685 247689 242798
          236964 230180 222511 214145 258262 255075 251661 247912 243716 238931 233457 227305
          220575 213448 258277 255127 251771 248116 244054 239369 233889 227655 220794 213521
          258300 255210 251953 248485 244778 240368 234843 228409 221253 213669 258321 255283
          252127 248868 245574 241807 236518 229697 221983 213883 258324 255301 252188 249054
          246150 242208 237250 231237 222981 214081 258305 255237 252056 248784 245498 241719
          236990 229773 221974 213873 258267 255113 251802 248298 244594 240204 234795 228315
          221168 213636 258225 254972 251521 247789 243683 238991 233558 227374 220604 213454
          258189 254857 251300 247421 243126 238301 232864 226817 220254 213336 258169 254793
          251182 247233 242861 237983 232547 226558 220088 213280 257470 252835 248290 243800
          239256 234496 229406 224005 218389 212676 257488 252895 248417 244034 239640 234986
          229882 224385 218624 212755 257515 252992 248628 244454 240444 236076 230905 225183
          219103 212909 257539 253077 248826 244880 241306 237587 232624 226485 219821 213119
          257544 253098 248894 245077 241887 237997 233367 228009 220700 213299 257521 253026
          248747 244787 241223 237508 232902 226515 219799 213107 257478 252883 248458 244243
          240236 235883 230793 225053 218999 212870 257429 252720 248134 243663 239217 234551
          229491 224058 218405 212678 257387 252585 247877 243238 238580 233773 228725 223447
          218024 212550 257364 252511 247738 243018 238273 233410 228368 223157 217840 212487
          256614 250443 244736 239508 234630 229900 225191 220539 216064 211844 256634 250515
          244885 239779 235068 230453 225723 220959 216321 211929 256667 250627 245128 240254
          235954 231637 226826 221814 216828 212092 256694 250725 245352 240723 236863 233192
          228571 223131 217538 212301 256699 250749 245427 240932 237455 233622 229319 224639
          218295 212461 256674 250668 245264 240620 236774 233120 228577 223096 217498 212285
          256625 250505 244937 240018 235719 231410 226627 221637 216702 212046 256568 250317
          244566 239359 234587 229955 225262 220580 216070 211841 256519 250161 244267 238866
          233857 229072 224410 219903 215650 211701 256492 250074 244105 238610 233499 228652
          224003 219575 215442 211630 255511 247519 240556 234596 229418 224734 220388 216479
          213225 210772 255536 247603 240734 234925 229954 225406 221027 216976 213525 210870
          255573 247735 241022 235489 230995 226781 222305 217960 214098 211053 255605 247850
          241283 236025 231999 228433 224164 219380 214853 211277 255612 247879 241370 236260
          232631 228911 224958 220919 215527 211428 255584 247787 241187 235913 231903 228355
          224179 219349 214812 211260 255528 247602 240812 235229 230737 226530 222086 217766
          213961 211004 255462 247384 240380 234457 229417 224848 220509 216551 213245 210773
          255406 247202 240028 233869 228536 223786 219496 215756 212758 210611 255374 247101
          239837 233561 228102 223278 219009 215369 212516 210530 253776 243480 235197 228574
          223179 218558 214511 211268 209288 209072 253805 243580 235415 228999 223914 219488
          215364 211905 209658 209191 253849 243736 235766 229714 225294 221332 217076 213186
          210372 209413 253886 243871 236078 230368 226530 223197 219259 214994 211297 209682
          253894 243908 236184 230653 227283 223792 220142 216510 211997 209848 253863 243805
          235976 230249 226430 223090 219595 215055 211279 209668 253800 243593 235541 229437
          225023 221074 216907 213014 210238 209363 253725 243344 235031 228492 223337 218890
          214812 211451 209357 209086 253661 243133 234615 227765 222188 217489 213509 210462
          208769 208894 253626 243016 234389 227389 221638 216840 212901 209991 208482 208799
          250237 237327 227959 220901 215431 210880 206980 204159 203216 205561 250269 237441
          228218 221450 216572 212359 208177 204982 203666 205700 250318 237618 228632 222371
          218650 215481 211010 206813 204580 205970 250360 237769 228994 223179 220394 217441
          213915 210093 205888 206315 250370 237812 229123 223540 221463 218367 214796 211217
          206935 206537 250336 237701 228890 223058 220296 217356 213870 210301 205903 206307
          250268 237470 228399 222087 218387 215237 210839 206671 204456 205922 250187 237194
          227817 220927 216011 211783 207607 204514 203355 205591 250117 236963 227342 220037
          214364 209724 205896 203294 202663 205371 250078 236834 227088 219594 213671 208896
          205157 202742 202336 205264
        </DataArray>
        <DataArray type="Float32" Name="nonwetting pressure" NumberOfComponents="1" format="ascii">
          265546 270752 272322 271368 268377 263506 256702 247725 236071 220666 265552 270773
          272364 271440 268487 263658 256873 247882 236178 220704 265562 270805 272429 271554
          268669 263935 257200 248190 236388 220776 265569 270830 272483 271653 268825 264251
          257622 248630 236675 220869 265569 270830 272489 271672 269228 264366 257962 249134
          236926 220935 265558 270796 272429 271585 268750 264182 257564 248578 236639 220856
          265538 270736 272319 271412 268509 263772 257051 248067 236306 220747 265516 270667
          272193 271215 268226 263384 256615 247669 236037 220654 265498 270608 272088 271054
          268002 263104 256316 247403 235857 220592 265487 270575 272029 270966 267883 262960
          256165 247272 235768 220560 261995 264558 264996 263528 260337 255482 248896 240439
          229907 217127 262003 264584 265048 263619 260483 255683 249116 240635 230038 217172
          262015 264623 265131 263773 260745 256091 249570 241046 230313 217264 262024 264656
          265205 263916 261028 256703 250272 241721 230757 217398 262024 264660 265224 263985
          261886 257088 250753 242679 231437 217530 262012 264621 265150 263846 260953 256613
          250242 241680 230724 217386 261990 264551 265017 263627 260586 255928 249428 240926
          230231 217235 261965 264472 264869 263384 260211 255398 248850 240414 229892 217121
          261944 264406 264747 263192 259937 255051 248483 240096 229679 217047 261933 264369
          264680 263090 259796 254880 248306 239943 229577 217011 260243 260463 259526 257318
          253819 248986 242742 235033 225859 215392 260253 260497 259596 257445 254029 249270
          243041 235288 226026 215448 260268 260549 259711 257670 254451 249896 243698 235848
          226385 215566 260281 260595 259818 257899 255015 250918 244867 236842 226995 215745
          260283 260605 259855 258030 256156 251592 245663 238291 227978 215931 260268 260558
          259760 257830 254964 250887 244889 236823 226969 215734 260242 260472 259588 257517
          254296 249748 243576 235735 226304 215536 260212 260374 259400 257188 253735 248966
          242760 235054 225869 215393 260187 260294 259249 256943 253370 248504 242282 234651
          225607 215304 260173 260250 259168 256815 253191 248286 242060 234464 225484 215261
          259126 257492 255260 252271 248425 243617 237757 230836 222940 214294 259139 257534
          255350 252438 248706 243988 238132 231146 223138 214360 259158 257602 255500 252743
          249304 244835 238970 231827 223561 214497 259175 257663 255644 253061 250135 246210
          240484 233029 224266 214703 259177 257677 255695 253229 251347 246958 241431 234661
          225326 214908 259160 257621 255581 252986 250077 246161 240742 233064 224251 214694
          259129 257516 255365 252576 249139 244686 238894 231730 223481 214467 259092 257397
          255130 252151 248379 243653 237832 230894 222967 214300 259062 257300 254944 251843
          247912 243067 237236 230406 222657 214195 259046 257247 254845 251685 247689 242798
          236964 230180 222511 214145 258262 255075 251661 247912 243716 238931 233457 227305
          220575 213448 258277 255127 251771 248116 244054 239369 233889 227655 220794 213521
          258300 255210 251953 248485 244778 240368 234843 228409 221253 213669 258321 255283
          252127 248868 245761 241941 236518 229697 221983 213883 258324 255301 252188 249054
          246975 242687 237535 231371 222981 214081 258305 255237 252056 248784 245692 241862
          236998 229773 221974 213873 258267 255113 251802 248298 244594 240204 234795 228315
          221168 213636 258225 254972 251521 247789 243683 238991 233558 227374 220604 213454
          258189 254857 251300 247421 243126 238301 232864 226817 220254 213336 258169 254793
          251182 247233 242861 237983 232547 226558 220088 213280 257470 252835 248290 243800
          239256 234496 229406 224005 218389 212676 257488 252895 248417 244034 239640 234986
          229882 224385 218624 212755 257515 252992 248628 244454 240444 236076 230905 225183
          219103 212909 257539 253077 248826 244880 241490 237723 232624 226485 219821 213119
          257544 253098 248894 245077 242704 238474 233645 228129 220700 213299 257521 253026
          248747 244787 241415 237652 232903 226515 219799 213107 257478 252883 248458 244243
          240236 235883 230793 225053 218999 212870 257429 252720 248134 243663 239217 234551
          229491 224058 218405 212678 257387 252585 247877 243238 238580 233773 228725 223447
          218024 212550 257364 252511 247738 243018 238273 233410 228368 223157 217840 212487
          256614 250443 244736 239508 234630 229900 225191 220539 216064 211844 256634 250515
          244885 239779 235068 230453 225723 220959 216321 211929 256667 250627 245128 240254
          235954 231637 226826 221814 216828 212092 256694 250725 245352 240723 237041 233327
          228571 223131 217538 212301 256699 250749 245427 240932 238267 234097 229590 224739
          218295 212461 256674 250668 245264 240620 236960 233262 228577 223096 217498 212285
          256625 250505 244937 240018 235719 231410 226627 221637 216702 212046 256568 250317
          244566 239359 234587 229955 225262 220580 216070 211841 256519 250161 244267 238866
          233857 229072 224410 219903 215650 211701 256492 250074 244105 238610 233499 228652
          224003 219575 215442 211630 255511 247519 240556 234596 229418 224734 220388 216479
          213225 210772 255536 247603 240734 234925 229954 225406 221027 216976 213525 210870
          255573 247735 241022 235489 230995 226781 222305 217960 214098 211053 255605 247850
          241283 236025 232177 228569 224164 219380 214853 211277 255612 247879 241370 236260
          233446 229387 225221 220996 215527 211428 255584 247787 241187 235913 232089 228499
          224179 219349 214812 211260 255528 247602 240812 235229 230737 226530 222086 217766
          213961 211004 255462 247384 240380 234457 229417 224848 220509 216551 213245 210773
          255406 247202 240028 233869 228536 223786 219496 215756 212758 210611 255374 247101
          239837 233561 228102 223278 219009 215369 212516 210530 253776 243480 235197 228574
          223179 218558 214511 211268 209288 209072 253805 243580 235415 228999 223914 219488
          215364 211905 209658 209191 253849 243736 235766 229714 225294 221332 217076 213186
          210372 209413 253886 243871 236078 230368 226727 223346 219259 214994 211297 209682
          253894 243908 236184 230653 228136 224286 220410 216575 211997 209848 253863 243805
          235976 230249 226635 223250 219602 215055 211279 209668 253800 243593 235541 229437
          225023 221074 216907 213014 210238 209363 253725 243344 235031 228492 223337 218890
          214812 211451 209357 209086 253661 243133 234615 227765 222188 217489 213509 210462
          208769 208894 253626 243016 234389 227389 221638 216840 212901 209991 208482 208799
          250237 237327 227959 220901 215431 210880 206980 204159 203216 205561 250269 237441
          228218 221450 216572 212359 208177 204982 203666 205700 250318 237618 228632 222371
          218817 215621 211010 206813 204580 205970 250360 237769 228994 223179 220975 217936
          214187 210104 205888 206315 250370 237812 229123 223540 222834 219304 215414 211499
          206935 206537 250336 237701 228890 223058 220889 217862 214151 210320 205903 206307
          250268 237470 228399 222087 218567 215393 210839 206671 204456 205922 250187 237194
          227817 220927 216011 211783 207607 204514 203355 205591 250117 236963 227342 220037
          214364 209724 205896 203294 202663 205371 250078 236834 227088 219594 213671 208896
          205157 202742 202336 205264
        </DataArray>
        <DataArray type="Float32" Name="wetting saturation" NumberOfComponents="1" format="ascii">
          1 1 1 1 1 1 1 1 1 1 1 1
          1 1 1 1 1 1 1 1 1 1 1 1
          1 1 1 1 1 1 1 1 1 1 0.99873 1
          1 1 1 1 1 1 1 1 0.959294 0.985592 0.994217 1
          1 1 1 1 1 1 0.99847 1 1 1 1 1
          1 1 1 1 1 1 1 1 1 1 1 1
          1 1 1 1 1 1 1 1 1 1 1 1
          1 1 1 1 1 1 1 1 1 1 1 1
          1 1 1 1 1 1 1 1 1 1 1 1
          1 1 1 1 1 1 1 1 1 1 1 1
          1 1 1 1 1 1 1 1 1 1 1 1
          1 1 0.993361 0.997267 1 1 1 1 1 1 1 1
          0.931585 0.966188 0.981987 0.991937 1 1 1 1 1 1 0.992691 0.996512
          1 1 1 1 1 1 1 1 1 1 1 1
          1 1 1 1 1 1 1 1 1 1 1 1
          1 1 1 1 1 1 1 1 1 1 1 1
          1 1 1 1 1 1 1 1 1 1 1 1
          1 1 1 1 1 1 1 1 1 1 1 1
          1 1 1 1 1 1 1 1 1 1 1 1
          1 1 1 1 1 1 0.986266 0.991804 1 1 1 1
          1 1 1 1 0.920179 0.955603 0.974135 0.987251 1 1 1 1
          1 1 0.985583 0.991119 1 1 1 1 1 1 1 1
          1 1 1 1 1 1 1 1 1 1 1 1
          1 1 1 1 1 1 1 1 1 1 1 1
          1 1 1 1 1 1 1 1 1 1 1 1
          1 1 1 1 1 1 1 1 1 1 1 1
          1 1 1 1 1 1 1 1 1 1 1 1
          1 1 1 1 1 1 1 1 1 1 0.982232 0.987877
          1 1 1 1 1 1 1 1 0.917416 0.952495 0.97158 0.985903
          1 1 1 1 1 1 0.981552 0.987162 1 1 1 1
          1 1 1 1 1 1 1 1 1 1 1 1
          1 1 1 1 1 1 1 1 1 1 1 1
          1 1 1 1 1 1 1 1 1 1 1 1
          1 1 1 1 1 1 1 1 1 1 1 1
          1 1 1 1 1 1 1 1 1 1 1 1
          1 1 1 1 1 1 1 1 1 1 1 1
          1 1 0.981283 0.986605 1 1 1 1 1 1 1 1
          0.917477 0.952059 0.971454 0.986541 1 1 1 1 1 1 0.980574 0.985713
          0.999187 1 1 1 1 1 1 1 1 1 1 1
          1 1 1 1 1 1 1 1 1 1 1 1
          1 1 1 1 1 1 1 1 1 1 1 1
          1 1 1 1 1 1 1 1 1 1 1 1
          1 1 1 1 1 1 1 1 1 1 1 1
          1 1 1 1 1 1 1 1 1 1 1 1
          1 1 1 1 1 1 0.981593 0.986412 1 1 1 1
          1 1 1 1 0.918229 0.952235 0.972121 0.988011 1 1 1 1
          1 1 0.980853 0.985599 0.999904 1 1 1 1 1 1 1
          1 1 1 1 1 1 1 1 1 1 1 1
          1 1 1 1 1 1 1 1 1 1 1 1
          1 1 1 1 1 1 1 1 1 1 1 1
          1 1 1 1 1 1 1 1 1 1 1 1
          1 1 1 1 1 1 1 1 1 1 1 1
          1 1 1 1 1 1 1 1 1 1 0.982116 0.986465
          1 1 1 1 1 1 1 1 0.918823 0.952442 0.972944 0.98994
          1 1 1 1 1 1 0.981342 0.985734 1 1 1 1
          1 1 1 1 1 1 1 1 1 1 1 1
          1 1 1 1 1 1 1 1 1 1 1 1
          1 1 1 1 1 1 1 1 1 1 1 1
          1 1 1 1 1 1 1 1 1 1 1 1
          1 1 1 1 1 1 1 1 1 1 1 1
          1 1 1 1 1 1 1 1 1 1 1 1
          1 1 0.982194 0.986331 1 1 1 1 1 1 1 1
          0.918559 0.952439 0.973691 0.992311 1 1 1 1 1 1 0.981393 0.985584
          1 1 1 1 1 1 1 1 1 1 1 1
          1 1 1 1 1 1 1 1 1 1 1 1
          1 1 1 1 1 1 1 1 1 1 1 1
          1 1 1 1 1 1 1 1 1 1 1 1
          1 1 1 1 1 1 1 1 1 1 1 1
          1 1 1 1 1 1 1 1 1 1 1 1
          1 1 1 1 1 1 0.980285 0.985032 1 1 1 1
          1 1 1 1 0.914723 0.950658 0.97326 0.993479 1 1 1 1
          1 1 0.97947 0.984062 0.999304 1 1 1 1 1 1 1
          1 1 1 1 1 1 1 1 1 1 1 1
          1 1 1 1 1 1 1 1 1 1 1 1
          1 1 1 1 1 1 1 1 1 1 1 1
          1 1 1 1 1 1 1 1 1 1 1 1
          1 1 1 1 1 1 1 1 1 1 1 1
          0.983343 0.985981 1 1 1 1 1 1 1 1 0.941944 0.950535
          0.972804 0.998951 1 1 1 1 1 1 0.862903 0.906293 0.938163 0.971848
          1 1 1 1 1 1 0.940732 0.94942 0.971961 0.998104 1 1
          1 1 1 1 0.981956 0.98436 1 1 1 1 1 1
          1 1 1 1 1 1 1 1 1 1 1 1
          1 1 1 1 1 1 1 1 1 1 1 1
          1 1 1 1
        </DataArray>
        <DataArray type="Float32" Name="C^w from cellData" NumberOfComponents="1" format="ascii">
          199.956 199.956 199.956 199.956 199.956 199.956 199.955 199.954 199.953 199.952 199.956 199.956
          199.956 199.956 199.956 199.956 199.955 199.954 199.953 199.952 199.956 199.956 199.956 199.956
          199.953 199.956 199.955 199.954 199.953 199.952 199.956 199.956 199.956 199.942 199.328 199.667
          199.926 199.954 199.953 199.952 199.956 199.956 199.956 199.846 191.624 196.793 198.101 199.318
          199.953 199.952 199.956 199.956 199.956 199.94 199.265 199.617 199.921 199.954 199.953 199.952
          199.956 199.956 199.956 199.956 199.948 199.956 199.955 199.954 199.953 199.952 199.956 199.956
          199.956 199.956 199.956 199.956 199.955 199.954 199.953 199.952 199.956 199.956 199.957 199.956
          199.956 199.956 199.955 199.954 199.953 199.952 199.956 199.956 199.957 199.956 199.956 199.956
          199.955 199.954 199.953 199.952 199.956 199.956 199.956 199.956 199.955 199.955 199.954 199.954
          199.953 199.951 199.956 199.956 199.956 199.956 199.955 199.955 199.954 199.954 199.953 199.951
          199.956 199.956 199.956 199.956 199.84 199.95 199.954 199.954 199.953 199.951 199.956 199.956
          199.956 199.926 198.232 198.928 199.668 199.92 199.953 199.951 199.956 199.956 199.956 199.751
          186.477 192.954 195.962 197.564 199.559 199.951 199.956 199.956 199.956 199.926 198.123 198.788
          199.615 199.918 199.953 199.951 199.956 199.956 199.956 199.956 199.805 199.945 199.954 199.954
          199.953 199.951 199.956 199.956 199.956 199.956 199.955 199.955 199.954 199.954 199.953 199.951
          199.956 199.956 199.956 199.956 199.955 199.955 199.954 199.954 199.953 199.951 199.956 199.956
          199.956 199.956 199.955 199.955 199.954 199.954 199.953 199.951 199.955 199.955 199.955 199.955
          199.955 199.954 199.954 199.953 199.952 199.951 199.955 199.955 199.955 199.955 199.955 199.954
          199.954 199.953 199.952 199.951 199.955 199.955 199.955 199.955 199.639 199.865 199.954 199.953
          199.952 199.951 199.955 199.955 199.955 199.926 196.841 197.624 199.17 199.836 199.952 199.951
          199.955 199.955 199.955 199.777 184.24 190.984 194.238 196.292 199.12 199.951 199.955 199.955
          199.955 199.924 196.692 197.454 199.133 199.831 199.952 199.951 199.955 199.955 199.955 199.955
          199.603 199.841 199.954 199.953 199.952 199.951 199.955 199.955 199.955 199.955 199.955 199.954
          199.954 199.953 199.952 199.951 199.955 199.955 199.955 199.955 199.955 199.954 199.954 199.953
          199.952 199.951 199.955 199.955 199.955 199.955 199.955 199.954 199.954 199.953 199.952 199.951
          199.955 199.955 199.955 199.955 199.954 199.954 199.953 199.953 199.952 199.951 199.955 199.955
          199.955 199.955 199.954 199.954 199.953 199.953 199.952 199.951 199.955 199.955 199.955 199.954
          199.539 199.764 199.953 199.953 199.952 199.951 199.955 199.955 199.955 199.922 195.983 196.687
          198.999 199.806 199.952 199.951 199.955 199.955 199.955 199.807 183.637 190.377 193.641 195.985
          199.131 199.951 199.955 199.955 199.955 199.922 195.827 196.547 198.902 199.801 199.952 199.951
          199.955 199.955 199.955 199.954 199.505 199.725 199.953 199.953 199.952 199.951 199.955 199.955
          199.955 199.955 199.954 199.954 199.953 199.953 199.952 199.951 199.955 199.955 199.955 199.955
          199.954 199.954 199.953 199.953 199.952 199.951 199.955 199.955 199.955 199.955 199.954 199.954
          199.953 199.953 199.952 199.951 199.955 199.955 199.955 199.954 199.954 199.953 199.953 199.952
          199.952 199.951 199.955 199.955 199.955 199.954 199.954 199.953 199.953 199.952 199.952 199.951
          199.955 199.955 199.955 199.954 199.501 199.713 199.953 199.952 199.952 199.951 199.955 199.955
          199.954 199.919 195.766 196.398 198.971 199.825 199.952 199.951 199.955 199.955 199.954 199.872
          183.621 190.283 193.597 196.221 199.316 199.951 199.955 199.955 199.954 199.919 195.601 196.274
          198.784 199.819 199.952 199.951 199.955 199.955 199.955 199.954 199.466 199.666 199.952 199.952
          199.952 199.951 199.955 199.955 199.955 199.954 199.954 199.953 199.953 199.952 199.952 199.951
          199.955 199.955 199.955 199.954 199.954 199.953 199.953 199.952 199.952 199.951 199.955 199.955
          199.955 199.954 199.954 199.953 199.953 199.952 199.952 199.951 199.955 199.955 199.954 199.954
          199.953 199.953 199.952 199.952 199.951 199.951 199.955 199.955 199.954 199.954 199.953 199.953
          199.952 199.952 199.951 199.951 199.955 199.955 199.954 199.954 199.493 199.698 199.952 199.952
          199.952 199.951 199.955 199.955 199.954 199.914 195.821 196.371 198.993 199.863 199.952 199.951
          199.955 199.955 199.954 199.874 183.779 190.314 193.716 196.688 199.552 199.951 199.955 199.955
          199.954 199.914 195.647 196.217 198.881 199.859 199.952 199.951 199.955 199.955 199.954 199.954
          199.455 199.646 199.952 199.952 199.952 199.951 199.955 199.955 199.954 199.954 199.953 199.953
          199.952 199.952 199.951 199.951 199.955 199.955 199.954 199.954 199.953 199.953 199.952 199.952
          199.951 199.951 199.955 199.955 199.954 199.954 199.953 199.953 199.952 199.952 199.951 199.951
          199.955 199.954 199.954 199.953 199.953 199.952 199.952 199.952 199.951 199.951 199.955 199.954
          199.954 199.953 199.953 199.952 199.952 199.952 199.951 199.951 199.955 199.954 199.954 199.953
          199.489 199.689 199.952 199.952 199.951 199.951 199.955 199.954 199.954 199.91 195.925 196.405
          199.027 199.897 199.951 199.951 199.955 199.954 199.954 199.914 183.946 190.361 193.848 197.246
          199.738 199.951 199.955 199.954 199.954 199.91 195.742 196.22 198.99 199.894 199.951 199.951
          199.955 199.954 199.954 199.953 199.449 199.632 199.952 199.952 199.951 199.951 199.955 199.954
          199.954 199.953 199.953 199.952 199.952 199.952 199.951 199.951 199.955 199.954 199.954 199.953
          199.953 199.952 199.952 199.952 199.951 199.951 199.955 199.954 199.954 199.953 199.953 199.952
          199.952 199.952 199.951 199.951 199.955 199.954 199.953 199.953 199.952 199.952 199.952 199.951
          199.951 199.951 199.955 199.954 199.953 199.953 199.952 199.952 199.952 199.951 199.951 199.951
          199.955 199.954 199.953 199.953 199.468 199.658 199.952 199.951 199.951 199.951 199.955 199.954
          199.953 199.906 195.931 196.388 199.049 199.924 199.951 199.951 199.955 199.954 199.953 199.901
          183.98 190.379 193.966 197.795 199.859 199.951 199.955 199.954 199.953 199.907 195.74 196.2
          199.013 199.923 199.951 199.951 199.955 199.954 199.953 199.953 199.427 199.6 199.952 199.951
          199.951 199.951 199.955 199.954 199.953 199.953 199.952 199.952 199.952 199.951 199.951 199.951
          199.955 199.954 199.953 199.953 199.952 199.952 199.951 199.951 199.951 199.951 199.955 199.954
          199.953 199.953 199.952 199.952 199.951 199.951 199.951 199.951 199.955 199.954 199.953 199.952
          199.952 199.951 199.951 199.951 199.951 199.951 199.955 199.954 199.953 199.952 199.952 199.951
          199.951 199.951 199.951 199.951 199.955 199.954 199.953 199.952 199.4 199.556 199.951 199.951
          199.951 199.951 199.955 199.954 199.953 199.907 195.503 196.086 199.017 199.931 199.951 199.951
          199.955 199.954 199.953 199.913 183.291 190.058 193.859 198.076 199.898 199.951 199.955 199.954
          199.953 199.907 195.307 195.927 198.835 199.929 199.951 199.951 199.955 199.954 199.953 199.952
          199.361 199.497 199.95 199.951 199.951 199.951 199.955 199.954 199.953 199.952 199.952 199.951
          199.951 199.951 199.951 199.951 199.955 199.954 199.953 199.952 199.952 199.951 199.951 199.951
          199.951 199.951 199.955 199.954 199.953 199.952 199.952 199.951 199.951 199.951 199.951 199.951
          199.955 199.953 199.952 199.952 199.951 199.951 199.95 199.95 199.95 199.95 199.955 199.953
          199.952 199.952 199.587 199.765 199.95 199.95 199.95 199.95 199.955 199.953 199.952 199.929
          196.062 196.368 198.983 199.949 199.95 199.95 199.955 199.953 199.952 199.914 188.12 189.77
          193.237 198.461 199.949 199.95 199.955 199.953 199.952 199.893 172.881 181.432 187.422 193.029
          199.057 199.95 199.955 199.953 199.952 199.914 187.89 189.566 193.079 198.312 199.948 199.95
          199.955 199.953 199.952 199.929 195.74 195.927 198.868 199.949 199.95 199.95 199.955 199.953
          199.952 199.952 199.483 199.684 199.95 199.95 199.95 199.95 199.955 199.953 199.952 199.952
          199.951 199.951 199.95 199.95 199.95 199.95 199.955 199.953 199.952 199.952 199.951 199.95
          199.95 199.95 199.95 199.95
        </DataArray>
        <DataArray type="Float32" Name="C^n from cellData" NumberOfComponents="1" format="ascii">
          0 0 0 3.44716e-15 6.37356e-11 4.5346e-12 1.38897e-13 2.9506e-15 1.1201e-17 0 0 0
          5.27299e-16 8.59465e-12 1.11968e-07 9.63795e-09 3.73148e-10 7.67195e-12 1.08439e-13 1.95497e-15 8.0443e-18 1.01898e-14 9.66843e-13 7.80598e-09
          8.99278e-05 7.9149e-06 4.66385e-07 1.09082e-08 1.58009e-10 2.08691e-12 2.8266e-13 1.39465e-11 1.03358e-09 3.66891e-06 0.0166251 0.00358561
          0.000410881 1.15191e-05 1.58077e-07 1.93426e-09 6.09904e-10 2.45847e-08 1.39622e-06 0.00142464 0.0420169 0.0246448 0.0186968 0.00771564
          0.000128955 1.62678e-06 4.80809e-13 2.50644e-11 1.873e-09 4.81565e-06 0.0167865 0.00436795 0.000479312 1.29818e-05 1.77771e-07 2.17192e-09
          6.45712e-16 2.12715e-14 2.17327e-12 1.21932e-08 0.000152789 1.1143e-05 6.29704e-07 1.41932e-08 2.02522e-10 2.64573e-12 0 8.03084e-18
          1.58863e-15 1.79013e-11 2.07409e-07 1.65818e-08 6.25307e-10 1.24482e-11 1.74452e-13 2.73756e-15 0 0 0 1.33302e-14
          1.81884e-10 1.27484e-11 3.81338e-13 6.25657e-15 2.56097e-17 0 0 0 0 0 6.4005e-14 4.40684e-15
          5.34153e-17 0 0 0 0 0 0 1.07412e-14 6.58601e-10 3.45134e-11 1.06718e-12 1.60021e-14
          3.97984e-17 0 0 0 5.34449e-16 2.32113e-11 1.57889e-06 8.58007e-08 3.61385e-09 6.79947e-11 6.75655e-13 4.83858e-15