<?xml version="1.0"?>
<VTKFile type="PolyData" version="0.1" byte_order="LittleEndian">
  <PolyData>
    <Piece NumberOfLines="100" NumberOfPoints="101">
      <PointData Scalars="x^tracer_0">
        <DataArray type="Float32" Name="x^tracer_0" NumberOfComponents="1" format="ascii">
          0 0 0.000928025 0.00553288 0.0131449 0.0192773 0.0218448 0.0219353 0.0213199 0.0205958 0.0199429 0.0193602
          0.0188177 0.0152471 0.0148085 0.0143297 0.0138137 0.0132628 0.0126796 0.012066 0.0114236 0.0107544 0.0100628 0.00935362
          0.00863288 0.00790713 0.00718356 0.00646993 0.0051725 0.00365401 0.00244534 0.00154104 0.000906851 0.00049253 0.000240196 0.000103001
          4.40332e-05 1.3702e-30 8.34454e-30 -7.75442e-27 7.8612e-24 -7.08269e-21 5.67853e-18 5.7979e-15 6.84508e-13 3.87419e-11 1.35923e-09 3.32544e-08
          6.09866e-07 8.88015e-06 3.09885e-05 5.85639e-05 0.000107195 0.000189876 0.000325195 0.000538009 0.000859113 0.00132325 0.00196506 0.00281296
          0.00388305 0.00290195 0.00148333 0.000687085 0.000284913 0.000104067 3.21961e-05 8.11928e-06 2.0242e-06 -0 0 -2.01787e-43
          1.15524e-40 -6.64289e-38 3.76181e-35 -2.12179e-32 1.18104e-29 -6.54402e-27 3.61308e-24 -1.97203e-21 1.06546e-18 -5.68899e-16 2.97935e-13 -1.5088e-10
          7.34868e-08 -3.36357e-05 -1.87361e-05 2.94289e-07 2.87356e-07 4.57796e-09 2.0286e-08 9.2968e-08 3.31808e-07 9.58402e-07 2.32323e-06 4.84344e-06
          -4.57513e-10 2.58822e-14 5.64127e-17 2.42799e-16 1.12718e-15
        </DataArray>
        <DataArray type="Float32" Name="X^tracer_0" NumberOfComponents="1" format="ascii">
          0 0 1.54671e-05 9.22148e-05 0.000219081 0.000321289 0.000364081 0.000365589 0.000355332 0.000343263 0.000332382 0.00032267
          0.000313629 0.000254119 0.000246809 0.000238829 0.000230229 0.000221046 0.000211326 0.0002011 0.000190393 0.00017924 0.000167713 0.000155894
          0.000143881 0.000131785 0.000119726 0.000107832 8.62083e-05 6.09002e-05 4.07557e-05 2.56839e-05 1.51142e-05 8.20883e-06 4.00327e-06 1.71668e-06
          7.33886e-07 2.28367e-32 1.39076e-31 -1.2924e-28 1.3102e-25 -1.18045e-22 9.46421e-20 9.66317e-17 1.14085e-14 6.45699e-13 2.26538e-11 5.5424e-10
          1.01644e-08 1.48003e-07 5.16474e-07 9.76066e-07 1.78658e-06 3.16459e-06 5.41991e-06 8.96682e-06 1.43186e-05 2.20541e-05 3.2751e-05 4.68826e-05
          6.47175e-05 4.83658e-05 2.47222e-05 1.14514e-05 4.74855e-06 1.73446e-06 5.36602e-07 1.35321e-07 3.37366e-08 -0 0 -2.8026e-45
          1.92538e-42 -1.10715e-39 6.26969e-37 -3.53631e-34 1.96841e-31 -1.09067e-28 6.0218e-26 -3.28672e-23 1.77576e-20 -9.48165e-18 4.96559e-15 -2.51466e-12
          1.22478e-09 -5.60595e-07 -3.12268e-07 4.90482e-09 4.78926e-09 7.62993e-11 3.38101e-10 1.54947e-09 5.53013e-09 1.59734e-08 3.87206e-08 8.0724e-08
          -7.62522e-12 4.31371e-16 9.40212e-19 4.04665e-18 1.87863e-17
        </DataArray>
        <DataArray type="Float32" Name="rho" NumberOfComponents="1" format="ascii">
          1000 1000 1000 1000 1000 1000 1000 1000 1000 1000 1000 1000
          1000 1000 1000 1000 1000 1000 1000 1000 1000 1000 1000 1000
          1000 1000 1000 1000 1000 1000 1000 1000 1000 1000 1000 1000
          1000 1000 1000 1000 1000 1000 1000 1000 1000 1000 1000 1000
          1000 1000 1000 1000 1000 1000 1000 1000 1000 1000 1000 1000
          1000 1000 1000 1000 1000 1000 1000 1000 1000 1000 1000 1000
          1000 1000 1000 1000 1000 1000 1000 1000 1000 1000 1000 1000
          1000 1000 1000 1000 1000 1000 1000 1000 1000 1000 1000 1000
          1000 1000 1000 1000 1000
        </DataArray>
      </PointData>
      <CellData Scalars="process rank">
        <DataArray type="Float32" Name="process rank" NumberOfComponents="1" format="ascii">
          0 0 0 0 0 0 0 0 0 0 0 0
          0 0 0 0 0 0 0 0 0 0 0 0
          0 0 0 0 0 0 0 0 0 0 0 0
          0 0 0 0 0 0 0 0 0 0 0 0
          0 0 0 0 0 0 0 0 0 0 0 0
          0 0 0 0 0 0 0 0 0 0 0 0
          0 0 0 0 0 0 0 0 0 0 0 0
          0 0 0 0 0 0 0 0 0 0 0 0
          0 0 0 0
        </DataArray>
      </CellData>
      <Points>
        <DataArray type="Float32" Name="Coordinates" NumberOfComponents="3" format="ascii">
          0 6.409 0 0.243615 6.37169 0 0.487231 6.33438 0 0.730846 6.29708 0
          0.974462 6.25977 0 1.21808 6.22246 0 1.46169 6.18515 0 1.70531 6.14785 0
          1.94892 6.11054 0 2.19254 6.07323 0 2.43615 6.03592 0 2.67977 5.99862 0
          2.92338 5.96131 0 3.167 5.924 0 3.41427 5.88613 0 3.66153 5.84827 0
          3.9088 5.8104 0 4.15607 5.77253 0 4.40333 5.73467 0 4.6506 5.6968 0
          4.89787 5.65893 0 5.14513 5.62107 0 5.3924 5.5832 0 5.63967 5.54533 0
          5.88693 5.50747 0 6.1342 5.4696 0 6.38147 5.43173 0 6.62873 5.39387 0
          6.876 5.356 0 7.11438 5.3195 0 7.35275 5.283 0 7.59113 5.2465 0
          7.8295 5.21 0 8.06787 5.1735 0 8.30625 5.137 0 8.54463 5.1005 0
          8.783 5.064 0 5.088 0 0 5.16083 0.218083 0 5.23367 0.436167 0
          5.3065 0.65425 0 5.37933 0.872333 0 5.45217 1.09042 0 5.525 1.3085 0
          5.59783 1.52658 0 5.67067 1.74467 0 5.7435 1.96275 0 5.81633 2.18083 0
          5.88917 2.39892 0 5.962 2.617 0 6.03817 2.84525 0 6.11433 3.0735 0
          6.1905 3.30175 0 6.26667 3.53 0 6.34283 3.75825 0 6.419 3.9865 0
          6.49517 4.21475 0 6.57133 4.443 0 6.6475 4.67125 0 6.72367 4.8995 0
          6.79983 5.12775 0 6.9515 5.5825 0 7.027 5.809 0 7.1025 6.0355 0
          7.178 6.262 0 7.2535 6.4885 0 7.329 6.715 0 7.4045 6.9415 0
          7.48 7.168 0 3.626 10 0 3.599 9.76023 0 3.572 9.52047 0
          3.545 9.28071 0 3.518 9.04094 0 3.491 8.80118 0 3.464 8.56141 0
          3.437 8.32165 0 3.41 8.08188 0 3.383 7.84212 0 3.356 7.60235 0
          3.329 7.36259 0 3.302 7.12282 0 3.275 6.88306 0 3.248 6.64329 0
          3.221 6.40353 0 3.194 6.16376 0 3.13757 5.66149 0 3.09751 5.30423 0
          3.043 4.818 0 9.3 3.493 0 8.50037 3.28315 0 7.84441 3.11101 0
          7.3063 2.96979 0 6.86487 2.85394 0 6.50275 2.75891 0 6.20569 2.68095 0
          5.69148 2.545 0 5.33453 2.45001 0 4.86354 2.32465 0 4.24205 2.15925 0
          3.422 1.941 0
        </DataArray>
      </Points>
      <Lines>
        <DataArray type="Int32" Name="connectivity" NumberOfComponents="1" format="ascii">
          0 1 1 2 2 3 3 4 4 5 5 6
          6 7 7 8 8 9 9 10 10 11 11 12
          12 13 13 14 14 15 15 16 16 17 17 18
          18 19 19 20 20 21 21 22 22 23 23 24
          24 25 25 26 26 27 27 28 28 29 29 30
          30 31 31 32 32 33 33 34 34 35 35 36
          37 38 38 39 39 40 40 41 41 42 42 43
          43 44 44 45 45 46 46 47 47 48 48 49
          49 50 50 51 51 52 52 53 53 54 54 55
          55 56 56 57 57 58 58 59 59 60 60 28
          28 61 61 62 62 63 63 64 64 65 65 66
          66 67 67 68 69 70 70 71 71 72 72 73
          73 74 74 75 75 76 76 77 77 78 78 79
          79 80 80 81 81 82 82 83 83 84 84 85
          85 13 13 86 86 87 87 88 89 90 90 91
          91 92 92 93 93 94 94 95 95 49 49 96
          96 97 97 98 98 99 99 100
        </DataArray>
        <DataArray type="Int32" Name="offsets" NumberOfComponents="1" format="ascii">
          2 4 6 8 10 12 14 16 18 20 22 24
          26 28 30 32 34 36 38 40 42 44 46 48
          50 52 54 56 58 60 62 64 66 68 70 72
          74 76 78 80 82 84 86 88 90 92 94 96
          98 100 102 104 106 108 110 112 114 116 118 120
          122 124 126 128 130 132 134 136 138 140 142 144
          146 148 150 152 154 156 158 160 162 164 166 168
          170 172 174 176 178 180 182 184 186 188 190 192
          194 196 198 200
        </DataArray>
      </Lines>
    </Piece>
  </PolyData>
</VTKFile>
