<?xml version="1.0"?>
<VTKFile type="PolyData" version="0.1" byte_order="LittleEndian">
  <PolyData>
    <Piece NumberOfLines="20" NumberOfPoints="21">
      <PointData Scalars="p">
        <DataArray type="Float32" Name="p" NumberOfComponents="1" format="ascii">
          1 1.05001 1.10002 1.15003 1.20004 1.25005 1.30005 1.35005 1.40006 1.45006 1.50006 1.55005
          1.60005 1.65005 1.70005 1.75004 1.80003 1.85003 1.90002 1.95001 2
        </DataArray>
        <DataArray type="Float32" Name="exact pressure" NumberOfComponents="1" format="ascii">
          1 1.05 1.1 1.15 1.2 1.25 1.3 1.35 1.4 1.45 1.5 1.55
          1.6 1.65 1.7 1.75 1.8 1.85 1.9 1.95 2
        </DataArray>
      </PointData>
      <CellData Scalars="process rank">
        <DataArray type="Float32" Name="process rank" NumberOfComponents="1" format="ascii">
          0 0 0 0 0 0 0 0 0 0 0 0
          0 0 0 0 0 0 0 0
        </DataArray>
      </CellData>
      <Points>
        <DataArray type="Float32" Name="Coordinates" NumberOfComponents="3" format="ascii">
          0 0 0 0 0 0.05 0 0 0.1 0 0 0.15
          0 0 0.2 0 0 0.25 0 0 0.3 0 0 0.35
          0 0 0.4 0 0 0.45 0 0 0.5 0 0 0.55
          0 0 0.6 0 0 0.65 0 0 0.7 0 0 0.75
          0 0 0.8 0 0 0.85 0 0 0.9 0 0 0.95
          0 0 1
        </DataArray>
      </Points>
      <Lines>
        <DataArray type="Int32" Name="connectivity" NumberOfComponents="1" format="ascii">
          0 1 1 2 2 3 3 4 4 5 5 6
          6 7 7 8 8 9 9 10 10 11 11 12
          12 13 13 14 14 15 15 16 16 17 17 18
          18 19 19 20
        </DataArray>
        <DataArray type="Int32" Name="offsets" NumberOfComponents="1" format="ascii">
          2 4 6 8 10 12 14 16 18 20 22 24
          26 28 30 32 34 36 38 40
        </DataArray>
      </Lines>
    </Piece>
  </PolyData>
</VTKFile>
