<?xml version="1.0"?>
<VTKFile type="UnstructuredGrid" version="0.1" byte_order="LittleEndian">
  <UnstructuredGrid>
    <Piece NumberOfCells="1758" NumberOfPoints="5274">
      <PointData Scalars="p">
        <DataArray type="Float32" Name="p" NumberOfComponents="1" format="ascii">
          125000 123401 122326 125000 123401 125000 120488 119991 122326 122326 123401 121591
          121591 120488 122326 119638 120488 121591 123101 123401 125000 123101 121591 123401
          125000 123101 125000 120938 119638 121591 121591 123101 120938 119991 118884 117980
          119991 120488 118884 118884 117119 117980 119638 118884 120488 117752 117119 118884
          117980 117119 116312 117119 115649 116312 114986 116312 115649 115987 115649 117119
          115987 117119 117752 114553 115649 115987 117752 118884 119638 118571 117752 119638
          118571 119638 120938 116170 117752 118571 116170 115987 117752 114295 114553 115987
          114295 115987 116170 112571 114295 116170 123023 123101 125000 123023 125000 125000
          125000 123588 123023 120938 123101 123023 123023 121306 120938 120938 121306 119651
          123023 122165 121306 119651 121306 120766 125000 123588 125000 123588 122165 123023
          122387 122165 123588 123588 125000 123751 123751 122387 123588 120766 122165 122387
          121306 122165 120766 120766 122387 121400 121400 119770 120766 120938 119651 118571
          118571 117303 116170 117303 118571 119651 119651 118752 117303 118752 116585 117303
          112571 116170 117303 117303 116585 112571 116585 114626 112571 120766 118752 119651
          120766 119770 118752 118752 119770 118097 118752 118097 116585 116371 114626 116585
          118097 116371 116585 114986 114412 113952 115649 114412 114986 113952 113512 113140
          114412 113512 113952 114412 113783 113512 115649 114553 114412 114553 113783 114412
          113051 113512 113783 113416 113783 114553 113051 113783 113416 112793 113140 113512
          113140 112793 112468 112107 112468 112793 113512 113051 112793 112793 112418 112107
          112107 111873 112468 111873 111655 111245 112107 111655 111873 111608 111655 112107
          111945 111608 112107 112793 113051 112418 112610 113051 113416 112610 112418 113051
          112418 111945 112107 111945 111589 111608 111990 111945 112418 111990 112418 112610
          111589 111945 111990 113416 114553 114295 114295 113028 113416 112571 113028 114295
          113028 112643 113416 113416 112643 112610 112643 112191 112610 112610 112191 111990
          111761 111537 111990 112191 111761 111990 111889 111761 112191 112643 112238 112191
          113028 112441 112643 112441 112238 112643 112046 112238 112441 112191 112238 111889
          111889 112238 112046 111651 111889 112046 111016 111245 111241 111655 111241 111245
          110871 111016 111241 111241 111655 111608 111241 111608 111234 110871 111241 111234
          111234 110932 110871 111016 110871 110664 110664 110871 110505 110189 110664 110505
          110505 110871 110932 111234 111608 111589 111589 111225 111234 110932 111234 111225
          111225 111589 111537 111537 111589 111990 111537 111216 111225 111216 110946 111225
          110932 111225 110946 110946 110657 110932 110932 110657 110505 110505 110657 110281
          110935 110626 110946 110626 110657 110946 110281 110657 110626 109908 109581 110189
          109908 110189 110505 110505 110281 109908 109581 109211 108804 109581 109908 109211
          109908 110281 109732 110281 110626 110199 110281 110199 109732 110199 109722 109732
          109908 109732 109211 109211 109732 109026 109732 109722 109026 111761 111453 111537
          111537 111453 111216 111216 111453 111206 111536 111453 111761 111206 111453 111536
          111536 111199 111206 110946 111216 110935 111216 111206 110935 110626 110935 110618
          110935 111206 110971 111199 110971 111206 110935 110971 110618 110618 110971 110897
          111889 111536 111761 111536 111394 111199 111651 111536 111889 111651 111394 111536
          111393 111394 111651 111394 111194 111199 111194 110897 111199 110897 110971 111199
          110873 110565 110897 111194 111394 111393 111192 111194 111393 110897 111194 110873
          111192 110873 111194 110618 110199 110626 109722 110199 110204 110618 110204 110199
          110565 110204 110618 109722 109309 109026 110204 109826 109722 109826 109309 109722
          110618 110897 110565 110532 110235 110565 110565 110235 110204 110204 110235 109826
          110565 110873 110532 110846 110532 110873 110049 110235 110532 110049 110532 110423
          109826 110235 110049 109355 109826 110049 109355 109309 109826 109355 110049 109886
          112263 112441 113028 112263 113028 112571 112571 114626 113630 112571 113630 112263
          112046 112441 112263 112046 111772 111651 111924 111772 112046 112905 112263 113630
          112263 112905 111924 111924 112046 112263 116371 114942 114626 114942 113630 114626
          113630 114942 113949 116371 116168 114942 114942 115051 113949 113949 112905 113630
          112905 112379 111924 113270 112379 112905 112905 113949 113270 113949 114219 113270
          113270 112643 112379 113270 113182 112643 111772 111561 111651 111651 111561 111393
          111393 111561 111371 111371 111561 111579 111579 111561 111772 111393 111371 111192
          110873 111192 110846 111192 111371 111192 110846 111192 111192 111579 111352 111371
          111371 111352 111192 111195 111192 111352 111579 111772 111924 111924 111629 111579
          111629 111422 111579 111422 111352 111579 111195 111352 111422 111394 111422 111629
          111200 111195 111422 111422 111394 111200 110423 110532 110846 110423 110846 110823
          110823 110846 111192 111192 111195 110823 110423 110823 110405 109886 110049 110423
          109886 110423 110405 109886 110405 109880 111195 110859 110823 111195 111200 110859
          110823 110859 110405 110859 110614 110405 110889 110859 111200 111200 111209 110889
          110889 110614 110859 110405 110614 110310 110405 110310 109880 110593 110310 110614
          110593 110614 110889 109880 110310 110105 110310 110593 110105 111924 112379 111629
          112379 112133 111629 111629 112133 111772 112643 112133 112379 111772 111394 111629
          111394 111772 111522 111522 111209 111394 111772 112133 112234 111881 111522 111772
          112234 112133 112643 113182 112715 112643 112715 112234 112643 111772 112234 111881
          111881 111579 111522 112291 111881 112234 112234 112715 112291 111835 111881 112291
          111209 111200 111394 110954 110889 111209 110593 110889 110954 111209 111522 111301
          111579 111301 111522 111209 111301 110954 111301 111071 110954 110644 110593 110954
          110105 110593 110644 110954 111071 110644 111071 110774 110644 110644 110774 110266
          111301 111579 111394 111835 111579 111881 111394 111579 111835 111394 111071 111301
          111123 111071 111394 111486 111394 111835 111394 111486 111123 111071 111123 110774
          110767 110774 111123 111153 111123 111486 111153 110767 111123 110767 111153 110774
          125000 123751 125000 123751 125000 123861 123751 122706 122387 123861 122706 123751
          125000 125000 123861 123861 122872 122706 122706 121400 122387 121400 122706 121929
          121929 120720 121400 122706 122872 121929 120720 121929 121371 125000 124314 123861
          125000 124314 125000 124314 123425 123861 123425 122872 123861 124314 125000 124296
          124314 124296 123590 125000 124296 125000 123590 123425 124314 123425 123590 122878
          123596 123590 124296 122878 123590 123596 122433 122872 123425 121929 122872 122433
          122433 121371 121929 121371 122433 121917 122878 122433 123425 122878 121917 122433
          122878 122314 121917 121371 121917 120935 121917 122314 121475 121917 121475 120935
          121400 120720 119770 120720 119215 119770 118097 119770 119215 120720 120152 119215
          120720 121371 120152 120152 119080 119215 116371 118097 117755 118097 119215 117755
          117755 116168 116371 117755 119215 119080 119080 118257 117755 117755 117056 116168
          118257 117056 117755 121371 120935 120152 120935 120010 120152 119080 120152 120010
          120010 119228 119080 121475 120643 120935 120010 120935 120643 120643 119905 120010
          119228 120010 119905 119228 118257 119080 118257 117634 117056 118689 117634 118257
          119228 118689 118257 119905 119285 119228 118689 119228 119285 117634 118689 117745
          125000 124280 124296 124280 125000 125000 124280 123596 124296 124280 123718 123596
          123010 123596 123718 123718 123329 123010 125000 124480 124280 124280 124480 123926
          125000 124480 125000 123926 124480 124226 124226 124480 125000 123926 123718 124280
          123329 123718 123926 123638 123926 124226 123329 123926 123638 123638 123035 123329
          123596 123010 122878 122878 123010 122314 122314 123010 122656 122314 121932 121475
          122314 122656 121932 121475 121932 121084 123329 122656 123010 122656 123329 123035
          122333 122656 123035 121932 122656 122333 121932 121606 121084 121606 121932 122333
          122333 121886 121606 125000 125000 124445 124445 124226 125000 123903 124226 124445
          124516 124445 125000 124226 123903 123638 123638 123345 123035 123345 123638 123903
          124032 123903 124445 123903 124032 123549 123549 123345 123903 125000 125000 124516
          125000 124636 124516 124445 124516 124032 124516 124216 124032 125000 124636 125000
          124516 124636 124216 124216 124636 124451 123549 124032 123792 123792 123311 123549
          124216 123792 124032 123792 124216 124015 123311 123792 123589 123345 122838 123035
          122333 123035 122838 122838 122348 122333 123066 122838 123345 123549 123066 123345
          122838 122583 122348 123066 122583 122838 122333 122348 121886 121886 122348 122101
          122101 122348 122583 121886 122101 121618 122101 121809 121618 123066 123549 123311
          123311 122784 123066 122583 123066 122784 122784 123311 123055 122184 122101 122583
          122583 122784 122184 122184 121809 122101 121697 121809 122184 122184 122784 122491
          122491 121825 122184 121825 121697 122184 121084 120643 121475 121084 120349 120643
          120349 119905 120643 120349 119785 119905 121084 121112 120590 121606 121112 121084
          121375 121112 121606 120590 121112 120890 121084 120590 120349 120590 120145 120349
          119785 120349 120145 120145 120590 120403 120890 120403 120590 120403 119926 120145
          119905 119785 119285 119285 119785 119321 119285 119321 118709 118689 119285 118709
          118709 117745 118689 118709 118388 117962 120145 119711 119785 119785 119711 119321
          119321 119711 119425 119425 119042 119321 119926 119711 120145 119425 119711 119926
          119425 119076 119042 119219 119076 119425 119321 119042 118709 118709 119042 118727
          118727 118388 118709 119076 118727 119042 118727 119076 118740 118727 118398 118388
          118740 118398 118727 121886 121375 121606 121886 121618 121375 120890 121112 121375
          121375 121136 120890 120656 120890 121136 121136 121375 121618 121136 121618 121352
          120890 120656 120403 119926 120403 120176 120176 120403 120656 120783 120656 121136
          120656 120783 120293 120293 120176 120656 120176 120293 119804 121618 121809 121352
          121809 121697 121352 121136 121352 120783 121352 120993 120783 121352 121697 121407
          121825 121407 121697 121352 121407 120993 120993 121407 121226 120496 120293 120783
          120293 120496 120004 120496 120783 120993 120993 120709 120496 120496 120197 120004
          119425 119926 119697 120176 119697 119926 119697 119219 119425 119697 119418 119219
          119804 119697 120176 119804 119418 119697 119351 119418 119804 119039 119418 119351
          119076 119219 118740 119219 119039 118740 118740 118288 118398 118740 118397 118288
          119039 119219 119418 119351 118993 119039 118993 118721 119039 118740 119039 118721
          118740 118721 118397 118338 118397 118721 119804 120293 120004 120004 119595 119804
          119804 119595 119351 119351 119595 119154 119644 119595 120004 119644 120004 120197
          119154 119595 119644 119154 118993 119351 118701 118993 119154 118721 118993 118701
          118701 118338 118721 119644 119122 119154 119154 119122 118681 118681 118701 119154
          118313 118701 118681 116168 115051 114942 116168 115919 115051 117056 115919 116168
          117056 116619 115919 115051 115919 115048 115677 115048 115919 115051 114219 113949
          115048 114219 115051 115048 114319 114219 114219 113728 113270 113728 113182 113270
          114319 113728 114219 113182 113728 113631 113631 113728 114319 115048 115677 114938
          114938 114319 115048 113631 114319 114285 114938 114285 114319 117634 116619 117056
          117634 117027 116619 115919 116619 115677 116619 117027 116287 116619 116287 115677
          117745 117027 117634 116875 117027 117745 116287 117027 116875 116875 116131 116287
          115677 115555 114938 115677 116287 115555 115555 114872 114938 114285 114938 114872
          114872 114260 114285 114260 114872 114842 115555 116287 116131 115555 115445 114872
          116131 115445 115555 116131 115940 115445 115445 114842 114872 114842 115445 115311
          115311 114897 114842 113182 113099 112715 112715 113099 112754 113631 113099 113182
          113209 113099 113631 112754 113099 113209 112754 112291 112715 111835 112291 112322
          112754 112322 112291 112763 112322 112754 112274 112322 112763 113744 113209 113631
          113631 114285 113744 113744 113243 113209 112754 113209 112763 113243 112763 113209
          112745 112274 112763 112763 113243 112745 112322 111921 111835 111921 111486 111835
          111921 111577 111486 112274 111921 112322 111921 111889 111577 112274 111889 111921
          111486 111577 111153 111577 111399 111153 111669 111399 111577 111577 111889 111669
          111399 111669 111481 111153 111399 111159 111481 111159 111399 111967 111889 112274
          111967 111669 111889 112274 112311 111967 112745 112311 112274 112745 112544 112311
          111967 112311 112154 112154 112311 112544 111669 111967 111759 111759 111481 111669
          111159 111481 111308 111481 111604 111308 112154 111759 111967 111848 111759 112154
          111481 111759 111604 111848 111604 111759 114260 113744 114285 113744 113706 113243
          114260 113706 113744 114260 114105 113706 113706 113234 113243 113243 113234 112745
          113234 112854 112745 113706 113645 113234 113706 114105 113645 113213 112854 113234
          113645 113213 113234 114105 114260 114842 114842 114503 114105 114842 114897 114503
          114503 114035 114105 114035 114503 114442 114035 113645 114105 114035 113587 113645
          113587 113213 113645 113587 114035 113985 113985 113551 113587 112854 112544 112745
          112544 112482 112154 112482 112544 112854 112812 112854 113213 112812 112482 112854
          112408 112482 112812 112154 112159 111848 112482 112159 112154 111604 111848 111622
          111848 112159 111936 111936 111622 111848 112408 112159 112482 111936 112159 112408
          111936 112408 112385 113168 112812 113213 113587 113168 113213 112408 112812 112774
          113168 112774 112812 113168 113587 113551 113551 113125 113168 112774 113168 113125
          113125 112743 112774 112774 112385 112408 112385 112024 111936 112024 112385 112426
          112385 112774 112743 112743 112426 112385 112426 112110 112024 117329 116875 117745
          118709 117962 117745 117745 117962 117329 116875 117329 116652 116131 116875 116652
          117329 117090 116652 117962 118388 118033 117962 117593 117329 117962 118033 117593
          118388 118398 118033 118033 118398 118288 117837 118033 118288 117593 118033 117837
          117329 117593 117090 116652 117090 116631 116944 116631 117090 117389 117090 117593
          117593 117837 117389 117090 117389 116944 116652 115940 116131 116652 116315 115940
          116631 116315 116652 115768 115940 116315 116315 116161 115768 115311 115445 115940
          115940 115768 115311 114932 114897 115311 115350 114932 115311 115311 115768 115350
          115768 115784 115350 116161 116315 116631 116631 116501 116161 116501 116631 116944
          116501 116061 116161 116061 116501 116248 116161 115784 115768 116061 115784 116161
          115624 115784 116061 115350 115784 115624 115350 115624 115192 116061 115808 115624
          115362 115624 115808 118288 118397 118019 118288 118019 117837 117593 117837 118019
          118019 118397 118338 118019 118338 117983 117627 117593 118019 118019 117983 117627
          117837 117593 117389 117389 117593 117201 116944 117389 117201 117201 116720 116944
          117201 117593 117627 117201 117627 117274 117274 116854 117201 117983 118338 118313
          118701 118313 118338 117627 117983 117678 118313 117981 117983 117981 117678 117983
          118222 118313 118681 118222 117981 118313 117678 117981 117747 117747 117981 118222
          117627 117678 117274 117274 117678 117324 116895 116854 117274 117747 117324 117678
          117274 117324 116895 116936 116895 117324 116501 116944 116720 116720 116248 116501
          116720 116380 116248 116854 116720 117201 116380 116720 116854 115977 116248 116380
          116248 115808 116061 116248 115977 115808 115808 115977 115589 115362 115808 115589
          116380 116021 115977 115589 115977 116021 116854 116460 116380 116854 116895 116460
          116021 116380 116460 116460 116054 116021 116497 116460 116895 116895 116936 116497
          116054 116460 116497 116054 116497 116088 115618 116021 116054 116021 115618 115589
          115618 115190 115589 115641 116054 116088 115641 115618 116054 115208 115618 115641
          114503 114897 114932 114442 114503 114932 114851 114932 115350 114442 114932 114851
          114851 114394 114442 114442 113985 114035 113985 114442 114394 113551 113985 113934
          114394 113934 113985 113934 114394 114338 115192 114851 115350 114394 114851 114763
          114851 115192 114763 115624 115362 115192 114930 115192 115362 115192 114930 114763
          114763 114338 114394 114338 113917 113934 114338 114075 113917 114446 114763 114930
          114446 114338 114763 114446 114075 114338 113996 114075 114446 113125 113551 113508
          113934 113508 113551 113083 112743 113125 113508 113083 113125 113508 113934 113917
          113917 113501 113508 113083 113508 113501 112743 113083 112689 112689 112426 112743
          112192 112426 112689 112689 113083 113089 113501 113089 113083 112192 112689 112680
          113089 112680 112689 113501 113917 113675 113675 113249 113501 113917 114075 113675
          113675 114075 113996 113675 113352 113249 113501 113249 113089 112821 113089 113249
          112821 112680 113089 112821 112484 112680 113249 113038 112821 113352 113038 113249
          112821 113038 112729 112821 112729 112453 114930 115362 115092 115589 115092 115362
          115092 114719 114930 115589 115190 115092 114772 114719 115092 115190 114772 115092
          114930 114719 114446 114446 114719 114379 114446 114379 113996 114379 114719 114772
          114323 114379 114772 114379 114068 113996 114323 114068 114379 115618 115208 115190
          115208 114787 115190 115190 114787 114772 114764 114787 115208 114764 114431 114787
          114772 114787 114323 114787 114431 114323 113821 114068 114323 114323 114078 113821
          114323 114431 114078 114078 114431 114243 113996 113624 113675 113725 113624 113996
          113675 113624 113352 113352 113624 113370 113996 114068 113725 113370 113624 113725
          113387 113370 113725 113041 113038 113352 113041 113352 113370 112729 113038 113041
          112692 112729 113041 113017 113041 113370 113017 113370 113387 113041 113017 112692
          112692 113017 112671 113725 114068 113821 113387 113725 113821 113374 113387 113821
          113821 114078 113753 113821 113753 113374 113006 113387 113374 113006 113017 113387
          112671 113017 113006 113374 112964 113006 112627 113006 112964 112627 112671 113006
          108804 108331 107813 108804 109211 108331 107813 107282 106528 107813 108331 107282
          108331 109211 109026 108028 108331 109026 108331 108028 107282 108028 107172 107282
          106528 107282 105921 104854 106528 105921 107282 107172 105921 109026 109309 108691
          109026 108691 108028 108691 109309 109355 108691 107849 108028 107849 107172 108028
          108540 108691 109355 109355 109273 108540 108691 108540 107849 107603 107849 108540
          108540 108524 107603 105921 107172 106744 106744 107172 107849 106744 105177 105921
          107849 107603 106744 106400 106744 107603 106744 106400 105177 103881 104854 105921
          104854 103881 102701 103881 101901 102701 105921 105177 103881 102969 101901 103881
          102701 101901 100000 100000 101901 100000 103881 105177 102969 106400 104955 105177
          105177 104955 102969 102969 104955 104312 100000 101901 102969 100000 100000 102969
          109355 109886 109273 109886 109880 109273 109273 109880 109330 109273 109330 108524
          108540 109273 108524 109330 109880 110105 109509 109330 110105 108637 108524 109330
          109330 109509 108637 107540 107603 108524 107603 107540 106400 108524 108637 107540
          106307 106400 107540 107687 107540 108637 108637 108841 107687 107540 107687 106307
          106307 107687 106625 110105 110644 110266 110105 110266 109509 108841 108637 109509
          109812 109509 110266 109509 109812 108841 110266 110774 110767 110767 110399 110266
          110266 110399 109812 110774 110399 110767 109812 110399 110379 109812 110379 109903
          108841 109277 108148 108148 107687 108841 107687 108148 106625 109277 108841 109812
          109812 109903 109277 108670 108148 109277 109277 109448 108670 104955 106400 106307
          104312 104955 106307 104312 106307 106625 104312 106625 104700 102969 104312 100000
          100000 104312 104700 106625 108148 108670 104700 106625 108670 108670 108082 104700
          104700 100000 100000 100000 104700 108082 111153 111159 110774 110399 110774 110379
          110379 110774 110846 110774 111159 110846 109903 110379 110446 110379 110846 110446
          110446 109980 109903 111308 110846 111159 110846 111308 110938 111308 111604 111622
          111308 111622 111347 111347 110938 111308 110446 110846 110938 110446 110938 110558
          109980 110446 110558 110938 111042 110558 109903 109448 109277 109448 109903 109980
          109383 109448 109980 108670 109448 109383 109383 108772 108670 109383 109980 110132
          110558 110132 109980 110132 109565 109383 109565 108772 109383 111700 111347 111622
          110938 111347 111042 111440 111042 111347 111622 111936 111700 112024 111700 111936
          111347 111700 111440 111700 111788 111440 110558 111042 110723 111042 111440 111183
          111042 111183 110723 110723 111183 110954 111700 112024 111788 111788 112024 112110
          111440 111788 111566 111788 112110 111897 112192 112110 112426 112192 111897 112110
          111566 111788 111897 111440 111566 111183 111183 111566 111382 111183 111382 110954
          111566 111897 111766 111766 111382 111566 111382 111562 111253 110132 110558 110723
          110723 110364 110132 110132 110364 109565 110723 110954 110364 109565 110364 110022
          110022 108871 109565 110954 110744 110364 110954 111382 111253 111253 110744 110954
          111253 111048 110744 110364 110744 110022 110744 110718 110022 110744 111048 110718
          110022 110718 110402 111070 110402 110718 107693 108082 108670 108670 108772 107693
          108772 109565 108871 107693 108772 108871 108082 107693 105227 100000 108082 100000
          105227 100000 108082 108871 107846 107693 110022 109499 108871 109499 107846 108871
          107693 107846 105227 107846 106956 105227 110022 110402 109499 109499 109008 107846
          109499 110402 110932 110932 109008 109499 110932 110830 109008 109008 106956 107846
          109008 110830 107223 107223 106956 109008 106956 107223 104878 100000 105227 100000
          105227 106956 104878 105227 104878 100000 112192 112018 111897 111897 112018 111766
          112680 112274 112192 112274 112018 112192 112051 112018 112274 111766 112018 112051
          111766 111562 111382 111832 111562 111766 111622 111562 111832 111766 112051 111832
          111832 112051 111817 111622 111832 111491 112680 112484 112274 112274 112484 112190
          112190 112484 112453 112051 112274 112190 112453 112484 112821 112103 112190 112453
          112190 112103 111829 112190 111817 112051 112190 111829 111817 111817 111491 111832
          111477 111491 111817 111817 111829 111477 111491 111477 111025 111583 111477 111829
          111253 111562 111622 111253 111622 111422 111422 111048 111253 111491 111135 111622
          111422 111622 111135 111135 110790 111422 110718 111048 111236 111236 111048 111422
          110718 111236 111070 111236 111422 110790 110790 110422 111236 110422 111070 111236
          110422 110011 111070 111135 111491 111025 110504 110790 111135 110504 111135 111025
          111049 111025 111477 111025 110375 110504 110790 110067 110422 110504 110067 110790
          110422 110067 109136 109617 110067 110504 109617 110504 110375 109136 110067 109617
          109136 109617 108650 112350 112453 112729 112729 112692 112350 112350 112103 112453
          112350 112019 112103 112350 112692 112370 112692 112671 112370 112139 112019 112350
          112370 112139 112350 111829 112103 112019 112019 111583 111829 111477 111583 111049
          111583 112019 111937 112019 112139 111937 111049 111583 111283 111937 111283 111583
          112336 112370 112671 112109 112139 112370 112109 111937 112139 112336 112109 112370
          112671 112627 112336 112274 112336 112627 112012 112109 112336 112336 112274 112012
          111283 111937 111861 111937 112109 111861 111861 110986 111283 112012 111861 112109
          112012 111793 111861 110986 111861 111793 111793 110875 110986 110375 111025 111049
          110375 111049 110449 111049 111283 110449 109457 110375 110449 109617 110375 109457
          109457 108650 109617 108650 109457 108276 110449 111283 110986 110449 110986 109756
          109457 110449 109756 109756 110986 110875 108276 109457 109756 109756 108649 108276
          106505 108276 108649 110402 111070 110932 110011 110932 111070 109390 110830 110932
          109390 110932 110011 107709 109390 110011 106689 110830 109390 104878 107223 106689
          106689 107223 110830 106689 109390 107709 109136 110011 110422 107709 110011 109136
          106875 107709 109136 104275 106689 107709 104275 107709 106875 100000 104878 104275
          104878 106689 104275 100000 104275 100000 109136 108650 106875 106875 108650 108276
          104275 106875 103511 106875 108276 106505 103511 106875 106505 103511 100000 104275
          100000 103511 100000 124451 124636 125000 124451 125000 125000 124451 124015 124216
          124451 125000 124386 124386 123935 124451 123792 124015 123589 123935 124015 124451
          123589 124015 123935 123359 123589 123935 125000 124386 125000 124155 124386 125000
          123722 123935 124386 123722 123359 123935 124155 123722 124386 123441 123077 123722
          123311 123589 123055 123359 123055 123589 122784 123055 122491 122491 123055 122770
          123055 123359 122770 122491 122167 121825 122167 122491 122770 122167 121547 121825
          123077 122770 123359 123359 123722 123077 122432 122770 123077 122432 123077 122791
          122432 122167 122770 121797 121547 122167 121797 122167 122432 122066 121797 122432
          125000 125000 124155 124170 124155 125000 124155 123441 123722 123457 123441 124155
          125000 124170 125000 124170 123457 124155 123306 123457 124170 123077 123441 122791
          122791 123441 123457 122791 122066 122432 122791 122267 122066 122066 122267 121716
          123457 122707 122791 123306 122707 123457 122707 122267 122791 122055 122267 122707
          121716 122267 122055 122403 122055 122707 121226 121407 121825 121547 121226 121825
          120709 120993 121226 120709 121226 120955 120955 121226 121547 120197 120496 120709
          120709 120420 120197 120420 119955 120197 120420 120709 120955 120955 120655 120420
          121547 121797 121210 121210 120955 121547 121452 121210 121797 122066 121452 121797
          121452 120882 121210 120655 120955 121210 120420 120655 120114 120655 120441 120114
          120882 120655 121210 120882 120441 120655 120114 120441 120057 120197 119955 119644
          119955 119457 119644 119644 119457 119122 120114 119955 120420 119502 119457 119955
          118661 118681 119122 119122 119457 119088 119122 119088 118661 119502 119088 119457
          118641 118661 119088 119955 120114 119502 120114 119789 119502 120057 119789 120114
          119502 119789 119483 119483 119789 120057 119060 119088 119502 119088 119060 118641
          119060 118621 118641 119483 119060 119502 119483 118979 119060 118979 118621 119060
          121452 122066 121716 121091 120882 121452 121091 121452 121716 120426 120882 121091
          120426 120441 120882 120426 120057 120441 120426 121091 120686 121356 121716 122055
          121091 121716 121356 120686 121091 121356 121356 122055 121643 120942 121356 121643
          120426 120686 120043 121356 120942 120686 120286 120043 120686 120286 120686 120942
          119777 120057 120426 120057 119777 119483 119777 119257 119483 120043 119777 120426
          119444 119257 119777 119257 118979 119483 118979 118602 118621 119257 118876 118979
          118979 118876 118602 119444 118959 119257 118959 118876 119257 118602 118876 118582