<?xml version="1.0"?>
<VTKFile type="PolyData" version="0.1" byte_order="LittleEndian">
  <PolyData>
    <Piece NumberOfLines="137" NumberOfPoints="90">
      <PointData Scalars="S_liq">
        <DataArray type="Float32" Name="S_liq" NumberOfComponents="1" format="ascii">
          0.119175 0.04579 0.0431048 0.11539 0.164457 0.0497824 0.0865752 0.991652 0.105574 0.0755241 0.0449167 0.11972
          0.22466 1 1 1 1 1 1 1 1 1 0.992568 1
          1 1 1 1 0.993251 0.0516364 0.992398 0.225126 0.954034 0.994906 0.189891 0.297084
          1 1 1 0.0633621 1 1.01073 0.339421 1 1 1 0.657686 0.993898
          1 1 0.987512 1 1 0.104808 1 1 1 0.0320736 1.0139 1
          1 1 1 1 1 1 1 1 1 1 1 0.516816
          1 1 1 1 0.994303 1 1 0.109267 0.874857 1 1 1
          1 1 1 1 1 1
        </DataArray>
        <DataArray type="Float32" Name="p_liq" NumberOfComponents="1" format="ascii">
          102598 102614 101672 101933 103340 102045 102681 102685 102363 102554 101703 102685
          102374 104254 104254 104254 102457 102138 102138 104254 104254 102138 102295 102241
          102161 102719 102719 102150 103354 101619 102666 102726 104254 103591 102343 103663
          102881 102528 102666 100708 102059 102190 102719 102094 101294 102205 103361 103226
          103319 103386 103202 104412 102815 100376 102931 102897 102384 98142.2 102555 102554
          102745 102074 103072 100523 101950 102178 101448 102512 101774 101126 100632 103730
          103156 103324 103225 102727 103319 104412 104412 102514 100895 102815 102512 100000
          100000 101348 101126 101126 100000 101448
        </DataArray>
        <DataArray type="Float32" Name="rho_liq" NumberOfComponents="1" format="ascii">
          1000 1000 1000 1000 1000 1000 1000 1000 1000 1000 1000 1000
          1000 1000 1000 1000 1000 1000 1000 1000 1000 1000 1000 1000
          1000 1000 1000 1000 1000 1000 1000 1000 1000 1000 1000 1000
          1000 1000 1000 1000 1000 1000 1000 1000 1000 1000 1000 1000
          1000 1000 1000 1000 1000 1000 1000 1000 1000 1000 1000 1000
          1000 1000 1000 1000 1000 1000 1000 1000 1000 1000 1000 1000
          1000 1000 1000 1000 1000 1000 1000 1000 1000 1000 1000 1000
          1000 1000 1000 1000 1000 1000
        </DataArray>
        <DataArray type="Float32" Name="mob_liq" NumberOfComponents="1" format="ascii">
          1000 1000 1000 1000 1000 1000 1000 1000 1000 1000 1000 1000
          1000 1000 1000 1000 1000 1000 1000 1000 1000 1000 1000 1000
          1000 1000 1000 1000 1000 1000 1000 1000 1000 1000 1000 1000
          1000 1000 1000 1000 1000 1000 1000 1000 1000 1000 1000 1000
          1000 1000 1000 1000 1000 1000 1000 1000 1000 1000 1000 1000
          1000 1000 1000 1000 1000 1000 1000 1000 1000 1000 1000 1000
          1000 1000 1000 1000 1000 1000 1000 1000 1000 1000 1000 1000
          1000 1000 1000 1000 1000 1000
        </DataArray>
        <DataArray type="Float32" Name="S_gas" NumberOfComponents="1" format="ascii">
          0.880825 0.95421 0.956895 0.88461 0.835543 0.950218 0.913425 0.00834848 0.894426 0.924476 0.955083 0.88028
          0.77534 0 0 0 0 0 0 0 0 0 0.00743245 0
          0 0 0 0 0.0067492 0.948364 0.00760195 0.774873 0.045966 0.00509411 0.810109 0.702916
          0 0 0 0.936638 0 -0.0107259 0.660579 0 0 0 0.342314 0.00610228
          0 0 0.0124877 -2.5755e-17 0 0.895192 0 0 0 0.967926 -0.0138979 0
          0 0 0 0 0 0 0 0 0 0 0 0.483184
          0 0 0 0 0.00569693 0 0 0.890733 0.125143 0 0 0
          0 0 0 0 0 0
        </DataArray>
        <DataArray type="Float32" Name="p_gas" NumberOfComponents="1" format="ascii">
          105000 105000 104685 105000 104849 105000 105000 105000 104019 105000 104704 105000
          104685 104254 104254 104254 102457 102138 102138 104254 104254 102138 103703 102241
          102161 102719 102719 102150 104701 104701 104685 104357 104689 104702 104285 104678
          102881 102528 102666 103703 102059 100992 104699 102094 101294 102205 104701 104357
          103319 103386 104356 104412 102815 102735 102931 102897 102384 100992 100992 102554
          102745 102074 103072 100523 101950 102178 101448 102512 101774 101126 100632 104393
          103156 103324 103225 102727 104412 104412 104412 104412 101739 102815 102512 100000
          100000 101348 101126 101126 100000 101448
        </DataArray>
        <DataArray type="Float32" Name="rho_gas" NumberOfComponents="1" format="ascii">
          1.29162 1.29163 1.28775 1.29163 1.28976 1.29163 1.29163 1.29163 1.27955 1.29162 1.28798 1.29163
          1.28775 1.28244 1.28244 1.28244 1.26035 1.25642 1.25642 1.28244 1.28244 1.25642 1.27567 1.25769
          1.25671 1.26357 1.26357 1.25657 1.28794 1.28794 1.28775 1.28371 1.2878 1.28796 1.28283 1.28767
          1.26557 1.26121 1.26292 1.27567 1.25545 1.24232 1.28792 1.25588 1.24603 1.25724 1.28794 1.28371
          1.27095 1.27178 1.28371 1.28439 1.26474 1.26377 1.26617 1.26576 1.25944 1.24232 1.24232 1.26154
          1.26388 1.25564 1.26791 1.23655 1.25411 1.25691 1.24794 1.26102 1.25194 1.24397 1.23789 1.28415
          1.26894 1.271 1.26979 1.26366 1.28439 1.28439 1.28439 1.28439 1.25152 1.26474 1.26102 1.23012
          1.23012 1.2467 1.24397 1.24397 1.23012 1.24794
        </DataArray>
        <DataArray type="Float32" Name="mob_gas" NumberOfComponents="1" format="ascii">
          56557.2 56557.2 56557.4 56557.2 56557.3 56557.2 56557.2 56557.2 56557.8 56557.2 56557.4 56557.2
          56557.4 56557.6 56557.6 56557.6 56558.7 56558.9 56558.9 56557.6 56557.6 56558.9 56558 56558.8
          56558.9 56558.5 56558.5 56558.9 56557.4 56557.4 56557.4 56557.6 56557.4 56557.4 56557.6 56557.4
          56558.4 56558.6 56558.6 56558 56558.9 56559.5 56557.4 56558.9 56559.4 56558.8 56557.4 56557.6
          56558.2 56558.1 56557.6 56557.5 56558.5 56558.5 56558.4 56558.4 56558.7 56559.5 56559.5 56558.6
          56558.5 56558.9 56558.3 56559.8 56559 56558.8 56559.3 56558.6 56559.1 56559.5 56559.7 56557.6
          56558.3 56558.2 56558.2 56558.5 56557.5 56557.5 56557.5 56557.5 56559.1 56558.5 56558.6 56560.1
          56560.1 56559.3 56559.5 56559.5 56560.1 56559.3
        </DataArray>
        <DataArray type="Float32" Name="pc" NumberOfComponents="1" format="ascii">
          2401.48 2385.81 3012.77 3066.63 1508.39 2954.97 2319.17 2315.18 1655.97 2445.66 3000.99 2315.18
          2310.33 -0 -0 -0 0 -0 -0 -0 -0 -0 1408.41 0
          -0 -0 -0 -0 1346.47 3081.69 2018.46 1631.09 435.466 1110.88 1942.27 1015.61
          0 0 -0 2994.56 0 -1197.74 1980.15 -0 -0 -0 1339.69 1131.43
          0 0 1154.44 0 -0 2359.32 -0 0 0 2849.96 -1563.01 -0
          -0 -0 -0 -0 -0 -0 -0 -0 -0 -0 -0 662.46
          -0 -0 -0 -0 1093.24 -0 -0 1898.3 844.287 -0 -0 0
          -0 -0 -0 -0 -0 -0
        </DataArray>
        <DataArray type="Float32" Name="porosity" NumberOfComponents="1" format="ascii">
          1 1 1 1 1 1 1 1 1 1 1 1
          1 1 1 1 1 1 1 1 1 1 1 1
          1 1 1 1 1 1 1 1 1 1 1 1
          1 1 1 1 1 1 1 1 1 1 1 1
          1 1 1 1 1 1 1 1 1 1 1 1
          1 1 1 1 1 1 1 1 1 1 1 1
          1 1 1 1 1 1 1 1 1 1 1 1
          1 1 1 1 1 1
        </DataArray>
        <DataArray type="Float32" Name="poreInscribedRadius" NumberOfComponents="1" format="ascii">
          0.00010842 0.0002263 0.00018872 8.6711e-05 0.00014246 0.00017024 0.00014006 5.8137e-05 0.00017043 0.00014712 0.00018289 0.00011213
          8.001e-05 0.00026652 0.00010984 0.00018149 0.0001191 0.00010862 6.7563e-05 0.00013353 8.8091e-05 0.00011873 8.6177e-05 0.00014165
          9.7691e-05 0.00014071 8.5166e-05 0.00010965 8.1041e-05 0.00015832 6.1496e-05 0.00011323 0.00033347 6.7184e-05 0.00010274 0.00016438
          0.00011759 8.0701e-05 0.00015113 0.00013784 9.8161e-05 0.00013 8.1223e-05 0.00014997 0.00013153 0.00020701 0.00010946 8.5023e-05
          7.8721e-05 0.00017262 0.00012575 0.00010082 0.00015856 0.00012022 0.00019603 9.1747e-05 0.0001146 0.00025862 0.00012908 0.00025963
          0.00010958 6.7231e-05 0.00012907 0.00015315 9.4275e-05 0.00019972 7.1623e-05 0.00014025 0.00011092 0.00015744 5.0362e-05 0.00022549
          0.00010874 9.8868e-05 0.00010793 0.00015434 8.0185e-05 6.8354e-05 0.00014551 0.00014525 0.00017218 0.00012177 9.0671e-05 0.00015715
          0.00012027 0.00015784 0.00022979 0.00010367 5.3866e-05 0.00024136
        </DataArray>
        <DataArray type="Float32" Name="coordinationNumber" NumberOfComponents="1" format="ascii">
          6 1 4 1 3 1 5 2 6 3 4 1
          2 4 2 3 2 6 1 1 1 1 4 2
          3 2 1 2 3 7 2 4 3 4 6 2
          3 4 3 5 5 3 4 6 4 5 4 4
          4 4 5 7 3 3 2 3 2 5 2 4
          3 2 2 2 3 4 5 4 4 6 2 5
          4 3 2 2 2 1 1 4 2 1 1 3
          1 2 1 1 1 1
        </DataArray>
        <DataArray type="Float32" Name="poreLabel" NumberOfComponents="1" format="ascii">
          -1 2 -1 2 -1 2 2 -1 -1 -1 -1 2
          -1 -1 -1 -1 -1 -1 -1 -1 -1 -1 -1 -1
          -1 -1 -1 -1 -1 -1 -1 -1 -1 -1 -1 -1
          -1 -1 -1 -1 -1 -1 -1 -1 -1 -1 -1 -1
          -1 -1 -1 -1 -1 -1 -1 -1 -1 -1 -1 -1
          -1 -1 -1 -1 -1 -1 -1 -1 -1 -1 -1 -1
          -1 -1 -1 -1 -1 -1 -1 -1 -1 -1 -1 3
          3 -1 -1 -1 3 -1
        </DataArray>
      </PointData>
      <CellData Scalars="process rank" Vectors="velocity_liq (m/s)">
        <DataArray type="Float32" Name="velocity_liq (m/s)" NumberOfComponents="3" format="ascii">
          0.0213928 0.0213928 -0.0213928 -0 0 0 -0 0 0 -0 0 0
          -0 0 0 -0 -0 -0 -0 0 -0 -0 0 0
          8.81493e-13 -8.81493e-13 -8.81493e-13 -0 0 0 0.0104435 0.0104435 -0.0104435 -0 0 0
          -0 0 -0 0.221798 -0 -0 -0.127726 0.127726 0.127726 -0 -0 0
          -0 0 -0 -0 0 -0 -0 0 0 -0.0897512 0.0897512 0
          0.0733032 0.0733032 -0.0733032 -0 0 -0 -0.0183145 0 0 0.0129918 -0.0129918 -0
          -0.0325179 0 0 -0 -0 0 -0 0 0 -0 0 0
          -0 0 0 1.10437 1.10437 -0 0 -0 -0 -0 -0 0
          -0 -0 -0 -0 0 -0 -0 -0 0.104965 0.284137 0.284137 -0
          -0.47435 0 0.47435 -0 -0 0.124744 -0.65036 0 0 -0 0.36858 -0
          -0 0.277784 -0.277784 0 0 -0 -0 0 0 -0 0.50456 -0.50456
          0.173737 0.173737 -0 -0 0 0 -0 0 0 -0.0839275 0 0
          0 0 -0.374594 1.05392 1.05392 1.05392 -0.489124 0 0.489124 0 -0.109845 0
          -0.172837 0 -0.172837 0 -0 0 -0.0225254 0 -0.0225254 0 0 -0
          -0 0.803792 -0 -0.250171 -0.250171 0.250171 -0.265929 0 0.265929 -0 -0 -0
          0 -0 -0 -0 0.000111901 0.000111901 0 -0 0 -0 0 -0
          -0 0 -0 0 -0 -0 0.0620407 0.0620407 -0.0620407 1.56011 -0 1.56011
          -0 0 -0 0 -0 0 0 -0.63073 0 1.13877 1.13877 -0
          -0.486679 -0.486679 0.486679 -0 0.696439 0.696439 -0.139554 0.139554 0 -0 0 0
          -0 0.458292 -0.458292 -0 0 -0 0.00183167 -0 -0.00183167 -0.370258 0.370258 0.370258
          -0.716947 0 0 -0 -0 0.839932 -0.078239 0.078239 0 -0 -0 0.172349
          -0 0.432496 0.432496 -0.901801 0.901801 0.901801 1.74403 -0 -1.74403 -0 0.160498 -0.160498
          -0 1.40668 -0 0.811002 0.811002 -0 -0.56367 0.56367 0 -1.02233 1.02233 1.02233
          -0 0 0 0 0 -0.591676 0.478623 -0.478623 0.478623 0.151152 -0.151152 0.151152
          2.19023 -0 -2.19023 -0 -0 0.120401 -0 0.317951 -0 -0.467142 -0.467142 -0.467142
          -0 0.070919 -0.070919 -0 -0 0.789854 0.111048 0.111048 -0 -0.551911 -0.551911 0.551911
          0 -0.0728098 0 -0.0937422 -0.0937422 0.0937422 0.586852 0.586852 0.586852 -3.51067e-05 -3.51067e-05 -3.51067e-05
          -0 0 0 -0 -0 0 -0 0 0 -0 0 -0
          -0 -0 -0 0 -0.144033 -0.144033 0.93582 0.93582 -0.93582 0 -0 0
          -0 0 0 -0 -0 0 -1.11118 1.11118 0 0.0971132 -0 -0
          -1.0705 1.0705 1.0705 -0 0 0 -0.58713 0.58713 -0.58713 -0 -0 0
          -0 0 0 1.42153 1.42153 -1.42153 -0 -0 1.01535 -1.23987 1.23987 0
          -0 1.09414 1.09414 -0 -0 1.04187 1.77747 -0 -0 -0 0 0
          -0 0 0 0 -0.356074 0.356074 2.12286 -0 2.12286 -0 0 0
          1.30269 -1.30269 1.30269
        </DataArray>
        <DataArray type="Float32" Name="velocity_gas (m/s)" NumberOfComponents="3" format="ascii">
          -0 -0 0 60.3908 -0 -60.3908 28.8045 -28.8045 -0 0.0142669 -0 -0
          -1.37675e-12 1.37675e-12 0 50.9849 50.9849 50.9849 0.0145649 -0 0.0145649 28.4894 -0 -28.4894
          -0 0 0 -0.00985507 0.00985507 0.00985507 -0 -0 0 -0 0 0
          -0 0 -0 -0 0 0 -0 0 0 -0 -0 0
          -0 0 -0 -0 0 -0 -0 0 0 -0 0 0
          -0 -0 0 -0 0 -0 -0 0 0 -0 0 0
          -0 0 0 28.402 28.402 -0 0.000159783 -0 -0 62.0511 -0 -62.0511
          -1.54658 0 0 -0 -0 0 0 -0 -0 0.094736 0.094736 -0.094736
          21.9222 21.9222 21.9222 1.60493 -0 1.60493 0 0 -0 -0 -0 0
          -0 0 0 0 0 -0 -0 0 0 0 -0 0
          0 -0 0 0 0 -0 61.1447 -61.1447 -0 0 -0 0
          -0 -0 0 -0.000296629 0.000296629 0.000296629 -0 0 0 -0 0 0
          0 0 -0 -0 -0 -0 -0 0 0 0 -0 0
          -0 0 -0 -0 3.68346e-05 -0 -0 0 -0 0 0 -0.000114445
          0 -0 0 -0 -0 0 -0 0 0 0.0381957 0.0381957 0.0381957
          -0 61.9881 61.9881 0 -0 -0 0 -0.166665 0 0.00826388 -0.00826388 0.00826388
          27.5728 -0 27.5728 -0 0.0985916 0.0985916 -0 -0 0 -0 0 -0
          181.908 -0 181.908 0 -54.1381 54.1381 0 -0 0 -0 -0 0
          -0 -0 0 0 -0 -0 -0 0 0 -19.7399 19.7399 19.7399
          0 -0 0 -0.00183209 0 -0.00183209 -0 0 0 -0 0 0
          -0 0 0 0 0 -0 -0 0 0 0 0 -0
          0 -0 -0 -0 0 0 -0 0 0 0 -0 0
          0 -0 0 -0 -0 0 -0 0 0 -0 0 0
          -0.00199266 0.00199266 0 0 0 -0 -0 0 -0 -0 0 -0
          -0 0 0 0 0 -0 0 -0 0 -0 -0 -0
          0 -0 0 0 0 -0 -0 -0 0 -0 -0 0
          0 -0 0 -0 -0 0 -0 -0 -0 -0 -0 -0
          5.25083 -0 -0 4.42699e-05 4.42699e-05 -0 -0 0 0 -0 0 -0
          0.0323007 0.0323007 0.0323007 0 -0 -0 -0 -0 0 -0 157.58 -0
          64.116 -0 -64.116 -0 -0 0 -0 0 0 -0 0 0
          -0 0 0 -0 0 0 -0 0 -0 186.607 186.607 -0
          -56.8225 56.8225 56.8225 -0 -0 0 0 0 -0 -0 0 0
          0 -0 -0 0 0 -0 -0 0 0 -0 0 0
          -0 0 0 0 -0 0 -0 0 -0 -0 0 0
          -0 0 -0
        </DataArray>
        <DataArray type="Float32" Name="process rank" NumberOfComponents="1" format="ascii">
          0 0 0 0 0 0 0 0 0 0 0 0
          0 0 0 0 0 0 0 0 0 0 0 0
          0 0 0 0 0 0 0 0 0 0 0 0
          0 0 0 0 0 0 0 0 0 0 0 0
          0 0 0 0 0 0 0 0 0 0 0 0
          0 0 0 0 0 0 0 0 0 0 0 0
          0 0 0 0 0 0 0 0 0 0 0 0
          0 0 0 0 0 0 0 0 0 0 0 0
          0 0 0 0 0 0 0 0 0 0 0 0
          0 0 0 0 0 0 0 0 0 0 0 0
          0 0 0 0 0 0 0 0 0 0 0 0
          0 0 0 0 0
        </DataArray>
        <DataArray type="Float32" Name="throatLabel" NumberOfComponents="1" format="ascii">
          2 2 2 2 2 2 2 2 2 -1 -1 -1
          -1 -1 -1 -1 -1 -1 -1 -1 -1 -1 -1 -1
          -1 -1 -1 -1 -1 -1 -1 -1 -1 -1 -1 -1
          -1 -1 -1 -1 -1 -1 -1 -1 -1 -1 -1 -1
          -1 -1 -1 -1 -1 -1 -1 -1 -1 -1 -1 -1
          -1 -1 -1 -1 -1 -1 -1 -1 -1 -1 -1 -1
          -1 -1 -1 -1 -1 -1 -1 -1 -1 -1 -1 -1
          -1 -1 -1 -1 -1 -1 -1 -1 -1 -1 -1 -1
          -1 -1 -1 -1 -1 -1 -1 -1 -1 -1 -1 -1
          -1 -1 -1 -1 -1 -1 -1 -1 -1 -1 -1 -1
          -1 -1 -1 3 -1 3 -1 -1 -1 -1 3 -1
          -1 -1 3 -1 3
        </DataArray>
        <DataArray type="Float32" Name="throatInscribedRadius" NumberOfComponents="1" format="ascii">
          3.3304e-05 3.384e-05 3.3615e-05 3.3259e-05 3.3423e-05 3.3717e-05 3.3301e-05 3.3963e-05 3.3418e-05 3.4247e-05 3.3272e-05 3.37e-05
          3.3125e-05 3.3391e-05 3.3434e-05 3.3768e-05 3.3951e-05 3.3734e-05 3.3508e-05 3.3908e-05 3.3903e-05 3.3674e-05 3.3826e-05 3.3772e-05
          3.3303e-05 3.389e-05 3.3413e-05 3.3431e-05 3.3693e-05 3.353e-05 3.3589e-05 3.3834e-05 3.3987e-05 3.3567e-05 3.3743e-05 3.3553e-05
          3.371e-05 3.3781e-05 3.3426e-05 3.3726e-05 3.3836e-05 3.3664e-05 3.422e-05 3.3429e-05 3.3386e-05 3.305e-05 3.3941e-05 3.3926e-05
          3.3606e-05 3.3937e-05 3.3695e-05 3.3731e-05 3.3671e-05 3.3781e-05 3.3667e-05 3.4584e-05 3.3243e-05 3.3015e-05 3.3252e-05 3.3267e-05
          3.3488e-05 3.3576e-05 3.356e-05 3.3816e-05 3.3764e-05 3.3887e-05 3.4237e-05 3.4047e-05 3.3204e-05 3.2859e-05 3.3938e-05 3.3021e-05
          3.3656e-05 3.3645e-05 3.4391e-05 3.361e-05 3.3463e-05 3.3712e-05 3.3716e-05 3.3657e-05 3.3429e-05 3.3224e-05 3.374e-05 3.3184e-05
          3.3288e-05 3.4084e-05 3.3492e-05 3.3586e-05 3.3937e-05 3.3532e-05 3.3981e-05 3.3517e-05 3.3975e-05 3.3845e-05 3.3562e-05 3.3343e-05
          3.3284e-05 3.3542e-05 3.3486e-05 3.3496e-05 3.3966e-05 3.3533e-05 3.402e-05 3.3455e-05 3.3962e-05 3.3458e-05 3.3693e-05 3.3961e-05
          3.3494e-05 3.3486e-05 3.4314e-05 3.3954e-05 3.3488e-05 3.3852e-05 3.3512e-05 3.3871e-05 3.4113e-05 3.3098e-05 3.3981e-05 3.4127e-05
          3.3649e-05 3.4226e-05 3.3685e-05 3.322e-05 3.2903e-05 3.3521e-05 3.3874e-05 3.374e-05 3.3772e-05 3.344e-05 3.3682e-05 3.3086e-05
          3.3378e-05 3.3359e-05 3.3808e-05 3.3628e-05 3.3247e-05
        </DataArray>
        <DataArray type="Float32" Name="throatLength" NumberOfComponents="1" format="ascii">
          6.6609e-05 3.384e-05 3.3615e-05 9.9777e-05 6.6846e-05 0.00010115 9.9902e-05 6.7925e-05 0.00010025 0.00010274 9.9816e-05 3.37e-05
          9.9376e-05 6.6781e-05 0.0001003 6.7537e-05 6.7903e-05 0.0001012 3.3508e-05 6.7817e-05 0.00010171 6.7347e-05 0.00010148 0.00010132
          6.6606e-05 3.389e-05 6.6826e-05 3.3431e-05 6.7385e-05 6.706e-05 0.00010077 0.0001015 0.00010196 0.0001007 6.7487e-05 0.00010066
          6.7421e-05 3.3781e-05 3.3426e-05 0.00010118 6.7672e-05 0.00010099 3.422e-05 6.6858e-05 6.6772e-05 3.305e-05 6.7881e-05 6.7852e-05
          3.3606e-05 6.7873e-05 3.3695e-05 3.3731e-05 3.3671e-05 3.3781e-05 3.3667e-05 3.4584e-05 6.6486e-05 3.3015e-05 6.6503e-05 9.9802e-05
          6.6975e-05 6.7153e-05 6.7119e-05 3.3816e-05 6.7529e-05 0.00010166 0.00010271 3.4047e-05 3.3204e-05 6.5718e-05 6.7876e-05 6.6043e-05
          3.3656e-05 0.00010094 3.4391e-05 3.361e-05 3.3463e-05 3.3712e-05 6.7432e-05 6.7313e-05 3.3429e-05 9.9673e-05 0.00010122 9.9553e-05
          3.3288e-05 0.00010225 0.00010048 0.00010076 0.00010181 0.0001006 6.7962e-05 3.3517e-05 6.7951e-05 3.3845e-05 3.3562e-05 0.00010003
          3.3284e-05 3.3542e-05 3.3486e-05 6.6992e-05 6.7931e-05 3.3533e-05 0.00010206 6.691e-05 0.00010189 6.6916e-05 6.7385e-05 3.3961e-05
          3.3494e-05 6.6972e-05 3.4314e-05 0.00010186 3.3488e-05 0.00010156 6.7024e-05 0.00010161 0.00010234 3.3098e-05 6.7962e-05 6.8254e-05
          0.00010095 0.00010268 3.3685e-05 3.322e-05 6.5807e-05 3.3521e-05 6.7748e-05 6.748e-05 3.3772e-05 3.344e-05 0.00010104 9.9259e-05
          6.6757e-05 0.00010008 3.3808e-05 0.00010088 9.974e-05
        </DataArray>
        <DataArray type="Float32" Name="pcEntry" NumberOfComponents="1" format="ascii">
          3146.07 3096.24 3116.97 3150.33 3134.87 3107.54 3146.36 3085.03 3135.34 3059.44 3149.1 3109.1
          3163.07 3137.88 3133.84 3102.84 3086.12 3105.97 3126.92 3090.03 3090.49 3111.5 3097.52 3102.48
          3146.17 3091.67 3135.81 3134.12 3109.75 3124.87 3119.38 3096.79 3082.85 3121.42 3105.14 3122.73
          3108.18 3101.65 3134.59 3106.71 3096.61 3112.43 3061.86 3134.31 3138.35 3170.25 3087.03 3088.39
          3117.8 3087.39 3109.57 3106.25 3111.78 3101.65 3112.15 3029.63 3151.85 3173.61 3150.99 3149.57
          3128.79 3120.59 3122.07 3098.44 3103.21 3091.95 3060.34 3077.42 3155.55 3188.68 3087.3 3173.04
          3113.17 3114.19 3046.63 3117.43 3131.12 3108 3107.63 3113.08 3134.31 3153.65 3105.42 3157.45
          3147.58 3074.08 3128.41 3119.66 3087.39 3124.68 3083.39 3126.08 3083.94 3095.78 3121.89 3142.39
          3147.96 3123.75 3128.97 3128.04 3084.76 3124.59 3079.86 3131.87 3085.12 3131.59 3109.75 3085.21
          3128.23 3128.97 3053.47 3085.85 3128.79 3095.14 3126.55 3093.41 3071.46 3165.65 3083.39 3070.2
          3113.82 3061.32 3110.49 3154.03 3184.42 3125.71 3093.13 3105.42 3102.48 3133.28 3110.77 3166.8
          3139.1 3140.89 3099.17 3115.76 3151.47
        </DataArray>
        <DataArray type="Float32" Name="transmissibilityW" NumberOfComponents="1" format="ascii">
          1.03853e-14 0 0 0 0 0 0 0 6.99529e-15 0 6.90373e-15 2.15208e-14
          6.81256e-15 1.04673e-14 7.0052e-15 1.08255e-14 1.10024e-14 7.19547e-15 2.1155e-14 1.09607e-14 7.30394e-15 1.07357e-14 7.25421e-15 7.21938e-15
          1.03846e-14 0 0 0 0 1.05984e-14 7.10273e-15 0 0 0 1.08015e-14 7.08005e-15
          1.07698e-14 2.16763e-14 2.10001e-14 7.19006e-15 1.08912e-14 7.15077e-15 0 1.05029e-14 1.04624e-14 0 1.09931e-14 1.09783e-14
          2.13412e-14 1.09892e-14 2.15112e-14 2.15802e-14 2.14653e-14 0 2.14576e-14 0 1.03285e-14 2.02349e-14 1.03371e-14 0
          0 1.06419e-14 0 0 0 0 7.52208e-15 2.21924e-14 0 0 1.099e-14 1.01228e-14
          2.14366e-14 7.13817e-15 2.28719e-14 0 2.10699e-14 0 1.07757e-14 1.07194e-14 2.10058e-14 6.87382e-15 7.19916e-15 6.84902e-15
          2.07411e-14 7.42176e-15 7.0413e-15 7.10089e-15 7.32608e-15 7.06656e-15 1.10318e-14 2.11721e-14 0 2.17998e-14 2.12575e-14 6.94795e-15
          2.07336e-14 2.12195e-14 2.11134e-14 1.05662e-14 1.10174e-14 2.12024e-14 7.37989e-15 1.05274e-14 7.34192e-15 1.05302e-14 1.07538e-14 2.20247e-14
          0 0 0 0 0 7.27081e-15 1.05813e-14 0 0 2.03879e-14 1.10318e-14 1.11746e-14
          7.14086e-15 7.51462e-15 2.1492e-14 0 0 2.11797e-14 1.09279e-14 1.07987e-14 2.1659e-14 2.10265e-14 7.16253e-15 6.78852e-15
          1.04547e-14 6.95781e-15 2.17283e-14 7.12799e-15 6.88824e-15
        </DataArray>
        <DataArray type="Float32" Name="transmissibilityN" NumberOfComponents="1" format="ascii">
          0 2.19432e-14 2.15084e-14 6.94407e-15 1.0571e-14 7.23499e-15 6.97048e-15 1.10918e-14 0 7.58156e-15 0 0
          0 0 0 0 0 0 0 0 0 0 0 0
          0 2.20406e-14 1.05615e-14 2.11571e-14 1.08294e-14 0 0 7.31064e-15 7.41019e-15 7.13886e-15 0 0
          0 0 0 0 0 0 2.26907e-14 0 0 2.0442e-14 0 0
          0 0 0 0 0 2.18286e-14 0 2.34225e-14 0 0 0 6.94902e-15
          1.06329e-14 0 1.07016e-14 2.18965e-14 1.08977e-14 7.34498e-15 0 0 2.0729e-14 1.00448e-14 0 0
          0 0 0 2.14988e-14 0 2.16951e-14 0 0 0 0 0 0
          0 0 0 0 0 0 0 0 1.11032e-14 0 0 0
          0 0 0 0 0 0 0 0 0 0 0 0
          2.12769e-14 1.06308e-14 2.28782e-14 7.3887e-15 2.12655e-14 0 0 7.33472e-15 7.49277e-15 0 0 0
          0 0 0 2.0759e-14 1.0085e-14 0 0 0 0 0 0 0
          0 0 0 0 0
        </DataArray>
        <DataArray type="Float32" Name="volumeFluxW" NumberOfComponents="1" format="ascii">
          1.64392e-10 0 0 0 0 0 0 0 6.82025e-21 0 8.00984e-11 0
          0 9.89181e-10 9.89181e-10 0 0 0 0 5.8374e-10 5.8374e-10 0 8.38219e-11 8.38219e-11
          1.44261e-10 0 0 0 0 7.02356e-09 0 0 0 0 4.78046e-10 1.80953e-09
          3.04924e-09 5.6941e-10 2.90658e-09 1.67695e-09 1.79904e-09 0 0 3.18959e-09 1.09546e-09 0 0 3.86394e-10
          1.69221e-09 8.4096e-09 3.14141e-09 4.99919e-10 1.10847e-09 0 1.4443e-10 0 3.55307e-09 1.88921e-09 1.66332e-09 0
          0 7.13619e-13 0 0 0 0 5.03835e-10 1.02303e-08 0 0 2.90587e-09 7.02408e-09
          3.81934e-09 4.45963e-09 9.33699e-10 0 2.903e-09 0 1.17786e-11 2.90587e-09 3.20475e-09 3.70858e-09 5.03835e-10 7.59146e-10
          2.71102e-09 7.25826e-09 1.10665e-08 1.02415e-09 6.48039e-09 5.15841e-09 3.6819e-09 7.9569e-09 0 2.71102e-09 3.73517e-09 1.16424e-09
          1.37257e-08 5.41835e-10 1.42609e-09 3.63125e-09 4.62835e-10 3.55265e-09 7.27036e-10 4.27968e-09 3.35921e-10 7.27036e-10 4.6156e-09 2.80525e-13
          0 0 0 0 0 9.33699e-10 7.28138e-09 0 0 0 7.25826e-09 4.52412e-10
          8.39753e-09 0 4.6156e-09 0 0 1.10665e-08 4.66023e-09 7.98437e-09 7.05931e-09 4.66023e-09 8.06598e-09 0
          0 2.24151e-09 1.37257e-08 0 9.9762e-09
        </DataArray>
        <DataArray type="Float32" Name="volumeFluxN" NumberOfComponents="1" format="ascii">
          0 3.91207e-07 1.8412e-07 6.3126e-11 8.70006e-21 4.01569e-07 9.13684e-11 1.85896e-07 0 8.00803e-11 0 0
          0 0 0 0 0 0 0 0 0 0 0 0
          0 1.8453e-07 7.13546e-13 3.92304e-07 7.02282e-09 0 0 7.5135e-10 1.7544e-07 1.02296e-08 0 0
          0 0 0 0 0 0 4.05037e-07 0 0 2.2448e-12 0 0
          0 0 0 0 0 1.68136e-13 0 5.47529e-13 0 0 0 2.92861e-10
          3.93243e-07 0 7.50843e-10 6.5471e-11 1.77813e-07 6.40444e-10 0 0 1.13451e-06 3.30664e-07 0 0
          0 0 0 1.54491e-07 0 1.17785e-11 0 0 0 0 0 0
          0 0 0 0 0 0 0 0 1.30115e-11 0 0 0
          0 0 0 0 0 0 0 0 0 0 0 0
          2.35625e-08 2.80808e-13 0 0 2.50964e-10 0 0 7.23129e-07 4.22067e-07 0 0 0
          0 0 0 1.16494e-06 4.26198e-07 0 0 0 0 0 0 0
          0 0 0 0 0
        </DataArray>
      </CellData>
      <Points>
        <DataArray type="Float32" Name="Coordinates" NumberOfComponents="3" format="ascii">
          2 2 3 1 1 4 2 1 4 1 1 5
          2 1 1 1 2 1 1 2 3 2 1 3
          2 3 4 2 2 4 2 2 2 1 2 4
          1 2 5 2 3 2 1 3 2 2 3 3
          1 3 4 2 4 4 1 3 5 1 4 1
          1 4 2 1 4 4 2 3 5 1 4 5
          2 5 4 2 4 2 1 5 1 1 5 4
          3 1 1 3 2 1 3 1 4 3 1 3
          2 2 1 3 3 1 3 3 3 3 2 3
          3 2 2 2 2 5 3 2 5 3 2 4
          2 4 3 3 4 5 3 3 2 3 4 3
          3 5 4 3 4 2 4 1 2 3 1 2
          4 2 1 4 1 1 4 2 4 4 2 2
          4 3 1 4 2 5 3 3 5 4 4 1
          4 2 3 4 3 5 3 3 4 4 3 3
          3 4 1 3 5 3 4 3 2 4 4 2
          3 5 2 3 4 4 4 5 4 4 3 4
          4 4 3 4 4 5 4 5 3 5 2 2
          4 1 4 4 1 3 5 2 3 5 2 5
          5 3 2 5 1 1 5 1 3 5 3 3
          5 2 4 5 4 1 5 3 4 5 4 5
          5 5 1 4 4 4 5 3 5 5 4 4
          5 5 4 5 4 3
        </DataArray>
      </Points>
      <Lines>
        <DataArray type="Int32" Name="connectivity" NumberOfComponents="1" format="ascii">
          0 1 2 3 4 5 0 6 7 6 8 6
          9 6 10 6 7 11 2 12 8 12 13 14
          15 14 8 16 0 16 17 18 13 19 15 20
          17 21 22 23 24 23 25 26 24 27 17 27
          28 4 29 4 30 2 31 2 29 32 33 32
          13 32 33 10 34 10 35 10 9 0 34 0
          36 0 37 9 38 37 22 37 8 37 15 13
          39 8 40 8 41 22 39 22 42 25 43 40
          17 40 44 40 45 40 24 17 41 17 29 28
          46 28 31 47 36 47 48 47 49 47 50 31
          39 31 38 30 33 29 46 29 51 29 42 29
          52 36 50 35 53 39 34 39 54 38 55 33
          55 42 43 42 56 34 51 34 45 34 57 58
          59 58 50 54 55 60 45 60 52 60 43 45
          61 45 62 43 63 43 64 43 44 65 66 65
          67 65 59 65 57 41 61 64 68 64 69 44
          70 44 46 49 48 49 71 49 48 46 72 73
          74 73 71 73 50 72 74 72 75 72 76 48
          71 51 76 51 77 51 78 51 79 51 67 56
          79 50 57 53 80 53 81 52 71 62 79 59
          71 59 82 67 75 67 83 57 80 57 84 63
          85 68 79 68 66 68 69 85 83 69 86 69
          87 69 66 69 88 70 89 66 83 66
        </DataArray>
        <DataArray type="Int32" Name="offsets" NumberOfComponents="1" format="ascii">
          2 4 6 8 10 12 14 16 18 20 22 24
          26 28 30 32 34 36 38 40 42 44 46 48
          50 52 54 56 58 60 62 64 66 68 70 72
          74 76 78 80 82 84 86 88 90 92 94 96
          98 100 102 104 106 108 110 112 114 116 118 120
          122 124 126 128 130 132 134 136 138 140 142 144
          146 148 150 152 154 156 158 160 162 164 166 168
          170 172 174 176 178 180 182 184 186 188 190 192
          194 196 198 200 202 204 206 208 210 212 214 216
          218 220 222 224 226 228 230 232 234 236 238 240
          242 244 246 248 250 252 254 256 258 260 262 264
          266 268 270 272 274
        </DataArray>
      </Lines>
    </Piece>
  </PolyData>
</VTKFile>
