<?xml version="1.0"?>
<VTKFile type="PolyData" version="0.1" byte_order="LittleEndian">
  <PolyData>
    <Piece NumberOfLines="39" NumberOfPoints="40">
      <CellData Scalars="p">
        <DataArray type="Float32" Name="p" NumberOfComponents="1" format="ascii">
          1.5 1.5 1.5 1.5 1.5 1.5 1.5 1.5 1.5 1.5 1.5 1.5
          1.5 1.5 1.5 1.5 1.5 1.5 1.5 1.5 1.5 1.5 1.5 1.5
          1.5 1.5 1.5 1.5 1.5 1.5 1.5 1.5 1.5 1.5 1.5 1.5
          1.5 1.5 1.5
        </DataArray>
        <DataArray type="Float32" Name="process rank" NumberOfComponents="1" format="ascii">
          0 0 0 0 0 0 0 0 0 0 0 0
          0 0 0 0 0 0 0 0 0 0 0 0
          0 0 0 0 0 0 0 0 0 0 0 0
          0 0 0
        </DataArray>
      </CellData>
      <Points>
        <DataArray type="Float32" Name="Coordinates" NumberOfComponents="3" format="ascii">
          1.5 0 1.5 1.5 0.025641 1.5 1.5 0.0512821 1.5 1.5 0.0769231 1.5
          1.5 0.102564 1.5 1.5 0.128205 1.5 1.5 0.153846 1.5 1.5 0.179487 1.5
          1.5 0.205128 1.5 1.5 0.230769 1.5 1.5 0.25641 1.5 1.5 0.282051 1.5
          1.5 0.307692 1.5 1.5 0.333333 1.5 1.5 0.358974 1.5 1.5 0.384615 1.5
          1.5 0.410256 1.5 1.5 0.435897 1.5 1.5 0.461538 1.5 1.5 0.487179 1.5
          1.5 0.512821 1.5 1.5 0.538462 1.5 1.5 0.564103 1.5 1.5 0.589744 1.5
          1.5 0.615385 1.5 1.5 0.641026 1.5 1.5 0.666667 1.5 1.5 0.692308 1.5
          1.5 0.717949 1.5 1.5 0.74359 1.5 1.5 0.769231 1.5 1.5 0.794872 1.5
          1.5 0.820513 1.5 1.5 0.846154 1.5 1.5 0.871795 1.5 1.5 0.897436 1.5
          1.5 0.923077 1.5 1.5 0.948718 1.5 1.5 0.974359 1.5 1.5 1 1.5
        </DataArray>
      </Points>
      <Lines>
        <DataArray type="Int32" Name="connectivity" NumberOfComponents="1" format="ascii">
          0 1 1 2 2 3 3 4 4 5 5 6
          6 7 7 8 8 9 9 10 10 11 11 12
          12 13 13 14 14 15 15 16 16 17 17 18
          18 19 19 20 20 21 21 22 22 23 23 24
          24 25 25 26 26 27 27 28 28 29 29 30
          30 31 31 32 32 33 33 34 34 35 35 36
          36 37 37 38 38 39
        </DataArray>
        <DataArray type="Int32" Name="offsets" NumberOfComponents="1" format="ascii">
          2 4 6 8 10 12 14 16 18 20 22 24
          26 28 30 32 34 36 38 40 42 44 46 48
          50 52 54 56 58 60 62 64 66 68 70 72
          74 76 78
        </DataArray>
      </Lines>
    </Piece>
  </PolyData>
</VTKFile>
