<?xml version="1.0"?>
<VTKFile type="UnstructuredGrid" version="0.1" byte_order="LittleEndian">
  <UnstructuredGrid>
    <Piece NumberOfCells="1728" NumberOfPoints="2197">
      <CellData Scalars="S_liq">
        <DataArray type="Float32" Name="S_liq" NumberOfComponents="1" format="ascii">
          0.208849 0.208779 0.20869 0.208667 0.208758 0.208937 0.209172 0.209438 0.209707 0.209947 0.210125 0.210221
          0.20881 0.208716 0.208584 0.208542 0.208648 0.208838 0.209078 0.209356 0.209644 0.209901 0.210093 0.210195
          0.208776 0.20865 0.208443 0.208373 0.2085 0.208687 0.208914 0.209209 0.209532 0.209824 0.21004 0.210155
          0.20881 0.208698 0.208526 0.208424 0.208469 0.208569 0.20872 0.209034 0.209406 0.209743 0.209991 0.210121
          0.208908 0.208816 0.20868 0.20858 0.208549 0.20854 0.208559 0.208906 0.209327 0.209702 0.209974 0.210116
          0.209055 0.208975 0.208859 0.20878 0.208736 0.20871 0.208749 0.209014 0.209385 0.209747 0.210018 0.210161
          0.209249 0.209168 0.209051 0.20901 0.208982 0.208962 0.208991 0.209225 0.209555 0.209879 0.210127 0.210258
          0.209489 0.209413 0.209302 0.209282 0.209271 0.209271 0.209328 0.209519 0.209791 0.210065 0.210278 0.210393
          0.209757 0.209703 0.209626 0.209588 0.209566 0.209567 0.209629 0.209797 0.210028 0.21026 0.210441 0.21054
          0.210004 0.209965 0.209907 0.20986 0.209826 0.209819 0.209871 0.210026 0.210231 0.210432 0.210589 0.210674
          0.210188 0.210158 0.210109 0.21006 0.210024 0.210019 0.210072 0.210207 0.210385 0.210562 0.210701 0.210776
          0.210286 0.210259 0.210214 0.210167 0.210132 0.21013 0.210184 0.210307 0.21047 0.210633 0.210761 0.210831
          0.208437 0.208314 0.208133 0.208054 0.208173 0.208404 0.208688 0.209001 0.209316 0.209594 0.209801 0.209911
          0.208356 0.208166 0.207827 0.207692 0.207917 0.208217 0.208526 0.208869 0.209219 0.209528 0.209756 0.209877
          0.20826 0.207947 0.207074 0.206883 0.207503 0.20791 0.208211 0.208607 0.209034 0.209409 0.20968 0.209822
          0.208278 0.208043 0.207599 0.207277 0.207495 0.207653 0.207696 0.208205 0.208785 0.209267 0.2096 0.209769
          0.20837 0.208199 0.207926 0.207709 0.207658 0.20745 0.206568 0.207661 0.208547 0.209159 0.209555 0.209749
          0.20851 0.208356 0.208133 0.208029 0.207952 0.207795 0.20756 0.207986 0.208581 0.209184 0.209591 0.209792
          0.208712 0.208529 0.20817 0.208282 0.208269 0.208132 0.207777 0.208262 0.208846 0.209362 0.209722 0.209903
          0.208991 0.208802 0.208363 0.2086 0.208636 0.208584 0.208536 0.208804 0.209218 0.209616 0.209909 0.210062
          0.209333 0.209224 0.209054 0.209043 0.20901 0.208955 0.208958 0.2092 0.209541 0.209864 0.210107 0.210234
          0.209645 0.209579 0.20948 0.209408 0.209329 0.209238 0.209184 0.209469 0.209791 0.210074 0.210281 0.21039
          0.209872 0.209825 0.209749 0.209669 0.209588 0.209525 0.209534 0.209735 0.209994 0.210234 0.210413 0.210508
          0.20999 0.209951 0.209884 0.209806 0.209733 0.209692 0.209728 0.209889 0.210109 0.210322 0.210485 0.210572
          0.207781 0.207607 0.207322 0.207101 0.207213 0.207493 0.207831 0.208208 0.208592 0.208932 0.209185 0.20932
          0.207657 0.207393 0.206871 0.206324 0.206674 0.207159 0.207572 0.208003 0.208445 0.208836 0.209122 0.209273
          0.207486 0.207061 0.20591 0.203839 0.205413 0.206564 0.207061 0.207576 0.208152 0.208654 0.209012 0.209195
          0.207411 0.207021 0.206119 0.204273 0.205611 0.206175 0.206272 0.206844 0.207709 0.208417 0.208885 0.209116
          0.207427 0.207121 0.206624 0.206048 0.206127 0.205912 0.204792 0.205441 0.207123 0.208183 0.208794 0.209075
          0.20751 0.207189 0.206848 0.206695 0.206611 0.20637 0.20591 0.20603 0.206658 0.208105 0.208811 0.209117
          0.207754 0.207398 0.206646 0.20702 0.207053 0.206848 0.206283 0.205898 0.207425 0.208411 0.208989 0.209257
          0.208124 0.207762 0.206809 0.207433 0.207529 0.207417 0.207267 0.207462 0.208172 0.208808 0.209242 0.209459
          0.208592 0.208399 0.208079 0.208084 0.207998 0.207796 0.207588 0.208061 0.208648 0.209148 0.209497 0.209674
          0.209005 0.208896 0.208724 0.208589 0.208384 0.20798 0.206973 0.208261 0.208953 0.209414 0.209715 0.209866
          0.209299 0.209224 0.209097 0.20895 0.208768 0.208543 0.208348 0.2088 0.20926 0.209628 0.209882 0.210012
          0.20945 0.209388 0.209278 0.209142 0.208992 0.208863 0.208844 0.209102 0.209441 0.209749 0.209974 0.210091
          0.207028 0.206854 0.206569 0.206317 0.206276 0.206424 0.206729 0.207146 0.207601 0.208013 0.208322 0.208486
          0.206889 0.206656 0.206247 0.205846 0.205848 0.20604 0.206386 0.206875 0.207411 0.20789 0.208242 0.208428
          0.206663 0.206326 0.205664 0.204827 0.205068 0.205336 0.205683 0.206324 0.207042 0.207664 0.208104 0.208331
          0.206436 0.206014 0.205134 0.20315 0.204377 0.20459 0.204489 0.205456 0.206521 0.20738 0.207952 0.208234
          0.20625 0.205764 0.205271 0.204536 0.204441 0.203944 0.201924 0.204241 0.205932 0.20713 0.207852 0.20819
          0.206121 0.205058 0.205285 0.205112 0.20491 0.204568 0.203789 0.203669 0.20552 0.207071 0.207886 0.208248
          0.206565 0.20603 0.205358 0.205526 0.205513 0.20535 0.20507 0.204934 0.206371 0.20744 0.208106 0.208424
          0.207105 0.206654 0.205574 0.206121 0.206143 0.206003 0.205929 0.206301 0.207135 0.207888 0.20841 0.208672
          0.2077 0.207449 0.207032 0.206925 0.20671 0.206359 0.206024 0.20681 0.207627 0.208275 0.208714 0.208934
          0.208204 0.208052 0.2078 0.207555 0.207191 0.206476 0.204562 0.206886 0.207954 0.208588 0.208979 0.20917
          0.208559 0.208451 0.20826 0.208025 0.207728 0.207349 0.206973 0.207695 0.208361 0.208857 0.209186 0.209351
          0.208742 0.208651 0.208487 0.208278 0.208046 0.207836 0.207777 0.208144 0.208609 0.209014 0.209302 0.20945
          0.206166 0.20597 0.205638 0.205282 0.205052 0.205043 0.205334 0.205818 0.206365 0.206866 0.207241 0.207442
          0.206018 0.205778 0.205355 0.204876 0.204561 0.204466 0.204851 0.205461 0.206126 0.206714 0.207144 0.20737
          0.205761 0.205435 0.204836 0.204071 0.203646 0.203196 0.203864 0.204752 0.205678 0.206445 0.206981 0.207255
          0.205453 0.20501 0.204199 0.202762 0.202786 0.202533 0.202394 0.203678 0.205089 0.206134 0.206813 0.207148
          0.205147 0.20451 0.203805 0.202476 0.201863 0.20157 0.19915 0.201987 0.204532 0.205916 0.206726 0.207113
          0.204921 0.203423 0.203559 0.203058 0.202353 0.202409 0.201723 0.203199 0.204789 0.206022 0.206817 0.207206
          0.205482 0.20481 0.203931 0.203196 0.203382 0.203503 0.203573 0.20429 0.205413 0.206402 0.207086 0.207432
          0.206137 0.205688 0.204846 0.204629 0.204416 0.204267 0.204443 0.205153 0.206058 0.206868 0.207443 0.207738
          0.206785 0.206496 0.206005 0.205586 0.205107 0.204596 0.20453 0.205602 0.206567 0.207309 0.20781 0.208063
          0.207337 0.207137 0.206787 0.206373 0.205853 0.20508 0.203331 0.205806 0.206979 0.207692 0.208138 0.208358
          0.207734 0.207585 0.207317 0.206979 0.206596 0.206199 0.205907 0.206717 0.20746 0.20802 0.208394 0.208583
          0.207942 0.207817 0.207591 0.207308 0.207018 0.206798 0.206789 0.20722 0.207748 0.208208 0.208536 0.208706
          0.205194 0.204944 0.2045 0.203971 0.203518 0.203361 0.203677 0.204256 0.204913 0.205515 0.205972 0.206218
          0.205048 0.204752 0.204211 0.203518 0.202801 0.202433 0.202989 0.203792 0.204611 0.205322 0.205847 0.206127
          0.204801 0.204422 0.20371 0.202714 0.201212 0.199973 0.201584 0.202917 0.204071 0.204991 0.205643 0.205983
          0.204527 0.204038 0.203118 0.201963 0.200871 0.199825 0.199941 0.201827 0.203438 0.204634 0.205444 0.205856
          0.204315 0.203669 0.202353 0.200877 0.199889 0.198764 0.197236 0.200702 0.202943 0.204397 0.205346 0.205821
          0.204305 0.203485 0.201664 0.201282 0.199696 0.200133 0.200352 0.201677 0.203147 0.204509 0.205457 0.205947
          0.204718 0.204133 0.203116 0.202269 0.201523 0.201452 0.201812 0.202357 0.203827 0.205019 0.205835 0.206256
          0.205283 0.204821 0.204 0.203178 0.202345 0.201862 0.20257 0.203581 0.204639 0.205615 0.206303 0.206657
          0.205885 0.205503 0.204775 0.203869 0.202582 0.200789 0.20242 0.20426 0.205376 0.206212 0.206786 0.20708
          0.206452 0.20617 0.205645 0.204973 0.204197 0.203474 0.203889 0.205107 0.206042 0.206741 0.207218 0.207461
          0.206887 0.20668 0.206305 0.205837 0.205376 0.205093 0.205285 0.205929 0.206595 0.207151 0.207545 0.207749
          0.207122 0.206953 0.206652 0.206288 0.205961 0.205803 0.205947 0.206383 0.206905 0.207376 0.207721 0.207903
          0.20416 0.203821 0.203211 0.20248 0.201871 0.201633 0.201913 0.202546 0.203292 0.203999 0.204559 0.204869
          0.20401 0.203614 0.202881 0.20195 0.201073 0.200606 0.201047 0.201948 0.202886 0.203721 0.20438 0.204742
          0.203778 0.203293 0.20238 0.201232 0.199648 0.198087 0.199105 0.200807 0.202164 0.203245 0.204094 0.204549
          0.203568 0.202988 0.201864 0.200638 0.198989 0.197038 0.195915 0.199414 0.201342 0.20277 0.203832 0.20439
          0.203495 0.202884 0.201738 0.200352 0.199259 0.198233 0.197364 0.19897 0.200522 0.202286 0.203658 0.204347
          0.203606 0.202959 0.201689 0.199817 0.199403 0.199043 0.198946 0.199329 0.200973 0.202118 0.203638 0.204497
          0.203949 0.20333 0.202101 0.200262 0.199256 0.199301 0.200037 0.200984 0.202126 0.203337 0.204372 0.204945
          0.204436 0.203812 0.202433 0.201192 0.199687 0.198936 0.200861 0.202016 0.202607 0.20409 0.205011 0.205473
          0.205005 0.204392 0.202798 0.201083 0.198598 0.19951 0.201734 0.203092 0.204026 0.204978 0.205666 0.206024
          0.205617 0.205207 0.204375 0.203362 0.20233 0.202228 0.203071 0.204148 0.204992 0.205713 0.20624 0.206516
          0.206103 0.205827 0.205314 0.204694 0.204152 0.20403 0.204401 0.205033 0.205675 0.206242 0.206661 0.206884
          0.206368 0.206153 0.205767 0.205313 0.20494 0.204832 0.205056 0.20551 0.206035 0.206519 0.206885 0.20708
          0.203183 0.202713 0.201842 0.20077 0.200021 0.199874 0.200124 0.200773 0.201578 0.202391 0.203102 0.203509
          0.203004 0.202427 0.201277 0.199567 0.198649 0.198867 0.19921 0.200034 0.200979 0.201907 0.202814 0.203324
          0.202748 0.202017 0.200505 0.19925 0.198202 0.197122 0.197293 0.198663 0.199915 0.200955 0.202354 0.203056
          0.202557 0.201654 0.199325 0.198401 0.197279 0.196013 0.19378 0.196907 0.199064 0.200614 0.202103 0.202905
          0.202598 0.201849 0.200387 0.198569 0.197573 0.196937 0.196197 0.197288 0.197952 0.200022 0.202079 0.202962
          0.202811 0.202133 0.200938 0.199529 0.198467 0.197402 0.196616 0.19841 0.199698 0.201142 0.202522 0.203269
          0.203216 0.202582 0.201435 0.200079 0.199002 0.198327 0.198168 0.19954 0.20055 0.201919 0.203102 0.203745
          0.203777 0.203198 0.202094 0.200662 0.199182 0.198713 0.199452 0.200421 0.200331 0.202456 0.20372 0.204322
          0.204402 0.203873 0.202755 0.200838 0.197912 0.199478 0.200743 0.201805 0.202579 0.203679 0.204537 0.204986
          0.205024 0.20462 0.203817 0.202656 0.201382 0.201387 0.202161 0.203057 0.203875 0.20466 0.205269 0.205596
          0.205518 0.205221 0.204663 0.203937 0.20326 0.203096 0.203465 0.204072 0.204727 0.205334 0.205799 0.206051
          0.205789 0.205549 0.205113 0.204577 0.204114 0.203956 0.20417 0.204624 0.205166 0.205681 0.206077 0.206292
          0.202529 0.201974 0.200924 0.199656 0.19854 0.198191 0.198212 0.199037 0.199949 0.200913 0.20184 0.202375
          0.202327 0.201617 0.200066 0.198198 0.197057 0.197137 0.197211 0.197949 0.198892 0.19998 0.201373 0.202118
          0.202057 0.201164 0.198968 0.197229 0.196506 0.195464 0.194903 0.19617 0.196421 0.197461 0.200546 0.201751
          0.201896 0.201045 0.199478 0.197961 0.196631 0.195041 0.192392 0.195228 0.197193 0.197849 0.200247 0.201621
          0.201873 0.20103 0.199584 0.198065 0.1968 0.195503 0.194106 0.196255 0.197897 0.199066 0.200896 0.201867
          0.202013 0.200992 0.199607 0.198141 0.197034 0.19602 0.195396 0.197225 0.19869 0.199844 0.201403 0.202234
          0.202483 0.201522 0.19976 0.198084 0.197469 0.196484 0.196895 0.198128 0.199205 0.200265 0.201853 0.202689
          0.203213 0.202558 0.201357 0.199896 0.198324 0.196159 0.197718 0.19874 0.199085 0.200064 0.202388 0.203287
          0.203963 0.20346 0.202478 0.201021 0.198917 0.19716 0.198713 0.200253 0.201316 0.202358 0.203488 0.204075
          0.204632 0.204242 0.203458 0.202195 0.199935 0.198268 0.200145 0.201588 0.20275 0.203673 0.204407 0.204801
          0.20514 0.204841 0.204264 0.20344 0.202444 0.201852 0.202302 0.203021 0.203815 0.204517 0.205051 0.205338
          0.205414 0.205166 0.204704 0.204099 0.203491 0.20316 0.203321 0.203781 0.204375 0.204944 0.205384 0.205622
          0.202386 0.201918 0.201054 0.199969 0.198904 0.197976 0.196858 0.198073 0.199153 0.200249 0.201251 0.20181
          0.202205 0.201646 0.20058 0.199201 0.197946 0.196993 0.19598 0.196837 0.198079 0.199391 0.200867 0.201603
          0.201922 0.201213 0.199803 0.197694 0.195901 0.194809 0.194484 0.194289 0.19595 0.197937 0.200356 0.201351
          0.201649 0.200757 0.199091 0.197101 0.195105 0.193062 0.191687 0.193883 0.19681 0.198704 0.200412 0.201314
          0.201493 0.200385 0.197869 0.195812 0.19466 0.192792 0.191715 0.194959 0.19737 0.199134 0.200634 0.201455
          0.201588 0.200237 0.197323 0.195016 0.193735 0.192663 0.192821 0.195575 0.197654 0.199124 0.200799 0.201685
          0.202145 0.201095 0.198704 0.196998 0.195014 0.193431 0.194022 0.196358 0.197962 0.197887 0.200893 0.202032
          0.202954 0.202271 0.200969 0.199522 0.197924 0.196345 0.195405 0.196779 0.198895 0.199517 0.201743 0.202694
          0.203766 0.203293 0.202403 0.201244 0.199917 0.198744 0.198245 0.198797 0.200543 0.20174 0.202915 0.203531
          0.204461 0.204112 0.203448 0.202532 0.201429 0.200395 0.19926 0.199299 0.201799 0.203047 0.203871 0.204294
          0.204969 0.2047 0.204194 0.203515 0.202771 0.20217 0.201878 0.202175 0.203159 0.203973 0.204555 0.204861
          0.205238 0.20501 0.204588 0.204041 0.203484 0.203081 0.20298 0.20326 0.203854 0.204453 0.204914 0.205162
          0.202532 0.202161 0.20148 0.200607 0.199698 0.198891 0.198335 0.198634 0.199292 0.200364 0.201263 0.201749
          0.202389 0.201968 0.201187 0.200172 0.199106 0.198109 0.19711 0.197512 0.197963 0.199798 0.201033 0.20162
          0.202157 0.201647 0.200686 0.199399 0.198026 0.196731 0.195235 0.195844 0.197884 0.199551 0.200832 0.201481
          0.201927 0.201303 0.200123 0.198538 0.196703 0.195044 0.193469 0.195661 0.197787 0.199503 0.200769 0.201431
          0.201808 0.201054 0.199562 0.197482 0.194527 0.192494 0.19097 0.194752 0.197402 0.199404 0.200781 0.201486
          0.201931 0.201095 0.199383 0.19671 0.193322 0.1893 0.190526 0.193453 0.196517 0.199197 0.20086 0.201659
          0.202386 0.201633 0.200058 0.197431 0.194139 0.192482 0.192439 0.1954 0.197622 0.199079 0.201137 0.202021
          0.203075 0.202507 0.201392 0.1998 0.197939 0.19623 0.193866 0.196463 0.199031 0.200593 0.201963 0.202659
          0.203812 0.203399 0.202611 0.201537 0.200323 0.199183 0.19823 0.198076 0.200506 0.201916 0.202904 0.203415
          0.204464 0.204158 0.203582 0.202813 0.201964 0.201207 0.200713 0.200899 0.202062 0.203043 0.203749 0.204121
          0.204945 0.204707 0.204265 0.203689 0.203083 0.202589 0.20236 0.202568 0.203209 0.203869 0.20438 0.204655
          0.2052 0.204995 0.20462 0.20414 0.203654 0.203286 0.203156 0.203343 0.203796 0.204303 0.204715 0.204943
          0.202687 0.202371 0.201795 0.201057 0.200294 0.199663 0.199343 0.199522 0.20007 0.200828 0.201495 0.201873
          0.202569 0.202221 0.201579 0.200751 0.199885 0.199158 0.198766 0.199012 0.199668 0.200593 0.201364 0.201787
          0.202379 0.201969 0.201208 0.200207 0.199142 0.198242 0.197786 0.198241 0.199253 0.200339 0.201209 0.201681
          0.202195 0.201706 0.200786 0.199547 0.198174 0.19701 0.196547 0.197479 0.198838 0.200125 0.201101 0.201622
          0.202119 0.20155 0.200453 0.198915 0.197073 0.195382 0.194799 0.196532 0.198397 0.199962 0.201076 0.201655
          0.202254 0.201644 0.20044 0.198671 0.196377 0.19333 0.191908 0.195616 0.198118 0.199954 0.201199 0.20183
          0.202652 0.202081 0.200952 0.199295 0.197241 0.195024 0.192538 0.196243 0.198653 0.20034 0.201576 0.202204
          0.203249 0.20278 0.201871 0.200587 0.199045 0.197359 0.195299 0.197824 0.199776 0.201216 0.202249 0.202785
          0.203913 0.203551 0.202863 0.201924 0.200855 0.199827 0.19913 0.199884 0.20115 0.202244 0.203044 0.203466
          0.204517 0.204241 0.203725 0.203041 0.2023 0.201661 0.201345 0.201679 0.202436 0.203202 0.203793 0.204111
          0.20497 0.204751 0.204349 0.20383 0.203292 0.202864 0.202692 0.202895 0.20338 0.203923 0.204364 0.204608
          0.205211 0.205022 0.204676 0.204237 0.203796 0.203463 0.203344 0.203501 0.203872 0.204307 0.204672 0.204877
        </DataArray>
        <DataArray type="Float32" Name="S_gas" NumberOfComponents="1" format="ascii">
          0.791151 0.791221 0.79131 0.791333 0.791242 0.791063 0.790828 0.790562 0.790293 0.790053 0.789875 0.789779
          0.79119 0.791284 0.791416 0.791458 0.791352 0.791162 0.790922 0.790644 0.790356 0.790099 0.789907 0.789805
          0.791224 0.79135 0.791557 0.791628 0.7915 0.791313 0.791086 0.790791 0.790468 0.790176 0.78996 0.789845
          0.79119 0.791302 0.791474 0.791576 0.791531 0.791431 0.79128 0.790966 0.790594 0.790257 0.790009 0.789879
          0.791092 0.791184 0.79132 0.79142 0.791451 0.79146 0.791441 0.791094 0.790673 0.790298 0.790026 0.789884
          0.790945 0.791025 0.791141 0.79122 0.791264 0.79129 0.791251 0.790986 0.790615 0.790253 0.789982 0.789839
          0.790751 0.790832 0.790949 0.79099 0.791018 0.791038 0.791009 0.790775 0.790445 0.790121 0.789873 0.789742
          0.790511 0.790587 0.790698 0.790718 0.790729 0.790729 0.790672 0.790481 0.790209 0.789935 0.789722 0.789607
          0.790243 0.790297 0.790374 0.790412 0.790434 0.790433 0.790371 0.790203 0.789972 0.78974 0.789559 0.78946
          0.789996 0.790035 0.790093 0.79014 0.790174 0.790181 0.790129 0.789974 0.789769 0.789568 0.789411 0.789326
          0.789812 0.789842 0.789891 0.78994 0.789976 0.789981 0.789928 0.789793 0.789615 0.789438 0.789299 0.789224
          0.789714 0.789741 0.789786 0.789833 0.789868 0.78987 0.789816 0.789693 0.78953 0.789367 0.789239 0.789169
          0.791563 0.791686 0.791867 0.791946 0.791827 0.791596 0.791312 0.790999 0.790684 0.790406 0.790199 0.790089
          0.791644 0.791834 0.792173 0.792308 0.792083 0.791783 0.791474 0.791131 0.790781 0.790472 0.790244 0.790123
          0.79174 0.792053 0.792926 0.793117 0.792497 0.79209 0.791789 0.791393 0.790966 0.790591 0.79032 0.790178
          0.791722 0.791957 0.792401 0.792723 0.792504 0.792347 0.792304 0.791795 0.791215 0.790733 0.7904 0.790231
          0.79163 0.791801 0.792074 0.792291 0.792342 0.79255 0.793432 0.792338 0.791453 0.790841 0.790445 0.790251
          0.79149 0.791644 0.791867 0.791971 0.792048 0.792205 0.79244 0.792014 0.791419 0.790816 0.790409 0.790208
          0.791288 0.791471 0.79183 0.791718 0.791731 0.791868 0.792223 0.791738 0.791154 0.790638 0.790278 0.790097
          0.791009 0.791198 0.791637 0.7914 0.791364 0.791416 0.791464 0.791196 0.790782 0.790384 0.790091 0.789938
          0.790667 0.790776 0.790946 0.790957 0.79099 0.791045 0.791042 0.7908 0.79046 0.790136 0.789893 0.789766
          0.790355 0.790421 0.79052 0.790592 0.790671 0.790762 0.790816 0.790531 0.790209 0.789926 0.789719 0.78961
          0.790128 0.790175 0.790251 0.790331 0.790412 0.790475 0.790466 0.790265 0.790006 0.789766 0.789587 0.789492
          0.790009 0.790049 0.790116 0.790194 0.790267 0.790308 0.790272 0.790111 0.789891 0.789678 0.789515 0.789428
          0.792219 0.792393 0.792678 0.792899 0.792787 0.792507 0.792169 0.791792 0.791408 0.791068 0.790815 0.79068
          0.792343 0.792607 0.793129 0.793676 0.793326 0.792841 0.792428 0.791997 0.791555 0.791164 0.790878 0.790727
          0.792514 0.792939 0.79409 0.796161 0.794587 0.793436 0.792939 0.792424 0.791848 0.791346 0.790988 0.790805
          0.792589 0.792979 0.793881 0.795727 0.794389 0.793825 0.793728 0.793156 0.792291 0.791583 0.791115 0.790884
          0.792573 0.792879 0.793376 0.793952 0.793873 0.794088 0.795208 0.794559 0.792877 0.791817 0.791206 0.790925
          0.79249 0.792811 0.793152 0.793305 0.793389 0.79363 0.79409 0.79397 0.793342 0.791895 0.791189 0.790883
          0.792246 0.792602 0.793354 0.79298 0.792947 0.793152 0.793717 0.794102 0.792575 0.791589 0.791011 0.790743
          0.791876 0.792238 0.793191 0.792567 0.792471 0.792583 0.792733 0.792538 0.791828 0.791192 0.790758 0.790541
          0.791408 0.791601 0.791921 0.791916 0.792002 0.792204 0.792412 0.791939 0.791352 0.790852 0.790503 0.790326
          0.790995 0.791104 0.791276 0.791411 0.791616 0.79202 0.793027 0.791739 0.791047 0.790586 0.790285 0.790134
          0.790701 0.790776 0.790903 0.79105 0.791232 0.791457 0.791652 0.7912 0.79074 0.790372 0.790118 0.789988
          0.79055 0.790612 0.790722 0.790858 0.791008 0.791137 0.791156 0.790898 0.790559 0.790251 0.790026 0.789909
          0.792972 0.793146 0.793431 0.793683 0.793724 0.793576 0.793271 0.792854 0.792399 0.791987 0.791678 0.791514
          0.793111 0.793344 0.793753 0.794154 0.794152 0.79396 0.793614 0.793125 0.792589 0.79211 0.791758 0.791572
          0.793337 0.793674 0.794336 0.795173 0.794932 0.794664 0.794317 0.793676 0.792958 0.792336 0.791896 0.791669
          0.793564 0.793986 0.794866 0.79685 0.795623 0.79541 0.795511 0.794544 0.793479 0.79262 0.792048 0.791766
          0.79375 0.794236 0.794729 0.795464 0.795559 0.796056 0.798076 0.795759 0.794068 0.79287 0.792148 0.79181
          0.793879 0.794942 0.794715 0.794888 0.79509 0.795432 0.796211 0.796331 0.79448 0.792929 0.792114 0.791752
          0.793435 0.79397 0.794642 0.794474 0.794487 0.79465 0.79493 0.795066 0.793629 0.79256 0.791894 0.791576
          0.792895 0.793346 0.794426 0.793879 0.793857 0.793997 0.794071 0.793699 0.792866 0.792112 0.79159 0.791328
          0.7923 0.792551 0.792968 0.793074 0.79329 0.793641 0.793976 0.79319 0.792373 0.791725 0.791286 0.791066
          0.791796 0.791948 0.7922 0.792445 0.792809 0.793524 0.795438 0.793114 0.792046 0.791412 0.791021 0.79083
          0.791441 0.791549 0.79174 0.791975 0.792272 0.792651 0.793027 0.792305 0.791639 0.791143 0.790814 0.790649
          0.791258 0.791349 0.791513 0.791722 0.791954 0.792164 0.792223 0.791856 0.791391 0.790986 0.790698 0.79055
          0.793834 0.79403 0.794362 0.794718 0.794948 0.794957 0.794666 0.794182 0.793635 0.793134 0.792759 0.792558
          0.793982 0.794222 0.794645 0.795124 0.795439 0.795534 0.795149 0.794539 0.793874 0.793286 0.792856 0.79263
          0.794239 0.794565 0.795164 0.795929 0.796354 0.796804 0.796136 0.795248 0.794322 0.793555 0.793019 0.792745
          0.794547 0.79499 0.795801 0.797238 0.797214 0.797467 0.797606 0.796322 0.794911 0.793866 0.793187 0.792852
          0.794853 0.795491 0.796195 0.797524 0.798137 0.79843 0.80085 0.798013 0.795468 0.794084 0.793274 0.792887
          0.795079 0.796577 0.796441 0.796942 0.797647 0.797591 0.798277 0.796801 0.795211 0.793978 0.793183 0.792794
          0.794518 0.79519 0.796069 0.796804 0.796618 0.796498 0.796427 0.79571 0.794587 0.793598 0.792914 0.792568
          0.793863 0.794312 0.795154 0.795371 0.795584 0.795733 0.795557 0.794847 0.793942 0.793132 0.792557 0.792262
          0.793215 0.793504 0.793995 0.794414 0.794893 0.795404 0.79547 0.794398 0.793433 0.792691 0.79219 0.791937
          0.792663 0.792863 0.793213 0.793627 0.794147 0.79492 0.796669 0.794194 0.793021 0.792308 0.791862 0.791642
          0.792266 0.792415 0.792683 0.793021 0.793404 0.793801 0.794093 0.793283 0.79254 0.79198 0.791606 0.791417
          0.792058 0.792183 0.792409 0.792692 0.792982 0.793202 0.793211 0.79278 0.792252 0.791792 0.791464 0.791294
          0.794806 0.795056 0.7955 0.796029 0.796482 0.796639 0.796323 0.795744 0.795087 0.794485 0.794028 0.793782
          0.794952 0.795248 0.795789 0.796481 0.797199 0.797567 0.797011 0.796208 0.795389 0.794678 0.794153 0.793873
          0.795199 0.795578 0.79629 0.797286 0.798788 0.800027 0.798416 0.797083 0.795929 0.795009 0.794357 0.794017
          0.795473 0.795962 0.796882 0.798037 0.799129 0.800175 0.800059 0.798173 0.796562 0.795366 0.794556 0.794144
          0.795685 0.796331 0.797647 0.799123 0.800111 0.801236 0.802764 0.799298 0.797057 0.795603 0.794654 0.794178
          0.795695 0.796515 0.798336 0.798718 0.800304 0.799867 0.799648 0.798323 0.796853 0.795491 0.794543 0.794053
          0.795282 0.795867 0.796884 0.797731 0.798477 0.798548 0.798188 0.797643 0.796173 0.794981 0.794165 0.793744
          0.794717 0.795179 0.796 0.796822 0.797655 0.798138 0.79743 0.796419 0.795361 0.794385 0.793697 0.793343
          0.794115 0.794497 0.795225 0.796131 0.797418 0.799211 0.79758 0.79574 0.794624 0.793788 0.793214 0.79292
          0.793548 0.79383 0.794355 0.795027 0.795803 0.796526 0.796111 0.794893 0.793958 0.793259 0.792782 0.792539
          0.793113 0.79332 0.793695 0.794163 0.794624 0.794907 0.794715 0.794071 0.793405 0.792849 0.792455 0.792251
          0.792878 0.793047 0.793348 0.793712 0.794039 0.794197 0.794053 0.793617 0.793095 0.792624 0.792279 0.792097
          0.79584 0.796179 0.796789 0.79752 0.798129 0.798367 0.798087 0.797454 0.796708 0.796001 0.795441 0.795131
          0.79599 0.796386 0.797119 0.79805 0.798927 0.799394 0.798953 0.798052 0.797114 0.796279 0.79562 0.795258
          0.796222 0.796707 0.79762 0.798768 0.800352 0.801913 0.800895 0.799193 0.797836 0.796755 0.795906 0.795451
          0.796432 0.797012 0.798136 0.799362 0.801011 0.802962 0.804085 0.800586 0.798658 0.79723 0.796168 0.79561
          0.796505 0.797116 0.798262 0.799648 0.800741 0.801767 0.802635 0.80103 0.799478 0.797714 0.796342 0.795653
          0.796394 0.797041 0.798311 0.800183 0.800597 0.800957 0.801054 0.800671 0.799027 0.797882 0.796362 0.795503
          0.796051 0.79667 0.797899 0.799738 0.800744 0.800699 0.799963 0.799016 0.797874 0.796663 0.795628 0.795055
          0.795564 0.796188 0.797567 0.798808 0.800313 0.801064 0.799139 0.797984 0.797393 0.79591 0.794989 0.794527
          0.794995 0.795608 0.797202 0.798917 0.801402 0.80049 0.798266 0.796908 0.795974 0.795022 0.794334 0.793976
          0.794383 0.794793 0.795625 0.796638 0.79767 0.797772 0.796929 0.795852 0.795008 0.794287 0.79376 0.793484
          0.793897 0.794173 0.794686 0.795306 0.795848 0.79597 0.795599 0.794967 0.794325 0.793758 0.793339 0.793116
          0.793632 0.793848 0.794232 0.794687 0.79506 0.795168 0.794944 0.79449 0.793965 0.793481 0.793115 0.79292
          0.796817 0.797287 0.798158 0.79923 0.799979 0.800126 0.799876 0.799227 0.798422 0.797609 0.796898 0.796491
          0.796996 0.797573 0.798723 0.800433 0.801351 0.801133 0.80079 0.799966 0.799021 0.798093 0.797186 0.796676
          0.797252 0.797983 0.799495 0.80075 0.801798 0.802878 0.802707 0.801337 0.800085 0.799045 0.797646 0.796944
          0.797443 0.798346 0.800676 0.801599 0.802721 0.803987 0.80622 0.803093 0.800936 0.799386 0.797897 0.797095
          0.797402 0.798151 0.799613 0.801431 0.802427 0.803064 0.803803 0.802712 0.802048 0.799978 0.797921 0.797038
          0.797189 0.797867 0.799062 0.800471 0.801533 0.802598 0.803384 0.80159 0.800302 0.798858 0.797478 0.796731
          0.796784 0.797418 0.798565 0.799921 0.800998 0.801673 0.801832 0.80046 0.79945 0.798081 0.796898 0.796255
          0.796223 0.796802 0.797906 0.799338 0.800818 0.801287 0.800548 0.799579 0.799669 0.797544 0.79628 0.795678
          0.795598 0.796127 0.797245 0.799162 0.802088 0.800522 0.799257 0.798195 0.797421 0.796321 0.795463 0.795014
          0.794976 0.79538 0.796183 0.797344 0.798618 0.798613 0.797839 0.796943 0.796125 0.79534 0.794731 0.794404
          0.794482 0.794779 0.795337 0.796063 0.79674 0.796904 0.796535 0.795928 0.795273 0.794666 0.794201 0.793949
          0.794211 0.794451 0.794887 0.795423 0.795886 0.796044 0.79583 0.795376 0.794834 0.794319 0.793923 0.793708
          0.797471 0.798026 0.799076 0.800344 0.80146 0.801809 0.801788 0.800963 0.800051 0.799087 0.79816 0.797625
          0.797673 0.798383 0.799934 0.801802 0.802944 0.802863 0.802789 0.802051 0.801108 0.80002 0.798627 0.797882
          0.797943 0.798836 0.801032 0.802771 0.803494 0.804536 0.805097 0.80383 0.803579 0.802539 0.799453 0.798249
          0.798104 0.798955 0.800522 0.802039 0.803369 0.804959 0.807608 0.804772 0.802807 0.802151 0.799753 0.798379
          0.798127 0.79897 0.800416 0.801935 0.8032 0.804497 0.805894 0.803745 0.802103 0.800934 0.799105 0.798133
          0.797987 0.799008 0.800393 0.801859 0.802966 0.80398 0.804604 0.802775 0.80131 0.800156 0.798597 0.797766
          0.797517 0.798478 0.80024 0.801916 0.802531 0.803516 0.803105 0.801872 0.800795 0.799735 0.798147 0.797311
          0.796787 0.797442 0.798643 0.800104 0.801676 0.803841 0.802282 0.80126 0.800915 0.799936 0.797612 0.796713
          0.796037 0.79654 0.797522 0.798979 0.801083 0.80284 0.801287 0.799747 0.798684 0.797642 0.796512 0.795925
          0.795368 0.795758 0.796542 0.797805 0.800065 0.801732 0.799855 0.798412 0.79725 0.796327 0.795593 0.795199
          0.79486 0.795159 0.795736 0.79656 0.797556 0.798148 0.797698 0.796979 0.796185 0.795483 0.794949 0.794662
          0.794586 0.794834 0.795296 0.795901 0.796509 0.79684 0.796679 0.796219 0.795625 0.795056 0.794616 0.794378
          0.797614 0.798082 0.798946 0.800031 0.801096 0.802024 0.803142 0.801927 0.800847 0.799751 0.798749 0.79819