<?xml version="1.0"?>
<VTKFile type="UnstructuredGrid" version="0.1" byte_order="LittleEndian">
  <UnstructuredGrid>
    <Piece NumberOfCells="1536" NumberOfPoints="1617">
      <CellData Scalars="S_aq">
        <DataArray type="Float32" Name="S_aq" NumberOfComponents="1" format="ascii">
          1 1 1 1 1 1 1 1 1 1 1 1
          1 1 1 1 1 1 1 1 1 1 1 1
          1 1 1 1 1 1 1 1 1 1 1 1
          1 1 1 1 1 1 1 1 1 1 1 1
          1 1 1 1 1 1 1 1 1 1 1 1
          1 1 1 1 1 1 1 1 1 1 1 1
          1 1 1 1 1 1 1 1 1 1 1 1
          1 1 1 1 1 1 1 1 1 1 1 1
          1 1 1 1 1 1 1 1 1 1 1 1
          1 1 1 1 1 1 1 1 1 1 1 1
          1 1 1 1 1 1 1 1 1 1 1 1
          1 1 1 1 1 1 1 1 1 1 1 1
          1 1 1 1 1 1 1 1 1 1 1 1
          1 1 1 1 1 1 1 1 1 1 1 1
          1 1 1 1 1 1 1 1 1 1 1 1
          1 1 1 1 1 1 1 1 1 1 1 1
          1 1 1 1 1 1 1 1 1 1 1 1
          1 1 1 1 1 1 1 1 1 1 1 1
          1 1 1 1 1 1 1 1 1 1 1 1
          1 1 1 1 1 1 1 1 1 1 1 1
          1 1 1 1 1 1 1 1 1 1 1 1
          1 1 1 1 1 1 1 1 1 1 1 1
          1 1 1 1 1 1 1 1 1 1 1 1
          1 1 1 1 1 1 1 1 1 1 1 1
          1 1 1 1 1 1 1 1 1 1 1 1
          1 1 1 1 1 1 1 1 1 1 1 1
          1 1 1 1 1 1 1 1 1 1 1 1
          1 1 1 1 1 1 1 1 1 1 1 1
          1 1 1 1 1 1 1 1 1 1 1 1
          1 1 1 1 1 1 1 1 1 1 1 1
          1 1 1 1 1 1 1 1 1 1 1 1
          1 1 1 1 1 1 1 1 1 1 1 1
          1 1 1 1 1 1 1 1 1 1 1 1
          1 1 1 1 1 1 1 1 1 1 1 1
          1 1 1 1 1 1 1 1 1 1 1 1
          1 1 1 1 1 1 1 1 1 1 1 1
          1 1 1 1 1 1 1 1 1 1 1 1
          1 1 1 1 1 1 1 1 1 1 1 1
          1 1 1 1 1 1 1 1 1 1 1 1
          1 1 1 1 1 1 1 1 1 1 1 1
          1 1 1 1 1 1 1 1 1 1 1 1
          1 1 1 1 1 1 1 1 1 1 1 1
          1 1 1 1 1 1 1 1 1 1 1 1
          1 1 1 1 1 1 1 1 1 1 1 1
          1 1 1 1 1 1 1 1 1 1 1 1
          1 1 1 1 1 1 1 1 1 1 1 1
          1 1 1 1 1 1 1 1 1 1 1 1
          1 1 1 1 1 1 1 1 1 1 1 1
          1 1 1 1 1 1 1 1 1 1 1 1
          1 1 1 1 1 1 1 1 1 1 1 1
          1 1 1 1 1 1 1 1 1 1 1 1
          1 1 1 1 1 1 1 1 1 1 1 1
          1 1 1 1 1 1 1 1 1 1 1 1
          1 1 1 1 1 1 1 1 1 1 1 1
          1 1 1 1 1 1 1 1 1 1 1 1
          1 1 1 1 1 1 1 1 1 1 1 1
          1 1 1 1 1 1 1 1 1 1 1 1
          1 1 1 1 1 1 1 1 1 1 1 1
          1 1 1 1 1 1 1 1 1 1 1 1
          1 1 1 1 1 1 1 1 1 1 1 1
          1 1 1 1 1 1 1 1 1 1 1 1
          1 1 1 1 1 1 1 1 1 1 1 1
          1 1 1 1 1 1 1 1 1 1 1 1
          1 1 1 1 1 1 1 1 1 1 1 1
          1 1 1 1 1 1 1 1 1 1 1 1
          1 1 1 1 1 1 1 1 1 1 1 1
          1 1 1 1 1 1 1 1 1 1 1 1
          1 1 1 1 1 1 1 1 1 1 1 1
          1 1 1 1 1 1 1 1 1 1 1 1
          1 1 1 1 1 1 1 1 1 1 1 1
          1 1 1 1 1 1 1 1 1 1 1 1
          1 1 1 1 1 1 1 1 1 1 1 1
          1 1 1 1 1 1 1 1 1 1 1 1
          1 1 1 1 1 1 1 1 1 1 1 1
          1 1 1 1 1 1 1 1 1 1 1 1
          1 1 1 1 1 1 1 1 1 1 1 1
          1 1 1 1 1 1 1 1 1 1 1 1
          1 1 1 1 1 1 1 1 1 1 1 1
          1 1 1 1 1 1 1 1 1 1 1 1
          1 1 1 1 1 1 1 1 1 1 1 1
          1 1 1 1 1 1 1 1 1 1 1 1
          1 1 1 1 1 1 1 1 1 1 1 1
          1 1 1 1 1 1 1 1 1 1 1 1
          1 1 1 1 1 1 1 1 1 1 1 1
          1 1 1 1 1 1 1 1 1 1 1 1
          1 1 1 1 1 1 1 1 1 1 1 1
          1 1 1 1 1 1 1 1 1 1 1 1
          1 1 1 1 1 1 1 1 1 1 1 1
          1 1 1 1 1 1 1 1 1 1 1 1
          1 1 1 1 1 1 1 1 1 1 1 1
          1 1 1 1 1 1 1 1 1 1 1 1
          1 1 1 1 1 1 1 1 1 1 1 1
          1 1 1 1 1 1 1 1 1 1 1 1
          1 1 1 1 1 1 1 1 1 1 1 1
          1 1 1 1 1 1 1 1 1 1 1 1
          1 1 1 1 1 1 1 1 1 1 1 1
          1 1 1 1 1 1 1 1 1 1 1 1
          1 1 1 1 1 1 0.999999 0.999999 0.999999 0.999999 0.999999 1
          1 1 1 1 1 1 1 1 1 1 1 1
          1 1 1 1 1 1 1 1 1 1 1 1
          1 1 1 1 1 1 1 1 1 1 1 1
          1 1 1 1 0.99996 0.999546 0.999288 0.999219 0.999208 0.999213 0.999265 0.999768
          1 1 1 1 1 1 1 1 1 1 1 1
          1 1 1 1 1 1 1 1 1 1 1 1
          1 1 1 1 1 1 1 1 1 1 1 1
          1 1 1 1 0.996913 0.990961 0.988872 0.988363 0.988278 0.988305 0.988658 0.99311
          0.999904 1 1 1 1 1 1 1 1 1 1 1
          1 1 1 1 1 1 1 1 1 1 1 1
          1 1 1 1 1 1 1 1 1 1 1 1
          1 1 1 0.999747 0.982218 0.970893 0.967707 0.966924 0.966776 0.966792 0.96723 0.973623
          0.996886 0.999992 1 1 1 1 1 1 1 1 1 1
          1 1 1 1 1 1 1 1 1 1 1 1
          1 1 1 1 1 1 1 1 1 1 1 1
          1 1 1 0.998003 0.966785 0.957219 0.954667 0.954042 0.953915 0.953912 0.954187 0.958445
          0.987912 0.999632 1 1 1 1 1 1 1 1 1 1
          1 1 1 1 1 1 1 1 1 1 1 1
          1 1 1 1 1 1 1 1 1 1 1 1
          1 1 0.999997 0.995795 0.958711 0.95172 0.950023 0.949638 0.949562 0.949557 0.949708 0.95249
          0.97967 0.998114 0.999997 1 1 1 1 1 1 1 1 1
          1 1 1 1 1 1 1 1 1 1 1 1
          1 1 1 1 1 1 1 1 1 1 1 1
          1 1 0.999969 0.99437 0.954377 0.949576 0.948619 0.948433 0.9484 0.948397 0.948476 0.950371
          0.97734 0.996493 0.999976 1 1 1 1 1 1 1 1 1
          1 1 1 1 1 1 1 1 1 1 1 1
          1 1 1 1 1 1 1 1 1 1 1 1
          1 1 0.999932 0.994117 0.951263 0.948593 0.948215 0.948157 0.948148 0.948148 0.948178 0.949292
          0.980786 0.996498 0.999963 1 1 1 1 1 1 1 1 1
          1 1 1 1 1 1 1 1 1 1 1 1
        </DataArray>
        <DataArray type="Float32" Name="p_aq" NumberOfComponents="1" format="ascii">
          152501 151572 150808 150153 149577 149060 148592 148163 147765 147395 147048 146719
          146407 146108 145820 145542 145273 145010 144753 144501 144254 144011 143771 143534
          143300 143069 142841 142615 142392 142173 141956 141742 141532 141325 141121 140921
          140723 140529 140338 140150 139964 139781 139600 139420 139243 139066 138890 138714
          150983 150180 149473 148848 148290 147786 147327 146904 146512 146146 145802 145477
          145167 144870 144584 144308 144039 143778 143522 143271 143024 142781 142541 142305
          142071 141840 141612 141386 141163 140943 140727 140513 140302 140095 139891 139691
          139494 139300 139109 138921 138736 138553 138372 138193 138015 137839 137663 137488
          149380 148691 148056 147477 146950 146468 146025 145615 145233 144876 144539 144219
          143914 143621 143339 143065 142799 142540 142285 142036 141790 141548 141309 141072
          140839 140608 140380 140154 139931 139711 139494 139280 139070 138862 138659 138458
          138261 138068 137877 137689 137505 137322 137142 136963 136787 136611 136436 136261
          147748 147150 146583 146054 145564 145110 144689 144297 143930 143584 143257 142946
          142648 142362 142085 141816 141553 141297 141045 140797 140553 140312 140073 139838
          139604 139374 139145 138920 138696 138476 138259 138044 137833 137626 137422 137222
          137025 136832 136642 136455 136271 136090 135910 135733 135557 135382 135208 135035
          146101 145577 145071 144592 144142 143720 143325 142954 142605 142275 141961 141660
          141372 141093 140823 140559 140301 140048 139800 139554 139312 139073 138835 138600
          138368 138137 137908 137682 137459 137238 137020 136805 136594 136386 136182 135982
          135786 135593 135404 135218 135035 134855 134677 134500 134326 134152 133980 133808
          144447 143984 143534 143102 142691 142303 141937 141590 141261 140949 140650 140363
          140085 139816 139554 139297 139045 138796 138551 138309 138069 137831 137595 137361
          137129 136898 136669 136442 136218 135996 135778 135562 135350 135142 134938 134739
          134543 134351 134163 133978 133797 133618 133441 133267 133094 132922 132751 132581
          142789 142379 141978 141590 141219 140865 140528 140208 139902 139609 139328 139055
          138791 138532 138279 138030 137784 137541 137300 137061 136824 136588 136353 136120
          135888 135657 135428 135200 134975 134752 134532 134316 134103 133895 133691 133491
          133296 133105 132918 132735 132555 132378 132204 132031 131860 131690 131522 131353
          141127 140764 140408 140062 139729 139409 139103 138810 138529 138258 137996 137740
          137490 137243 137000 136760 136521 136283 136047 135812 135577 135343 135110 134877
          134646 134415 134185 133956 133730 133505 133284 133066 132852 132642 132438 132239
          132045 131855 131670 131489 131311 131136 130964 130794 130625 130458 130292 130126
          139462 139143 138828 138522 138225 137940 137665 137401 137147 136899 136658 136420
          136185 135951 135719 135487 135256 135024 134793 134561 134330 134098 133866 133634
          133402 133171 132940 132710 132482 132255 132031 131811 131596 131385 131181 130982
          130789 130601 130418 130239 130064 129892 129723 129555 129389 129225 129061 128898
          137796 137516 137240 136971 136710 136459 136217 135983 135757 135534 135315 135097
          134878 134658 134437 134215 133991 133766 133539 133311 133082 132853 132622 132391
          132159 131927 131695 131463 131232 131003 130776 130552 130334 130122 129917 129719
          129528 129342 129162 128986 128814 128645 128479 128315 128152 127991 127830 127671
          136129 135885 135646 135412 135186 134969 134760 134558 134362 134167 133972 133774
          133572 133367 133157 132944 132728 132508 132286 132062 131836 131608 131379 131148
          130916 130683 130449 130215 129981 129747 129516 129288 129067 128853 128647 128450
          128260 128078 127901 127729 127561 127396 127233 127073 126914 126756 126599 126443
          134460 134251 134045 133846 133654 133470 133296 133128 132965 132800 132631 132454
          132270 132079 131881 131677 131467 131253 131036 130815 130591 130365 130137 129906
          129674 129440 129204 128967 128729 128490 128253 128019 127791 127574 127368 127173
          126986 126808 126635 126468 126304 126144 125985 125829 125674 125520 125367 125214
          132790 132612 132439 132271 132112 131963 131824 131695 131569 131439 131297 131143
          130976 130798 130610 130414 130211 130002 129789 129571 129349 129124 128897 128666
          128434 128198 127960 127720 127477 127232 126986 126742 126506 126285 126079 125886
          125705 125532 125365 125203 125045 124889 124736 124584 124434 124284 124135 123986
          131118 130970 130826 130689 130561 130445 130343 130257 130179 130088 129976 129844
          129693 129527 129348 129159 128961 128756 128546 128330 128110 127886 127659 127429
          127196 126959 126719 126475 126227 125974 125717 125458 125207 124979 124775 124589
          124415 124249 124090 123935 123782 123633 123485 123338 123192 123047 122902 122758
          129446 129325 129208 129097 128998 128913 128848 128810 128801 128758 128676 128563
          128425 128268 128096 127912 127718 127516 127308 127094 126875 126652 126425 126195
          125961 125724 125482 125235 124982 124721 124450 124168 123883 123651 123455 123279
          123116 122961 122810 122663 122518 122374 122232 122090 121950 121809 121669 121529
          127772 127675 127582 127496 127420 127360 127325 127336 127459 127465 127407 127306
          127176 127025 126856 126675 126483 126282 126075 125862 125644 125421 125195 124965
          124731 124492 124249 124001 123744 123477 123193 122880 122506 122286 122113 121958
          121811 121668 121528 121389 121252 121115 120979 120843 120707 120571 120436 120301
          126096 126021 125949 125883 125826 125782 125756 125750 125883 125928 125883 125790
          125667 125522 125362 125188 125005 124814 124616 124412 124204 123990 123773 123551
          123325 123094 122856 122610 122352 122073 121755 121339 120974 120875 120754 120628
          120500 120372 120243 120114 119985 119855 119725 119594 119464 119334 119203 119072
          124420 124364 124311 124262 124220 124187 124166 124157 124178 124168 124109 124015
          123897 123761 123612 123453 123285 123111 122930 122745 122554 122359 122160 121956
          121746 121530 121305 121068 120813 120530 120202 119798 119540 119485 119400 119299
          119191 119077 118959 118839 118718 118595 118471 118347 118221 118096 117970 117844
          122743 122704 122667 122633 122604 122580 122564 122556 122527 122459 122370 122264
          122144 122013 121873 121726 121572 121414 121250 121082 120909 120733 120552 120365
          120174 119974 119765 119543 119301 119033 118726 118368 118162 118125 118061 117980
          117886 117785 117678 117566 117452 117336 117218 117099 116979 116858 116737 116615
          121065 121043 121022 121001 120982 120965 120953 120947 120887 120769 120649 120527
          120402 120273 120141 120005 119865 119721 119574 119423 119269 119110 118948 118781
          118609 118429 118239 118037 117817 117574 117301 116992 116820 116792 116740 116671
          116590 116498 116400 116297 116189 116079 115967 115853 115737 115621 115504 115387
          119387 119382 119375 119367 119357 119347 119337 119331 119244 119080 118931 118794
          118664 118538 118413 118288 118161 118032 117902 117768 117632 117492 117349 117203
          117051 116893 116726 116549 116357 116146 115911 115649 115505 115482 115437 115376
          115302 115219 115127 115030 114929 114824 114717 114608 114497 114385 114272 114159
          117710 117721 117730 117734 117733 117727 117718 117710 117588 117377 117201 117053
          116922 116800 116685 116572 116459 116346 116232 116116 115998 115878 115755 115629
          115499 115365 115224 115075 114915 114741 114548 114334 114214 114192 114151 114094
          114025 113947 113861 113769 113672 113572 113469 113364 113257 113149 113040 112930
          116034 116064 116089 116106 116114 116110 116097 116082 115902 115637 115444 115295
          115169 115058 114954 114855 114758 114661 114564 114466 114366 114265 114163 114059
          113953 113843 113731 113613 113488 113354 113207 113042 112946 112922 112880 112824
          112758 112682 112600 112512 112419 112323 112224 112122 112019 111914 111809 111702
          114359 114411 114456 114489 114506 114503 114478 114438 114121 113826 113645 113512
          113403 113307 113220 113137 113056 112976 112897 112817 112736 112655 112573 112491
          112409 112326 112242 112157 112070 111980 111884 111776 111700 111669 111623 111565
          111499 111425 111345 111259 111170 111076 110980 110882 110782 110680 110578 110475
          112687 112765 112834 112887 112917 112918 112875 112756 112447 112250 112107 111995
          111899 111815 111737 111663 111591 111521 111450 111379 111308 111236 111165 111094
          111023 110954 110885 110817 110750 110683 110616 110551 110486 110433 110377 110315
          110247 110173 110095 110011 109924 109833 109739 109644 109546 109447 109347 109247
          111018 111130 111229 111307 111359 111376 111348 111262 111108 110969 110851 110750
          110662 110582 110506 110434 110364 110294 110223 110153 110081 110010 109938 109867
          109796 109726 109658 109590 109523 109456 109390 109324 109260 109199 109137 109071
          109002 108927 108849 108767 108681 108592 108501 108407 108312 108215 108118 108020
          109353 109507 109644 109755 109835 109878 109879 109837 109756 109665 109577 109494
          109416 109343 109272 109204 109136 109067 108997 108926 108855 108783 108711 108639
          108567 108498 108430 108362 108295 108228 108162 108096 108030 107965 107900 107832
          107760 107686 107607 107526 107441 107354 107264 107172 107079 106984 106889 106792
          107695 107901 108084 108235 108348 108422 108455 108450 108413 108359 108297 108232
          108167 108101 108037 107972 107908 107841 107771 107700 107628 107556 107483 107409
          107337 107269 107201 107134 107067 107000 106934 106867 106800 106733 106665 106595
          106523 106448 106369 106288 106204 106118 106029 105939 105847 105754 105660 105565
          106045 106318 106556 106751 106901 107006 107068 107094 107088 107061 107021 106971
          106917 106860 106800 106740 106680 106613 106543 106472 106400 106327 106254 106180
          106106 106039 105973 105906 105839 105772 105705 105638 105570 105502 105433 105361
          105288 105212 105134 105053 104970 104884 104797 104707 104616 104525 104432 104339
          104410 104769 105072 105314 105499 105632 105719 105768 105785 105777 105752 105716
          105670 105620 105565 105509 105451 105384 105314 105243 105171 105098 105025 104950
          104876 104809 104744 104678 104611 104545 104477 104410 104341 104272 104202 104130
          104056 103980 103901 103820 103737 103652 103566 103477 103387 103296 103204 103112
          102806 103276 103648 103934 104148 104304 104410 104474 104505 104511 104497 104468
          104429 104383 104332 104278 104222 104156 104086 104015 103943 103870 103797 103722
          103647 103581 103516 103450 103384 103317 103250 103182 103113 103043 102972 102900
          102825 102749 102671 102590 102507 102423 102336 102248 102159 102068 101977 101885
          101287 101882 102310 102625 102857 103025 103141 103214 103252 103264 103255 103230
          103195 103151 103102 103050 102995 102928 102859 102788 102716 102643 102569 102495
          102419 102354 102289 102223 102157 102090 102023 101955 101886 101816 101745 101672
          101597 101521 101442 101362 101279 101195 101108 101021 100931 100841 100750 100659
        </DataArray>
        <DataArray type="Float32" Name="rho_aq" NumberOfComponents="1" format="ascii">
          1000 1000 1000 1000 1000 1000 1000 1000 1000 1000 1000 1000
          1000 1000 1000 1000 1000 1000 1000 1000 1000 1000 1000 1000
          1000 1000 1000 1000 1000 1000 1000 1000 1000 1000 1000 1000
          1000 1000 1000 1000 1000 1000 1000 1000 1000 1000 1000 1000
          1000 1000 1000 1000 1000 1000 1000 1000 1000 1000 1000 1000
          1000 1000 1000 1000 1000 1000 1000 1000 1000 1000 1000 1000
          1000 1000 1000 1000 1000 1000 1000 1000 1000 1000 1000 1000
          1000 1000 1000 1000 1000 1000 1000 1000 1000 1000 1000 1000
          1000 1000 1000 1000 1000 1000 1000 1000 1000 1000 1000 1000
          1000 1000 1000 1000 1000 1000 1000 1000 1000 1000 1000 1000
          1000 1000 1000 1000 1000 1000 1000 1000 1000 1000 1000 1000
          1000 1000 1000 1000 1000 1000 1000 1000 1000 1000 1000 1000
          1000 1000 1000 1000 1000 1000 1000 1000 1000 1000 1000 1000
          1000 1000 1000 1000 1000 1000 1000 1000 1000 1000 1000 1000
          1000 1000 1000 1000 1000 1000 1000 1000 1000 1000 1000 1000
          1000 1000 1000 1000 1000 1000 1000 1000 1000 1000 1000 1000
          1000 1000 1000 1000 1000 1000 1000 1000 1000 1000 1000 1000
          1000 1000 1000 1000 1000 1000 1000 1000 1000 1000 1000 1000
          1000 1000 1000 1000 1000 1000 1000 1000 1000 1000 1000 1000
          1000 1000 1000 1000 1000 1000 1000 1000 1000 1000 1000 1000
          1000 1000 1000 1000 1000 1000 1000 1000 1000 1000 1000 1000
          1000 1000 1000 1000 1000 1000 1000 1000 1000 1000 1000 1000
          1000 1000 1000 1000 1000 1000 1000 1000 1000 1000 1000 1000
          1000 1000 1000 1000 1000 1000 1000 1000 1000 1000 1000 1000
          1000 1000 1000 1000 1000 1000 1000 1000 1000 1000 1000 1000
          1000 1000 1000 1000 1000 1000 1000 1000 1000 1000 1000 1000
          1000 1000 1000 1000 1000 1000 1000 1000 1000 1000 1000 1000
          1000 1000 1000 1000 1000 1000 1000 1000 1000 1000 1000 1000
          1000 1000 1000 1000 1000 1000 1000 1000 1000 1000 1000 1000
          1000 1000 1000 1000 1000 1000 1000 1000 1000 1000 1000 1000
          1000 1000 1000 1000 1000 1000 1000 1000 1000 1000 1000 1000
          1000 1000 1000 1000 1000 1000 1000 1000 1000 1000 1000 1000
          1000 1000 1000 1000 1000 1000 1000 1000 1000 1000 1000 1000
          1000 1000 1000 1000 1000 1000 1000 1000 1000 1000 1000 1000
          1000 1000 1000 1000 1000 1000 1000 1000 1000 1000 1000 1000
          1000 1000 1000 1000 1000 1000 1000 1000 1000 1000 1000 1000
          1000 1000 1000 1000 1000 1000 1000 1000 1000 1000 1000 1000
          1000 1000 1000 1000 1000 1000 1000 1000 1000 1000 1000 1000
          1000 1000 1000 1000 1000 1000 1000 1000 1000 1000 1000 1000
          1000 1000 1000 1000 1000 1000 1000 1000 1000 1000 1000 1000
          1000 1000 1000 1000 1000 1000 1000 1000 1000 1000 1000 1000
          1000 1000 1000 1000 1000 1000 1000 1000 1000 1000 1000 1000
          1000 1000 1000 1000 1000 1000 1000 1000 1000 1000 1000 1000
          1000 1000 1000 1000 1000 1000 1000 1000 1000 1000 1000 1000
          1000 1000 1000 1000 1000 1000 1000 1000 1000 1000 1000 1000
          1000 1000 1000 1000 1000 1000 1000 1000 1000 1000 1000 1000
          1000 1000 1000 1000 1000 1000 1000 1000 1000 1000 1000 1000
          1000 1000 1000 1000 1000 1000 1000 1000 1000 1000 1000 1000
          1000 1000 1000 1000 1000 1000 1000 1000 1000 1000 1000 1000
          1000 1000 1000 1000 1000 1000 1000 1000 1000 1000 1000 1000
          1000 1000 1000 1000 1000 1000 1000 1000 1000 1000 1000 1000
          1000 1000 1000 1000 1000 1000 1000 1000 1000 1000 1000 1000
          1000 1000 1000 1000 1000 1000 1000 1000 1000 1000 1000 1000
          1000 1000 1000 1000 1000 1000 1000 1000 1000 1000 1000 1000
          1000 1000 1000 1000 1000 1000 1000 1000 1000 1000 1000 1000
          1000 1000 1000 1000 1000 1000 1000 1000 1000 1000 1000 1000
          1000 1000 1000 1000 1000 1000 1000 1000 1000 1000 1000 1000
          1000 1000 1000 1000 1000 1000 1000 1000 1000 1000 1000 1000
          1000 1000 1000 1000 1000 1000 1000 1000 1000 1000 1000 1000
          1000 1000 1000 1000 1000 1000 1000 1000 1000 1000 1000 1000
          1000 1000 1000 1000 1000 1000 1000 1000 1000 1000 1000 1000
          1000 1000 1000 1000 1000 1000 1000 1000 1000 1000 1000 1000
          1000 1000 1000 1000 1000 1000 1000 1000 1000 1000 1000 1000
          1000 1000 1000 1000 1000 1000 1000 1000 1000 1000 1000 1000
          1000 1000 1000 1000 1000 1000 1000 1000 1000 1000 1000 1000
          1000 1000 1000 1000 1000 1000 1000 1000 1000 1000 1000 1000
          1000 1000 1000 1000 1000 1000 1000 1000 1000 1000 1000 1000
          1000 1000 1000 1000 1000 1000 1000 1000 1000 1000 1000 1000
          1000 1000 1000 1000 1000 1000 1000 1000 1000 1000 1000 1000
          1000 1000 1000 1000 1000 1000 1000 1000 1000 1000 1000 1000
          1000 1000 1000 1000 1000 1000 1000 1000 1000 1000 1000 1000
          1000 1000 1000 1000 1000 1000 1000 1000 1000 1000 1000 1000
          1000 1000 1000 1000 1000 1000 1000 1000 1000 1000 1000 1000
          1000 1000 1000 1000 1000 1000 1000 1000 1000 1000 1000 1000
          1000 1000 1000 1000 1000 1000 1000 1000 1000 1000 1000 1000
          1000 1000 1000 1000 1000 1000 1000 1000 1000 1000 1000 1000
          1000 1000 1000 1000 1000 1000 1000 1000 1000 1000 1000 1000
          1000 1000 1000 1000 1000 1000 1000 1000 1000 1000 1000 1000
          1000 1000 1000 1000 1000 1000 1000 1000 1000 1000 1000 1000
          1000 1000 1000 1000 1000 1000 1000 1000 1000 1000 1000 1000
          1000 1000 1000 1000 1000 1000 1000 1000 1000 1000 1000 1000
          1000 1000 1000 1000 1000 1000 1000 1000 1000 1000 1000 1000
          1000 1000 1000 1000 1000 1000 1000 1000 1000 1000 1000 1000
          1000 1000 1000 1000 1000 1000 1000 1000 1000 1000 1000 1000
          1000 1000 1000 1000 1000 1000 1000 1000 1000 1000 1000 1000
          1000 1000 1000 1000 1000 1000 1000 1000 1000 1000 1000 1000
          1000 1000 1000 1000 1000 1000 1000 1000 1000 1000 1000 1000
          1000 1000 1000 1000 1000 1000 1000 1000 1000 1000 1000 1000
          1000 1000 1000 1000 1000 1000 1000 1000 1000 1000 1000 1000
          1000 1000 1000 1000 1000 1000 1000 1000 1000 1000 1000 1000
          1000 1000 1000 1000 1000 1000 1000 1000 1000 1000 1000 1000
          1000 1000 1000 1000 1000 1000 1000 1000 1000 1000 1000 1000
          1000 1000 1000 1000 1000 1000 1000 1000 1000 1000 1000 1000
          1000 1000 1000 1000 1000 1000 1000 1000 1000 1000 1000 1000
          1000 1000 1000 1000 1000 1000 1000 1000 1000 1000 1000 1000
          1000 1000 1000 1000 1000 1000 1000 1000 1000 1000 1000 1000
          1000 1000 1000 1000 1000 1000 1000 1000 1000 1000 1000 1000
          1000 1000 1000 1000 1000 1000 1000 1000 1000 1000 1000 1000
          1000 1000 1000 1000 1000 1000 1000 1000 1000 1000 1000 1000
          1000 1000 1000 1000 1000 1000 1000 1000 1000 1000 1000 1000
          1000 1000 1000 1000 1000 1000 1000 1000 1000 1000 1000 1000
          1000 1000 1000 1000 1000 1000 1000 1000 1000 1000 1000 1000
          1000 1000 1000 1000 1000 1000 1000 1000 1000 1000 1000 1000
          1000 1000 1000 1000 1000 1000 1000 1000 1000 1000 1000 1000
          1000 1000 1000 1000 1000 1000 1000 1000 1000 1000 1000 1000
          1000 1000 1000 1000 1000 1000 1000 1000 1000 1000 1000 1000
          1000 1000 1000 1000 1000 1000 1000 1000 1000 1000 1000 1000
          1000 1000 1000 1000 1000 1000 1000 1000 1000 1000 1000 1000
          1000 1000 1000 1000 1000 1000 1000 1000 1000 1000 1000 1000
          1000 1000 1000 1000 1000 1000 1000 1000 1000 1000 1000 1000
          1000 1000 1000 1000 1000 1000 1000 1000 1000 1000 1000 1000
          1000 1000 1000 1000 1000 1000 1000 1000 1000 1000 1000 1000
          1000 1000 1000 1000 1000 1000 1000 1000 1000 1000 1000 1000
          1000 1000 1000 1000 1000 1000 1000 1000 1000 1000 1000 1000
          1000 1000 1000 1000 1000 1000 1000 1000 1000 1000 1000 1000
          1000 1000 1000 1000 1000 1000 1000 1000 1000 1000 1000 1000
          1000 1000 1000 1000 1000 1000 1000 1000 1000 1000 1000 1000
          1000 1000 1000 1000 1000 1000 1000 1000 1000 1000 1000 1000
          1000 1000 1000 1000 1000 1000 1000 1000 1000 1000 1000 1000
          1000 1000 1000 1000 1000 1000 1000 1000 1000 1000 1000 1000
          1000 1000 1000 1000 1000 1000 1000 1000 1000 1000 1000 1000
          1000 1000 1000 1000 1000 1000 1000 1000 1000 1000 1000 1000
          1000 1000 1000 1000 1000 1000 1000 1000 1000 1000 1000 1000
          1000 1000 1000 1000 1000 1000 1000 1000 1000 1000 1000 1000
          1000 1000 1000 1000 1000 1000 1000 1000 1000 1000 1000 1000
          1000 1000 1000 1000 1000 1000 1000 1000 1000 1000 1000 1000
          1000 1000 1000 1000 1000 1000 1000 1000 1000 1000 1000 1000
          1000 1000 1000 1000 1000 1000 1000 1000 1000 1000 1000 1000
        </DataArray>
        <DataArray type="Float32" Name="mob_aq" NumberOfComponents="1" format="ascii">
          1000 1000 1000 1000 1000 1000 1000 1000 1000 1000 1000 1000
          1000 1000 1000 1000 1000 1000 1000 1000 1000 1000 1000 1000
          1000 1000 1000 1000 1000 1000 1000 1000 1000 1000 1000 1000
          1000 1000 1000 1000 1000 1000 1000 1000 1000 1000 1000 1000
          1000 1000 1000 1000 1000 1000 1000 1000 1000 1000 1000 1000
          1000 1000 1000 1000 1000 1000 1000 1000 1000 1000 1000 1000
          1000 1000 1000 1000 1000 1000 1000 1000 1000 1000 1000 1000
          1000 1000 1000 1000 1000 1000 1000 1000 1000 1000 1000 1000
          1000 1000 1000 1000 1000 1000 1000 1000 1000 1000 1000 1000
          1000 1000 1000 1000 1000 1000 1000 1000 1000 1000 1000 1000
          1000 1000 1000 1000 1000 1000 1000 1000 1000 1000 1000 1000
          1000 1000 1000 1000 1000 1000 1000 1000 1000 1000 1000 1000
          1000 1000 1000 1000 1000 1000 1000 1000 1000 1000 1000 1000
          1000 1000 1000 1000 1000 1000 1000 1000 1000 1000 1000 1000
          1000 1000 1000 1000 1000 1000 1000 1000 1000 1000 1000 1000
          1000 1000 1000 1000 1000 1000 1000 1000 1000 1000 1000 1000
          1000 1000 1000 1000 1000 1000 1000 1000 1000 1000 1000 1000
          1000 1000 1000 1000 1000 1000 1000 1000 1000 1000 1000 1000
          1000 1000 1000 1000 1000 1000 1000 1000 1000 1000 1000 1000
          1000 1000 1000 1000 1000 1000 1000 1000 1000 1000 1000 1000
          1000 1000 1000 1000 1000 1000 1000 1000 1000 1000 1000 1000
          1000 1000 1000 1000 1000 1000 1000 1000 1000 1000 1000 1000
          1000 1000 1000 1000 1000 1000 1000 1000 1000 1000 1000 1000
          1000 1000 1000 1000 1000 1000 1000 1000 1000 1000 1000 1000
          1000 1000 1000 1000 1000 1000 1000 1000 1000 1000 1000 1000
          1000 1000 1000 1000 1000 1000 1000 1000 1000 1000 1000 1000
          1000 1000 1000 1000 1000 1000 1000 1000 1000 1000 1000 1000
          1000 1000 1000 1000 1000 1000 1000 1000 1000 1000 1000 1000
          1000 1000 1000 1000 1000 1000 1000 1000 1000 1000 1000 1000
          1000 1000 1000 1000 1000 1000 1000 1000 1000 1000 1000 1000
          1000 1000 1000 1000 1000 1000 1000 1000 1000 1000 1000 1000
          1000 1000 1000 1000 1000 1000 1000 1000 1000 1000 1000 1000
          1000 1000 1000 1000 1000 1000 1000 1000 1000 1000 1000 1000
          1000 1000 1000 1000 1000 1000 1000 1000 1000 1000 1000 1000
          1000 1000 1000 1000 1000 1000 1000 1000 1000 1000 1000 1000
          1000 1000 1000 1000 1000 1000 1000 1000 1000 1000 1000 1000
          1000 1000 1000 1000 1000 1000 1000 1000 1000 1000 1000 1000
          1000 1000 1000 1000 1000 1000 1000 1000 1000 1000 1000 1000
          1000 1000 1000 1000 1000 1000 1000 1000 1000 1000 1000 1000
          1000 1000 1000 1000 1000 1000 1000 1000 1000 1000 1000 1000
          1000 1000 1000 1000 1000 1000 1000 1000 1000 1000 1000 1000
          1000 1000 1000 1000 1000 1000 1000 1000 1000 1000 1000 1000
          1000 1000 1000 1000 1000 1000 1000 1000 1000 1000 1000 1000
          1000 1000 1000 1000 1000 1000 1000 1000 1000 1000 1000 1000
          1000 1000 1000 1000 1000 1000 1000 1000 1000 1000 1000 1000
          1000 1000 1000 1000 1000 1000 1000 1000 1000 1000 1000 1000
          1000 1000 1000 1000 1000 1000 1000 1000 1000 1000 1000 1000
          1000 1000 1000 1000 1000 1000 1000 1000 1000 1000 1000 1000
          1000 1000 1000 1000 1000 1000 1000 1000 1000 1000 1000 1000