<?xml version="1.0"?>
<VTKFile type="UnstructuredGrid" version="0.1" byte_order="LittleEndian">
  <UnstructuredGrid>
    <Piece NumberOfCells="200" NumberOfPoints="231">
      <PointData Scalars="S_liq">
        <DataArray type="Float32" Name="S_liq" NumberOfComponents="1" format="ascii">
          0.2 0.199906 0.2 0.199906 0.199907 0.199907 0.199907 0.199907 0.199907 0.199907 0.199907 0.199907
          0.199907 0.199907 0.199907 0.199907 0.199907 0.199907 0.199907 0.199907 0.199907 0.199907 0.199907 0.199907
          0.199907 0.199907 0.199907 0.199907 0.199907 0.199907 0.199907 0.199907 0.199907 0.199907 0.199907 0.199907
          0.199907 0.199907 0.199903 0.199903 0.189347 0.189347 0.2 0.199906 0.199907 0.199907 0.199907 0.199907
          0.199907 0.199907 0.199907 0.199907 0.199907 0.199907 0.199907 0.199907 0.199907 0.199907 0.199907 0.199907
          0.199907 0.199903 0.189347 0.2 0.199906 0.199907 0.199907 0.199907 0.199907 0.199907 0.199907 0.199907
          0.199907 0.199907 0.199907 0.199907 0.199907 0.199907 0.199907 0.199907 0.199907 0.199907 0.199903 0.189347
          0.2 0.199906 0.199907 0.199907 0.199907 0.199907 0.199907 0.199907 0.199907 0.199907 0.199907 0.199907
          0.199907 0.199907 0.199907 0.199907 0.199907 0.199907 0.199907 0.199903 0.189347 0.2 0.199906 0.199907
          0.199907 0.199907 0.199907 0.199907 0.199907 0.199907 0.199907 0.199907 0.199907 0.199907 0.199907 0.199907
          0.199907 0.199907 0.199907 0.199907 0.199903 0.189347 0.2 0.199906 0.199907 0.199907 0.199907 0.199907
          0.199907 0.199907 0.199907 0.199907 0.199907 0.199907 0.199907 0.199907 0.199907 0.199907 0.199907 0.199907
          0.199907 0.199903 0.189347 0.2 0.199906 0.199907 0.199907 0.199907 0.199907 0.199907 0.199907 0.199907
          0.199907 0.199907 0.199907 0.199907 0.199907 0.199907 0.199907 0.199907 0.199907 0.199907 0.199903 0.189347
          0.2 0.199906 0.199907 0.199907 0.199907 0.199907 0.199907 0.199907 0.199907 0.199907 0.199907 0.199907
          0.199907 0.199907 0.199907 0.199907 0.199907 0.199907 0.199907 0.199903 0.189347 0.2 0.199906 0.199907
          0.199907 0.199907 0.199907 0.199907 0.199907 0.199907 0.199907 0.199907 0.199907 0.199907 0.199907 0.199907
          0.199907 0.199907 0.199907 0.199907 0.199903 0.189347 0.2 0.199906 0.199907 0.199907 0.199907 0.199907
          0.199907 0.199907 0.199907 0.199907 0.199907 0.199907 0.199907 0.199907 0.199907 0.199907 0.199907 0.199907
          0.199907 0.199903 0.189347
        </DataArray>
        <DataArray type="Float32" Name="p_liq" NumberOfComponents="1" format="ascii">
          100000 99336 100000 99336 99344.5 99344.5 99348.1 99348.1 99351.4 99351.4 99354.5 99354.5
          99357.4 99357.4 99360.1 99360.1 99362.5 99362.5 99364.8 99364.8 99366.9 99366.9 99368.7 99368.7
          99370.4 99370.4 99371.8 99371.8 99373 99373 99374 99374 99374.8 99374.8 99375.4 99375.4
          99375.5 99375.5 99349.4 99349.4 23947.8 23947.8 100000 99336 99344.5 99348.1 99351.4 99354.5
          99357.4 99360.1 99362.5 99364.8 99366.9 99368.7 99370.4 99371.8 99373 99374 99374.8 99375.4
          99375.5 99349.4 23947.8 100000 99336 99344.5 99348.1 99351.4 99354.5 99357.4 99360.1 99362.5
          99364.8 99366.9 99368.7 99370.4 99371.8 99373 99374 99374.8 99375.4 99375.5 99349.4 23947.8
          100000 99336 99344.5 99348.1 99351.4 99354.5 99357.4 99360.1 99362.5 99364.8 99366.9 99368.7
          99370.4 99371.8 99373 99374 99374.8 99375.4 99375.5 99349.4 23947.8 100000 99336 99344.5
          99348.1 99351.4 99354.5 99357.4 99360.1 99362.5 99364.8 99366.9 99368.7 99370.4 99371.8 99373
          99374 99374.8 99375.4 99375.5 99349.4 23947.8 100000 99336 99344.5 99348.1 99351.4 99354.5
          99357.4 99360.1 99362.5 99364.8 99366.9 99368.7 99370.4 99371.8 99373 99374 99374.8 99375.4
          99375.5 99349.4 23947.8 100000 99336 99344.5 99348.1 99351.4 99354.5 99357.4 99360.1 99362.5
          99364.8 99366.9 99368.7 99370.4 99371.8 99373 99374 99374.8 99375.4 99375.5 99349.4 23947.8
          100000 99336 99344.5 99348.1 99351.4 99354.5 99357.4 99360.1 99362.5 99364.8 99366.9 99368.7
          99370.4 99371.8 99373 99374 99374.8 99375.4 99375.5 99349.4 23947.8 100000 99336 99344.5
          99348.1 99351.4 99354.5 99357.4 99360.1 99362.5 99364.8 99366.9 99368.7 99370.4 99371.8 99373
          99374 99374.8 99375.4 99375.5 99349.4 23947.8 100000 99336 99344.5 99348.1 99351.4 99354.5
          99357.4 99360.1 99362.5 99364.8 99366.9 99368.7 99370.4 99371.8 99373 99374 99374.8 99375.4
          99375.5 99349.4 23947.8
        </DataArray>
        <DataArray type="Float32" Name="rho_liq" NumberOfComponents="1" format="ascii">
          997.048 997.048 997.048 997.048 997.048 997.048 997.048 997.048 997.048 997.048 997.048 997.048
          997.048 997.048 997.048 997.048 997.048 997.048 997.048 997.048 997.048 997.048 997.048 997.048
          997.048 997.048 997.048 997.048 997.048 997.048 997.048 997.048 997.048 997.048 997.048 997.048
          997.048 997.048 997.062 997.062 997.924 997.924 997.048 997.048 997.048 997.048 997.048 997.048
          997.048 997.048 997.048 997.048 997.048 997.048 997.048 997.048 997.048 997.048 997.048 997.048
          997.048 997.062 997.924 997.048 997.048 997.048 997.048 997.048 997.048 997.048 997.048 997.048
          997.048 997.048 997.048 997.048 997.048 997.048 997.048 997.048 997.048 997.048 997.062 997.924
          997.048 997.048 997.048 997.048 997.048 997.048 997.048 997.048 997.048 997.048 997.048 997.048
          997.048 997.048 997.048 997.048 997.048 997.048 997.048 997.062 997.924 997.048 997.048 997.048
          997.048 997.048 997.048 997.048 997.048 997.048 997.048 997.048 997.048 997.048 997.048 997.048
          997.048 997.048 997.048 997.048 997.062 997.924 997.048 997.048 997.048 997.048 997.048 997.048
          997.048 997.048 997.048 997.048 997.048 997.048 997.048 997.048 997.048 997.048 997.048 997.048
          997.048 997.062 997.924 997.048 997.048 997.048 997.048 997.048 997.048 997.048 997.048 997.048
          997.048 997.048 997.048 997.048 997.048 997.048 997.048 997.048 997.048 997.048 997.062 997.924
          997.048 997.048 997.048 997.048 997.048 997.048 997.048 997.048 997.048 997.048 997.048 997.048
          997.048 997.048 997.048 997.048 997.048 997.048 997.048 997.062 997.924 997.048 997.048 997.048
          997.048 997.048 997.048 997.048 997.048 997.048 997.048 997.048 997.048 997.048 997.048 997.048
          997.048 997.048 997.048 997.048 997.062 997.924 997.048 997.048 997.048 997.048 997.048 997.048
          997.048 997.048 997.048 997.048 997.048 997.048 997.048 997.048 997.048 997.048 997.048 997.048
          997.048 997.062 997.924
        </DataArray>
        <DataArray type="Float32" Name="mob_liq" NumberOfComponents="1" format="ascii">
          0 0 0 0 0 0 0 0 0 0 0 0
          0 0 0 0 0 0 0 0 0 0 0 0
          0 0 0 0 0 0 0 0 0 0 0 0
          0 0 0 0 0 0 0 0 0 0 0 0
          0 0 0 0 0 0 0 0 0 0 0 0
          0 0 0 0 0 0 0 0 0 0 0 0
          0 0 0 0 0 0 0 0 0 0 0 0
          0 0 0 0 0 0 0 0 0 0 0 0
          0 0 0 0 0 0 0 0 0 0 0 0
          0 0 0 0 0 0 0 0 0 0 0 0
          0 0 0 0 0 0 0 0 0 0 0 0
          0 0 0 0 0 0 0 0 0 0 0 0
          0 0 0 0 0 0 0 0 0 0 0 0
          0 0 0 0 0 0 0 0 0 0 0 0
          0 0 0 0 0 0 0 0 0 0 0 0
          0 0 0 0 0 0 0 0 0 0 0 0
          0 0 0 0 0 0 0 0 0 0 0 0
          0 0 0 0 0 0 0 0 0 0 0 0
          0 0 0 0 0 0 0 0 0 0 0 0
          0 0 0
        </DataArray>
        <DataArray type="Float32" Name="S_gas" NumberOfComponents="1" format="ascii">
          0.8 0.800094 0.8 0.800094 0.800093 0.800093 0.800093 0.800093 0.800093 0.800093 0.800093 0.800093
          0.800093 0.800093 0.800093 0.800093 0.800093 0.800093 0.800093 0.800093 0.800093 0.800093 0.800093 0.800093
          0.800093 0.800093 0.800093 0.800093 0.800093 0.800093 0.800093 0.800093 0.800093 0.800093 0.800093 0.800093
          0.800093 0.800093 0.800097 0.800097 0.810653 0.810653 0.8 0.800094 0.800093 0.800093 0.800093 0.800093
          0.800093 0.800093 0.800093 0.800093 0.800093 0.800093 0.800093 0.800093 0.800093 0.800093 0.800093 0.800093
          0.800093 0.800097 0.810653 0.8 0.800094 0.800093 0.800093 0.800093 0.800093 0.800093 0.800093 0.800093
          0.800093 0.800093 0.800093 0.800093 0.800093 0.800093 0.800093 0.800093 0.800093 0.800093 0.800097 0.810653
          0.8 0.800094 0.800093 0.800093 0.800093 0.800093 0.800093 0.800093 0.800093 0.800093 0.800093 0.800093
          0.800093 0.800093 0.800093 0.800093 0.800093 0.800093 0.800093 0.800097 0.810653 0.8 0.800094 0.800093
          0.800093 0.800093 0.800093 0.800093 0.800093 0.800093 0.800093 0.800093 0.800093 0.800093 0.800093 0.800093
          0.800093 0.800093 0.800093 0.800093 0.800097 0.810653 0.8 0.800094 0.800093 0.800093 0.800093 0.800093
          0.800093 0.800093 0.800093 0.800093 0.800093 0.800093 0.800093 0.800093 0.800093 0.800093 0.800093 0.800093
          0.800093 0.800097 0.810653 0.8 0.800094 0.800093 0.800093 0.800093 0.800093 0.800093 0.800093 0.800093
          0.800093 0.800093 0.800093 0.800093 0.800093 0.800093 0.800093 0.800093 0.800093 0.800093 0.800097 0.810653
          0.8 0.800094 0.800093 0.800093 0.800093 0.800093 0.800093 0.800093 0.800093 0.800093 0.800093 0.800093
          0.800093 0.800093 0.800093 0.800093 0.800093 0.800093 0.800093 0.800097 0.810653 0.8 0.800094 0.800093
          0.800093 0.800093 0.800093 0.800093 0.800093 0.800093 0.800093 0.800093 0.800093 0.800093 0.800093 0.800093
          0.800093 0.800093 0.800093 0.800093 0.800097 0.810653 0.8 0.800094 0.800093 0.800093 0.800093 0.800093
          0.800093 0.800093 0.800093 0.800093 0.800093 0.800093 0.800093 0.800093 0.800093 0.800093 0.800093 0.800093
          0.800093 0.800097 0.810653
        </DataArray>
        <DataArray type="Float32" Name="p_gas" NumberOfComponents="1" format="ascii">
          250000 250004 250000 250004 250008 250008 250011 250011 250014 250014 250018 250018
          250020 250020 250023 250023 250026 250026 250028 250028 250030 250030 250032 250032
          250033 250033 250035 250035 250036 250036 250037 250037 250038 250038 250038 250038
          250039 250039 250039 250039 250039 250039 250000 250004 250008 250011 250014 250018
          250020 250023 250026 250028 250030 250032 250033 250035 250036 250037 250038 250038
          250039 250039 250039 250000 250004 250008 250011 250014 250018 250020 250023 250026
          250028 250030 250032 250033 250035 250036 250037 250038 250038 250039 250039 250039
          250000 250004 250008 250011 250014 250018 250020 250023 250026 250028 250030 250032
          250033 250035 250036 250037 250038 250038 250039 250039 250039 250000 250004 250008
          250011 250014 250018 250020 250023 250026 250028 250030 250032 250033 250035 250036
          250037 250038 250038 250039 250039 250039 250000 250004 250008 250011 250014 250018
          250020 250023 250026 250028 250030 250032 250033 250035 250036 250037 250038 250038
          250039 250039 250039 250000 250004 250008 250011 250014 250018 250020 250023 250026
          250028 250030 250032 250033 250035 250036 250037 250038 250038 250039 250039 250039
          250000 250004 250008 250011 250014 250018 250020 250023 250026 250028 250030 250032
          250033 250035 250036 250037 250038 250038 250039 250039 250039 250000 250004 250008
          250011 250014 250018 250020 250023 250026 250028 250030 250032 250033 250035 250036
          250037 250038 250038 250039 250039 250039 250000 250004 250008 250011 250014 250018
          250020 250023 250026 250028 250030 250032 250033 250035 250036 250037 250038 250038
          250039 250039 250039
        </DataArray>
        <DataArray type="Float32" Name="rho_gas" NumberOfComponents="1" format="ascii">
          2.90954 2.90665 2.90954 2.90665 2.90669 2.90669 2.90673 2.90673 2.90677 2.90677 2.90681 2.90681
          2.90684 2.90684 2.90687 2.90687 2.9069 2.9069 2.90693 2.90693 2.90695 2.90695 2.90697 2.90697
          2.90699 2.90699 2.90701 2.90701 2.90702 2.90702 2.90703 2.90703 2.90704 2.90704 2.90705 2.90705
          2.90706 2.90706 2.90765 2.90765 2.94967 2.94967 2.90954 2.90665 2.90669 2.90673 2.90677 2.90681
          2.90684 2.90687 2.9069 2.90693 2.90695 2.90697 2.90699 2.90701 2.90702 2.90703 2.90704 2.90705
          2.90706 2.90765 2.94967 2.90954 2.90665 2.90669 2.90673 2.90677 2.90681 2.90684 2.90687 2.9069
          2.90693 2.90695 2.90697 2.90699 2.90701 2.90702 2.90703 2.90704 2.90705 2.90706 2.90765 2.94967
          2.90954 2.90665 2.90669 2.90673 2.90677 2.90681 2.90684 2.90687 2.9069 2.90693 2.90695 2.90697
          2.90699 2.90701 2.90702 2.90703 2.90704 2.90705 2.90706 2.90765 2.94967 2.90954 2.90665 2.90669
          2.90673 2.90677 2.90681 2.90684 2.90687 2.9069 2.90693 2.90695 2.90697 2.90699 2.90701 2.90702
          2.90703 2.90704 2.90705 2.90706 2.90765 2.94967 2.90954 2.90665 2.90669 2.90673 2.90677 2.90681
          2.90684 2.90687 2.9069 2.90693 2.90695 2.90697 2.90699 2.90701 2.90702 2.90703 2.90704 2.90705
          2.90706 2.90765 2.94967 2.90954 2.90665 2.90669 2.90673 2.90677 2.90681 2.90684 2.90687 2.9069
          2.90693 2.90695 2.90697 2.90699 2.90701 2.90702 2.90703 2.90704 2.90705 2.90706 2.90765 2.94967
          2.90954 2.90665 2.90669 2.90673 2.90677 2.90681 2.90684 2.90687 2.9069 2.90693 2.90695 2.90697
          2.90699 2.90701 2.90702 2.90703 2.90704 2.90705 2.90706 2.90765 2.94967 2.90954 2.90665 2.90669
          2.90673 2.90677 2.90681 2.90684 2.90687 2.9069 2.90693 2.90695 2.90697 2.90699 2.90701 2.90702
          2.90703 2.90704 2.90705 2.90706 2.90765 2.94967 2.90954 2.90665 2.90669 2.90673 2.90677 2.90681
          2.90684 2.90687 2.9069 2.90693 2.90695 2.90697 2.90699 2.90701 2.90702 2.90703 2.90704 2.90705
          2.90706 2.90765 2.94967
        </DataArray>
        <DataArray type="Float32" Name="mob_gas" NumberOfComponents="1" format="ascii">
          54216.3 54216.5 54216.3 54216.5 54216.6 54216.6 54216.5 54216.5 54216.5 54216.5 54216.5 54216.5
          54216.5 54216.5 54216.5 54216.5 54216.5 54216.5 54216.5 54216.5 54216.5 54216.5 54216.5 54216.5
          54216.5 54216.5 54216.5 54216.5 54216.5 54216.5 54216.5 54216.5 54216.5 54216.5 54216.5 54216.5
          54216.6 54216.6 54224.6 54224.6 54771.4 54771.4 54216.3 54216.5 54216.6 54216.5 54216.5 54216.5
          54216.5 54216.5 54216.5 54216.5 54216.5 54216.5 54216.5 54216.5 54216.5 54216.5 54216.5 54216.5
          54216.6 54224.6 54771.4 54216.3 54216.5 54216.6 54216.5 54216.5 54216.5 54216.5 54216.5 54216.5
          54216.5 54216.5 54216.5 54216.5 54216.5 54216.5 54216.5 54216.5 54216.5 54216.6 54224.6 54771.4
          54216.3 54216.5 54216.6 54216.5 54216.5 54216.5 54216.5 54216.5 54216.5 54216.5 54216.5 54216.5
          54216.5 54216.5 54216.5 54216.5 54216.5 54216.5 54216.6 54224.6 54771.4 54216.3 54216.5 54216.6
          54216.5 54216.5 54216.5 54216.5 54216.5 54216.5 54216.5 54216.5 54216.5 54216.5 54216.5 54216.5
          54216.5 54216.5 54216.5 54216.6 54224.6 54771.4 54216.3 54216.5 54216.6 54216.5 54216.5 54216.5
          54216.5 54216.5 54216.5 54216.5 54216.5 54216.5 54216.5 54216.5 54216.5 54216.5 54216.5 54216.5
          54216.6 54224.6 54771.4 54216.3 54216.5 54216.6 54216.5 54216.5 54216.5 54216.5 54216.5 54216.5
          54216.5 54216.5 54216.5 54216.5 54216.5 54216.5 54216.5 54216.5 54216.5 54216.6 54224.6 54771.4
          54216.3 54216.5 54216.6 54216.5 54216.5 54216.5 54216.5 54216.5 54216.5 54216.5 54216.5 54216.5
          54216.5 54216.5 54216.5 54216.5 54216.5 54216.5 54216.6 54224.6 54771.4 54216.3 54216.5 54216.6
          54216.5 54216.5 54216.5 54216.5 54216.5 54216.5 54216.5 54216.5 54216.5 54216.5 54216.5 54216.5
          54216.5 54216.5 54216.5 54216.6 54224.6 54771.4 54216.3 54216.5 54216.6 54216.5 54216.5 54216.5
          54216.5 54216.5 54216.5 54216.5 54216.5 54216.5 54216.5 54216.5 54216.5 54216.5 54216.5 54216.5
          54216.6 54224.6 54771.4
        </DataArray>
        <DataArray type="Float32" Name="pc" NumberOfComponents="1" format="ascii">
          150000 150668 150000 150668 150663 150663 150663 150663 150663 150663 150663 150663
          150663 150663 150663 150663 150663 150663 150663 150663 150663 150663 150663 150663
          150663 150663 150663 150663 150663 150663 150663 150663 150663 150663 150663 150663
          150663 150663 150690 150690 226091 226091 150000 150668 150663 150663 150663 150663
          150663 150663 150663 150663 150663 150663 150663 150663 150663 150663 150663 150663
          150663 150690 226091 150000 150668 150663 150663 150663 150663 150663 150663 150663
          150663 150663 150663 150663 150663 150663 150663 150663 150663 150663 150690 226091
          150000 150668 150663 150663 150663 150663 150663 150663 150663 150663 150663 150663
          150663 150663 150663 150663 150663 150663 150663 150690 226091 150000 150668 150663
          150663 150663 150663 150663 150663 150663 150663 150663 150663 150663 150663 150663
          150663 150663 150663 150663 150690 226091 150000 150668 150663 150663 150663 150663
          150663 150663 150663 150663 150663 150663 150663 150663 150663 150663 150663 150663
          150663 150690 226091 150000 150668 150663 150663 150663 150663 150663 150663 150663
          150663 150663 150663 150663 150663 150663 150663 150663 150663 150663 150690 226091
          150000 150668 150663 150663 150663 150663 150663 150663 150663 150663 150663 150663
          150663 150663 150663 150663 150663 150663 150663 150690 226091 150000 150668 150663
          150663 150663 150663 150663 150663 150663 150663 150663 150663 150663 150663 150663
          150663 150663 150663 150663 150690 226091 150000 150668 150663 150663 150663 150663
          150663 150663 150663 150663 150663 150663 150663 150663 150663 150663 150663 150663
          150663 150690 226091
        </DataArray>
        <DataArray type="Float32" Name="porosity" NumberOfComponents="1" format="ascii">
          0.4 0.4 0.4 0.4 0.4 0.4 0.4 0.4 0.4 0.4 0.4 0.4
          0.4 0.4 0.4 0.4 0.4 0.4 0.4 0.4 0.4 0.4 0.4 0.4
          0.4 0.4 0.4 0.4 0.4 0.4 0.4 0.4 0.4 0.4 0.4 0.4
          0.4 0.4 0.4 0.4 0.4 0.4 0.4 0.4 0.4 0.4 0.4 0.4
          0.4 0.4 0.4 0.4 0.4 0.4 0.4 0.4 0.4 0.4 0.4 0.4
          0.4 0.4 0.4 0.4 0.4 0.4 0.4 0.4 0.4 0.4 0.4 0.4
          0.4 0.4 0.4 0.4 0.4 0.4 0.4 0.4 0.4 0.4 0.4 0.4
          0.4 0.4 0.4 0.4 0.4 0.4 0.4 0.4 0.4 0.4 0.4 0.4
          0.4 0.4 0.4 0.4 0.4 0.4 0.4 0.4 0.4 0.4 0.4 0.4
          0.4 0.4 0.4 0.4 0.4 0.4 0.4 0.4 0.4 0.4 0.4 0.4
          0.4 0.4 0.4 0.4 0.4 0.4 0.4 0.4 0.4 0.4 0.4 0.4
          0.4 0.4 0.4 0.4 0.4 0.4 0.4 0.4 0.4 0.4 0.4 0.4
          0.4 0.4 0.4 0.4 0.4 0.4 0.4 0.4 0.4 0.4 0.4 0.4
          0.4 0.4 0.4 0.4 0.4 0.4 0.4 0.4 0.4 0.4 0.4 0.4
          0.4 0.4 0.4 0.4 0.4 0.4 0.4 0.4 0.4 0.4 0.4 0.4
          0.4 0.4 0.4 0.4 0.4 0.4 0.4 0.4 0.4 0.4 0.4 0.4
          0.4 0.4 0.4 0.4 0.4 0.4 0.4 0.4 0.4 0.4 0.4 0.4
          0.4 0.4 0.4 0.4 0.4 0.4 0.4 0.4 0.4 0.4 0.4 0.4
          0.4 0.4 0.4 0.4 0.4 0.4 0.4 0.4 0.4 0.4 0.4 0.4
          0.4 0.4 0.4
        </DataArray>
        <DataArray type="Float32" Name="x^H2O_liq" NumberOfComponents="1" format="ascii">
          0.9995 0.999939 0.9995 0.999939 0.999939 0.999939 0.999939 0.999939 0.999939 0.999939 0.999939 0.999939
          0.999939 0.999939 0.999939 0.999939 0.999939 0.999939 0.999939 0.999939 0.999939 0.999939 0.999939 0.999939
          0.999939 0.999939 0.999939 0.999939 0.999939 0.999939 0.999939 0.999939 0.999939 0.999939 0.999939 0.999939
          0.999939 0.999939 0.999939 0.999939 0.999933 0.999933 0.9995 0.999939 0.999939 0.999939 0.999939 0.999939
          0.999939 0.999939 0.999939 0.999939 0.999939 0.999939 0.999939 0.999939 0.999939 0.999939 0.999939 0.999939
          0.999939 0.999939 0.999933 0.9995 0.999939 0.999939 0.999939 0.999939 0.999939 0.999939 0.999939 0.999939
          0.999939 0.999939 0.999939 0.999939 0.999939 0.999939 0.999939 0.999939 0.999939 0.999939 0.999939 0.999933
          0.9995 0.999939 0.999939 0.999939 0.999939 0.999939 0.999939 0.999939 0.999939 0.999939 0.999939 0.999939
          0.999939 0.999939 0.999939 0.999939 0.999939 0.999939 0.999939 0.999939 0.999933 0.9995 0.999939 0.999939
          0.999939 0.999939 0.999939 0.999939 0.999939 0.999939 0.999939 0.999939 0.999939 0.999939 0.999939 0.999939
          0.999939 0.999939 0.999939 0.999939 0.999939 0.999933 0.9995 0.999939 0.999939 0.999939 0.999939 0.999939
          0.999939 0.999939 0.999939 0.999939 0.999939 0.999939 0.999939 0.999939 0.999939 0.999939 0.999939 0.999939
          0.999939 0.999939 0.999933 0.9995 0.999939 0.999939 0.999939 0.999939 0.999939 0.999939 0.999939 0.999939
          0.999939 0.999939 0.999939 0.999939 0.999939 0.999939 0.999939 0.999939 0.999939 0.999939 0.999939 0.999933
          0.9995 0.999939 0.999939 0.999939 0.999939 0.999939 0.999939 0.999939 0.999939 0.999939 0.999939 0.999939
          0.999939 0.999939 0.999939 0.999939 0.999939 0.999939 0.999939 0.999939 0.999933 0.9995 0.999939 0.999939
          0.999939 0.999939 0.999939 0.999939 0.999939 0.999939 0.999939 0.999939 0.999939 0.999939 0.999939 0.999939
          0.999939 0.999939 0.999939 0.999939 0.999939 0.999933 0.9995 0.999939 0.999939 0.999939 0.999939 0.999939
          0.999939 0.999939 0.999939 0.999939 0.999939 0.999939 0.999939 0.999939 0.999939 0.999939 0.999939 0.999939
          0.999939 0.999939 0.999933
        </DataArray>
        <DataArray type="Float32" Name="X^H2O_liq" NumberOfComponents="1" format="ascii">
          0.999196 0.999901 0.999196 0.999901 0.999901 0.999901 0.999901 0.999901 0.999901 0.999901 0.999901 0.999901
          0.999901 0.999901 0.999901 0.999901 0.999901 0.999901 0.999901 0.999901 0.999901 0.999901 0.999901 0.999901
          0.999901 0.999901 0.999901 0.999901 0.999901 0.999901 0.999901 0.999901 0.999901 0.999901 0.999901 0.999901
          0.999901 0.999901 0.999901 0.999901 0.999892 0.999892 0.999196 0.999901 0.999901 0.999901 0.999901 0.999901
          0.999901 0.999901 0.999901 0.999901 0.999901 0.999901 0.999901 0.999901 0.999901 0.999901 0.999901 0.999901
          0.999901 0.999901 0.999892 0.999196 0.999901 0.999901 0.999901 0.999901 0.999901 0.999901 0.999901 0.999901
          0.999901 0.999901 0.999901 0.999901 0.999901 0.999901 0.999901 0.999901 0.999901 0.999901 0.999901 0.999892
          0.999196 0.999901 0.999901 0.999901 0.999901 0.999901 0.999901 0.999901 0.999901 0.999901 0.999901 0.999901
          0.999901 0.999901 0.999901 0.999901 0.999901 0.999901 0.999901 0.999901 0.999892 0.999196 0.999901 0.999901
          0.999901 0.999901 0.999901 0.999901 0.999901 0.999901 0.999901 0.999901 0.999901 0.999901 0.999901 0.999901
          0.999901 0.999901 0.999901 0.999901 0.999901 0.999892 0.999196 0.999901 0.999901 0.999901 0.999901 0.999901
          0.999901 0.999901 0.999901 0.999901 0.999901 0.999901 0.999901 0.999901 0.999901 0.999901 0.999901 0.999901
          0.999901 0.999901 0.999892 0.999196 0.999901 0.999901 0.999901 0.999901 0.999901 0.999901 0.999901 0.999901
          0.999901 0.999901 0.999901 0.999901 0.999901 0.999901 0.999901 0.999901 0.999901 0.999901 0.999901 0.999892
          0.999196 0.999901 0.999901 0.999901 0.999901 0.999901 0.999901 0.999901 0.999901 0.999901 0.999901 0.999901
          0.999901 0.999901 0.999901 0.999901 0.999901 0.999901 0.999901 0.999901 0.999892 0.999196 0.999901 0.999901
          0.999901 0.999901 0.999901 0.999901 0.999901 0.999901 0.999901 0.999901 0.999901 0.999901 0.999901 0.999901
          0.999901 0.999901 0.999901 0.999901 0.999901 0.999892 0.999196 0.999901 0.999901 0.999901 0.999901 0.999901
          0.999901 0.999901 0.999901 0.999901 0.999901 0.999901 0.999901 0.999901 0.999901 0.999901 0.999901 0.999901
          0.999901 0.999901 0.999892
        </DataArray>
        <DataArray type="Float32" Name="x^Air_liq" NumberOfComponents="1" format="ascii">
          0.0005 6.13291e-05 0.0005 6.13291e-05 6.133e-05 6.133e-05 6.13311e-05 6.13311e-05 6.13322e-05 6.13322e-05 6.13332e-05 6.13332e-05
          6.13342e-05 6.13342e-05 6.1335e-05 6.1335e-05 6.13358e-05 6.13358e-05 6.13366e-05 6.13366e-05 6.13373e-05 6.13373e-05 6.13379e-05 6.13379e-05
          6.13384e-05 6.13384e-05 6.13389e-05 6.13389e-05 6.13393e-05 6.13393e-05 6.13396e-05 6.13396e-05 6.13399e-05 6.13399e-05 6.13401e-05 6.13401e-05
          6.13405e-05 6.13405e-05 6.13671e-05 6.13671e-05 6.70486e-05 6.70486e-05 0.0005 6.13291e-05 6.133e-05 6.13311e-05 6.13322e-05 6.13332e-05
          6.13342e-05 6.1335e-05 6.13358e-05 6.13366e-05 6.13373e-05 6.13379e-05 6.13384e-05 6.13389e-05 6.13393e-05 6.13396e-05 6.13399e-05 6.13401e-05
          6.13405e-05 6.13671e-05 6.70486e-05 0.0005 6.13291e-05 6.133e-05 6.13311e-05 6.13322e-05 6.13332e-05 6.13342e-05 6.1335e-05 6.13358e-05
          6.13366e-05 6.13373e-05 6.13379e-05 6.13384e-05 6.13389e-05 6.13393e-05 6.13396e-05 6.13399e-05 6.13401e-05 6.13405e-05 6.13671e-05 6.70486e-05
          0.0005 6.13291e-05 6.133e-05 6.13311e-05 6.13322e-05 6.13332e-05 6.13342e-05 6.1335e-05 6.13358e-05 6.13366e-05 6.13373e-05 6.13379e-05
          6.13384e-05 6.13389e-05 6.13393e-05 6.13396e-05 6.13399e-05 6.13401e-05 6.13405e-05 6.13671e-05 6.70486e-05 0.0005 6.13291e-05 6.133e-05
          6.13311e-05 6.13322e-05 6.13332e-05 6.13342e-05 6.1335e-05 6.13358e-05 6.13366e-05 6.13373e-05 6.13379e-05 6.13384e-05 6.13389e-05 6.13393e-05
          6.13396e-05 6.13399e-05 6.13401e-05 6.13405e-05 6.13671e-05 6.70486e-05 0.0005 6.13291e-05 6.133e-05 6.13311e-05 6.13322e-05 6.13332e-05
          6.13342e-05 6.1335e-05 6.13358e-05 6.13366e-05 6.13373e-05 6.13379e-05 6.13384e-05 6.13389e-05 6.13393e-05 6.13396e-05 6.13399e-05 6.13401e-05
          6.13405e-05 6.13671e-05 6.70486e-05 0.0005 6.13291e-05 6.133e-05 6.13311e-05 6.13322e-05 6.13332e-05 6.13342e-05 6.1335e-05 6.13358e-05
          6.13366e-05 6.13373e-05 6.13379e-05 6.13384e-05 6.13389e-05 6.13393e-05 6.13396e-05 6.13399e-05 6.13401e-05 6.13405e-05 6.13671e-05 6.70486e-05
          0.0005 6.13291e-05 6.133e-05 6.13311e-05 6.13322e-05 6.13332e-05 6.13342e-05 6.1335e-05 6.13358e-05 6.13366e-05 6.13373e-05 6.13379e-05
          6.13384e-05 6.13389e-05 6.13393e-05 6.13396e-05 6.13399e-05 6.13401e-05 6.13405e-05 6.13671e-05 6.70486e-05 0.0005 6.13291e-05 6.133e-05
          6.13311e-05 6.13322e-05 6.13332e-05 6.13342e-05 6.1335e-05 6.13358e-05 6.13366e-05 6.13373e-05 6.13379e-05 6.13384e-05 6.13389e-05 6.13393e-05
          6.13396e-05 6.13399e-05 6.13401e-05 6.13405e-05 6.13671e-05 6.70486e-05 0.0005 6.13291e-05 6.133e-05 6.13311e-05 6.13322e-05 6.13332e-05
          6.13342e-05 6.1335e-05 6.13358e-05 6.13366e-05 6.13373e-05 6.13379e-05 6.13384e-05 6.13389e-05 6.13393e-05 6.13396e-05 6.13399e-05 6.13401e-05
          6.13405e-05 6.13671e-05 6.70486e-05
        </DataArray>
        <DataArray type="Float32" Name="X^Air_liq" NumberOfComponents="1" format="ascii">
          0.000803523 9.85849e-05 0.000803523 9.85849e-05 9.85863e-05 9.85863e-05 9.85882e-05 9.85882e-05 9.85899e-05 9.85899e-05 9.85915e-05 9.85915e-05
          9.8593e-05 9.8593e-05 9.85944e-05 9.85944e-05 9.85957e-05 9.85957e-05 9.85969e-05 9.85969e-05 9.8598e-05 9.8598e-05 9.8599e-05 9.8599e-05
          9.85999e-05 9.85999e-05 9.86006e-05 9.86006e-05 9.86013e-05 9.86013e-05 9.86018e-05 9.86018e-05 9.86023e-05 9.86023e-05 9.86026e-05 9.86026e-05
          9.86033e-05 9.86033e-05 9.8646e-05 9.8646e-05 0.000107779 0.000107779 0.000803523 9.85849e-05 9.85863e-05 9.85882e-05 9.85899e-05 9.85915e-05
          9.8593e-05 9.85944e-05 9.85957e-05 9.85969e-05 9.8598e-05 9.8599e-05 9.85999e-05 9.86006e-05 9.86013e-05 9.86018e-05 9.86023e-05 9.86026e-05
          9.86033e-05 9.8646e-05 0.000107779 0.000803523 9.85849e-05 9.85863e-05 9.85882e-05 9.85899e-05 9.85915e-05 9.8593e-05 9.85944e-05 9.85957e-05
          9.85969e-05 9.8598e-05 9.8599e-05 9.85999e-05 9.86006e-05 9.86013e-05 9.86018e-05 9.86023e-05 9.86026e-05 9.86033e-05 9.8646e-05 0.000107779
          0.000803523 9.85849e-05 9.85863e-05 9.85882e-05 9.85899e-05 9.85915e-05 9.8593e-05 9.85944e-05 9.85957e-05 9.85969e-05 9.8598e-05 9.8599e-05
          9.85999e-05 9.86006e-05 9.86013e-05 9.86018e-05 9.86023e-05 9.86026e-05 9.86033e-05 9.8646e-05 0.000107779 0.000803523 9.85849e-05 9.85863e-05
          9.85882e-05 9.85899e-05 9.85915e-05 9.8593e-05 9.85944e-05 9.85957e-05 9.85969e-05 9.8598e-05 9.8599e-05 9.85999e-05 9.86006e-05 9.86013e-05
          9.86018e-05 9.86023e-05 9.86026e-05 9.86033e-05 9.8646e-05 0.000107779 0.000803523 9.85849e-05 9.85863e-05 9.85882e-05 9.85899e-05 9.85915e-05
          9.8593e-05 9.85944e-05 9.85957e-05 9.85969e-05 9.8598e-05 9.8599e-05 9.85999e-05 9.86006e-05 9.86013e-05 9.86018e-05 9.86023e-05 9.86026e-05
          9.86033e-05 9.8646e-05 0.000107779 0.000803523 9.85849e-05 9.85863e-05 9.85882e-05 9.85899e-05 9.85915e-05 9.8593e-05 9.85944e-05 9.85957e-05
          9.85969e-05 9.8598e-05 9.8599e-05 9.85999e-05 9.86006e-05 9.86013e-05 9.86018e-05 9.86023e-05 9.86026e-05 9.86033e-05 9.8646e-05 0.000107779
          0.000803523 9.85849e-05 9.85863e-05 9.85882e-05 9.85899e-05 9.85915e-05 9.8593e-05 9.85944e-05 9.85957e-05 9.85969e-05 9.8598e-05 9.8599e-05
          9.85999e-05 9.86006e-05 9.86013e-05 9.86018e-05 9.86023e-05 9.86026e-05 9.86033e-05 9.8646e-05 0.000107779 0.000803523 9.85849e-05 9.85863e-05
          9.85882e-05 9.85899e-05 9.85915e-05 9.8593e-05 9.85944e-05 9.85957e-05 9.85969e-05 9.8598e-05 9.8599e-05 9.85999e-05 9.86006e-05 9.86013e-05
          9.86018e-05 9.86023e-05 9.86026e-05 9.86033e-05 9.8646e-05 0.000107779 0.000803523 9.85849e-05 9.85863e-05 9.85882e-05 9.85899e-05 9.85915e-05
          9.8593e-05 9.85944e-05 9.85957e-05 9.85969e-05 9.8598e-05 9.8599e-05 9.85999e-05 9.86006e-05 9.86013e-05 9.86018e-05 9.86023e-05 9.86026e-05