<?xml version="1.0"?>
<VTKFile type="UnstructuredGrid" version="0.1" byte_order="LittleEndian">
  <UnstructuredGrid>
    <Piece NumberOfCells="1000" NumberOfPoints="1331">
      <CellData Scalars="wetting pressure">
        <DataArray type="Float32" Name="wetting pressure" NumberOfComponents="1" format="ascii">
          265546 270750 272320 271366 268374 263504 256699 247723 236070 220666 265552 270772
          272362 271437 268484 263655 256870 247879 236177 220703 265561 270804 272427 271551
          268665 263932 257196 248188 236386 220775 265569 270829 272480 271650 268808 264247
          257618 248627 236674 220869 265568 270829 272487 271669 268816 264217 257900 249131
          236924 220935 265557 270795 272427 271582 268730 264178 257560 248576 236638 220856
          265538 270735 272317 271410 268506 263769 257048 248065 236304 220746 265516 270665
          272191 271213 268223 263382 256613 247667 236036 220654 265497 270607 272086 271052
          268000 263101 256313 247401 235856 220591 265487 270574 272028 270964 267880 262957
          256163 247270 235767 220560 261995 264557 264994 263525 260335 255479 248893 240437
          229905 217126 262003 264582 265046 263617 260480 255680 249113 240632 230037 217171
          262014 264622 265129 263770 260742 256087 249567 241043 230311 217263 262024 264655
          265202 263913 260957 256671 250268 241718 230755 217398 262024 264659 265221 263982
          261197 256745 250568 242595 231435 217529 262012 264620 265147 263843 260875 256573
          250238 241677 230722 217385 261990 264550 265015 263624 260582 255924 249425 240923
          230229 217234 261965 264471 264867 263381 260208 255395 248847 240412 229890 217120
          261944 264405 264746 263190 259934 255048 248481 240094 229678 217047 261932 264368
          264679 263088 259794 254877 248304 239941 229576 217011 260243 260462 259525 257315
          253816 248983 242740 235031 225858 215391 260253 260495 259594 257442 254026 249267
          243038 235285 226025 215448 260268 260548 259709 257667 254447 249892 243695 235845
          226383 215565 260281 260594 259816 257895 254872 250830 244862 236839 226994 215745
          260282 260603 259853 258026 255352 251142 245399 238159 227977 215931 260268 260556
          259758 257827 254814 250793 244885 236820 226967 215733 260241 260470 259586 257514
          254292 249744 243572 235733 226302 215536 260212 260373 259398 257185 253732 248963
          242757 235052 225868 215393 260187 260293 259248 256941 253368 248501 242280 234649
          225606 215303 260173 260249 259166 256813 253189 248284 242058 234462 225483 215261
          259126 257491 255258 252268 248422 243614 237754 230834 222939 214293 259138 257533
          255348 252435 248703 243985 238128 231143 223136 214360 259158 257601 255498 252740
          249300 244831 238966 231824 223559 214497 259174 257661 255641 253057 249952 246084
          240479 233025 224264 214703 259177 257675 255693 253225 250515 246477 241142 234515
          225324 214908 259160 257620 255578 252982 249887 246027 240740 233061 224249 214693
          259128 257515 255363 252573 249135 244682 238890 231728 223480 214467 259092 257396
          255128 252148 248375 243650 237829 230891 222966 214299 259062 257299 254943 251840
          247910 243064 237233 230404 222655 214194 259045 257246 254844 251683 247687 242795
          236962 230179 222510 214144 258261 255074 251659 247910 243712 238928 233455 227303
          220574 213448 258276 255126 251768 248113 244050 239366 233886 227652 220793 213521
          258300 255208 251951 248482 244774 240363 234839 228407 221252 213669 258320 255281
          252124 248864 245568 241801 236513 229693 221982 213882 258324 255300 252185 249050
          246144 242202 237244 231230 222980 214080 258304 255235 252054 248780 245493 241713
          236990 229770 221972 213873 258267 255111 251799 248295 244590 240199 234790 228312
          221167 213636 258224 254971 251519 247787 243679 238988 233554 227372 220602 213453
          258188 254855 251299 247419 243124 238298 232861 226815 220253 213336 258169 254792
          251180 247231 242858 237981 232545 226556 220087 213279 257470 252833 248288 243797
          239253 234492 229403 224002 218387 212676 257487 252894 248415 244031 239637 234982
          229879 224382 218623 212754 257515 252991 248626 244451 240440 236071 230902 225181
          219101 212908 257538 253076 248824 244876 241300 237581 232619 226482 219820 213119
          257543 253097 248891 245073 241881 237991 233361 228004 220699 213298 257521 253024
          248745 244783 241218 237502 232900 226512 219797 213106 257478 252882 248455 244240
          240232 235879 230788 225050 218998 212869 257428 252719 248132 243660 239213 234548
          229488 224056 218404 212677 257386 252584 247875 243235 238578 233770 228723 223445
          218023 212549 257363 252510 247737 243016 238271 233407 228366 223156 217839 212487
          256613 250442 244734 239505 234627 229897 225188 220537 216062 211844 256634 250513
          244883 239776 235065 230450 225720 220957 216320 211929 256666 250625 245126 240251
          235950 231632 226822 221811 216826 212091 256693 250723 245349 240719 236857 233186
          228566 223127 217536 212301 256699 250748 245424 240928 237449 233616 229313 224633
          218293 212461 256674 250666 245261 240616 236768 233114 228573 223093 217496 212284
          256625 250504 244935 240014 235714 231405 226623 221634 216700 212046 256567 250316
          244564 239357 234584 229951 225259 220578 216069 211841 256519 250160 244265 238864
          233854 229069 224407 219901 215648 211700 256492 250073 244103 238608 233496 228649
          224000 219573 215441 211630 255511 247517 240554 234594 229415 224731 220386 216477
          213224 210772 255535 247602 240732 234922 229951 225403 221024 216973 213523 210870
          255573 247734 241020 235486 230991 226776 222302 217957 214097 211053 255605 247848
          241280 236022 231993 228427 224160 219377 214851 211276 255612 247878 241367 236256
          232625 228905 224953 220915 215525 211427 255583 247786 241184 235909 231898 228350
          224176 219347 214810 211259 255527 247600 240810 235226 230732 226526 222082 217764
          213959 211003 255462 247383 240378 234455 229413 224844 220506 216549 213243 210772
          255406 247201 240026 233867 228534 223784 219494 215754 212756 210611 255374 247100
          239835 233559 228100 223275 219007 215367 212515 210529 253775 243478 235195 228571
          223176 218555 214509 211266 209287 209072 253804 243578 235413 228996 223911 219485
          215361 211903 209656 209190 253848 243735 235764 229711 225290 221328 217073 213184
          210370 209412 253885 243869 236075 230364 226524 223192 219256 214994 211296 209681
          253894 243906 236182 230649 227278 223787 220138 216508 211996 209847 253863 243803
          235973 230246 226425 223086 219596 215056 211277 209668 253799 243592 235539 229434
          225019 221070 216902 213012 210237 209362 253725 243342 235029 228489 223334 218887
          214809 211449 209356 209085 253661 243132 234613 227762 222185 217487 213507 210460
          208768 208894 253625 243015 234387 227387 221635 216838 212899 209989 208481 208798
          250237 237326 227956 220899 215428 210877 206977 204157 203215 205560 250269 237439
          228215 221447 216568 212356 208175 204980 203664 205700 250318 237616 228629 222367
          218646 215477 211008 206811 204578 205970 250359 237768 228992 223175 220389 217437
          213914 210101 205885 206314 250369 237811 229120 223536 221458 218363 214794 211219
          206935 206536 250335 237699 228887 223054 220291 217352 213870 210314 205899 206306
          250267 237468 228397 222084 218382 215232 210837 206667 204454 205921 250186 237193
          227815 220924 216008 211781 207604 204511 203353 205591 250117 236962 227340 220034
          214362 209722 205894 203292 202662 205371 250078 236833 227086 219592 213668 208893
          205154 202740 202335 205264
        </DataArray>
        <DataArray type="Float32" Name="nonwetting pressure" NumberOfComponents="1" format="ascii">
          265546 270750 272320 271366 268374 263504 256699 247723 236070 220666 265552 270772
          272362 271437 268484 263655 256870 247879 236177 220703 265561 270804 272427 271551
          268665 263932 257196 248188 236386 220775 265569 270829 272480 271650 268820 264247
          257618 248627 236674 220869 265568 270829 272487 271669 269223 264361 257958 249131
          236924 220935 265557 270795 272427 271582 268746 264178 257560 248576 236638 220856
          265538 270735 272317 271410 268506 263769 257048 248065 236304 220746 265516 270665
          272191 271213 268223 263382 256613 247667 236036 220654 265497 270607 272086 271052
          268000 263101 256313 247401 235856 220591 265487 270574 272028 270964 267880 262957
          256163 247270 235767 220560 261995 264557 264994 263525 260335 255479 248893 240437
          229905 217126 262003 264582 265046 263617 260480 255680 249113 240632 230037 217171
          262014 264622 265129 263770 260742 256087 249567 241043 230311 217263 262024 264655
          265202 263913 261023 256698 250268 241718 230755 217398 262024 264659 265221 263982
          261881 257083 250748 242675 231435 217529 262012 264620 265147 263843 260948 256608
          250238 241677 230722 217385 261990 264550 265015 263624 260582 255924 249425 240923
          230229 217234 261965 264471 264867 263381 260208 255395 248847 240412 229890 217120
          261944 264405 264746 263190 259934 255048 248481 240094 229678 217047 261932 264368
          264679 263088 259794 254877 248304 239941 229576 217011 260243 260462 259525 257315
          253816 248983 242740 235031 225858 215391 260253 260495 259594 257442 254026 249267
          243038 235285 226025 215448 260268 260548 259709 257667 254447 249892 243695 235845
          226383 215565 260281 260594 259816 257895 255010 250912 244862 236839 226994 215745
          260282 260603 259853 258026 256151 251586 245657 238287 227977 215931 260268 260556
          259758 257827 254958 250882 244885 236820 226967 215733 260241 260470 259586 257514
          254292 249744 243572 235733 226302 215536 260212 260373 259398 257185 253732 248963
          242757 235052 225868 215393 260187 260293 259248 256941 253368 248501 242280 234649
          225606 215303 260173 260249 259166 256813 253189 248284 242058 234462 225483 215261
          259126 257491 255258 252268 248422 243614 237754 230834 222939 214293 259138 257533
          255348 252435 248703 243985 238128 231143 223136 214360 259158 257601 255498 252740
          249300 244831 238966 231824 223559 214497 259174 257661 255641 253057 250129 246205
          240479 233025 224264 214703 259177 257675 255693 253225 251341 246952 241426 234656
          225324 214908 259160 257620 255578 252982 250072 246155 240740 233061 224249 214693
          259128 257515 255363 252573 249135 244682 238890 231728 223480 214467 259092 257396
          255128 252148 248375 243650 237829 230891 222966 214299 259062 257299 254943 251840
          247910 243064 237233 230404 222655 214194 259045 257246 254844 251683 247687 242795
          236962 230179 222510 214144 258261 255074 251659 247910 243712 238928 233455 227303
          220574 213448 258276 255126 251768 248113 244050 239366 233886 227652 220793 213521
          258300 255208 251951 248482 244774 240363 234839 228407 221252 213669 258320 255281
          252124 248864 245756 241935 236513 229693 221982 213882 258324 255300 252185 249050
          246969 242681 237530 231365 222980 214080 258304 255235 252054 248780 245687 241856
          236998 229770 221972 213873 258267 255111 251799 248295 244590 240199 234790 228312
          221167 213636 258224 254971 251519 247787 243679 238988 233554 227372 220602 213453
          258188 254855 251299 247419 243124 238298 232861 226815 220253 213336 258169 254792
          251180 247231 242858 237981 232545 226556 220087 213279 257470 252833 248288 243797
          239253 234492 229403 224002 218387 212676 257487 252894 248415 244031 239637 234982
          229879 224382 218623 212754 257515 252991 248626 244451 240440 236071 230902 225181
          219101 212908 257538 253076 248824 244876 241484 237717 232619 226482 219820 213119
          257543 253097 248891 245073 242698 238468 233640 228124 220699 213298 257521 253024
          248745 244783 241409 237646 232901 226512 219797 213106 257478 252882 248455 244240
          240232 235879 230788 225050 218998 212869 257428 252719 248132 243660 239213 234548
          229488 224056 218404 212677 257386 252584 247875 243235 238578 233770 228723 223445
          218023 212549 257363 252510 247737 243016 238271 233407 228366 223156 217839 212487
          256613 250442 244734 239505 234627 229897 225188 220537 216062 211844 256634 250513
          244883 239776 235065 230450 225720 220957 216320 211929 256666 250625 245126 240251
          235950 231632 226822 221811 216826 212091 256693 250723 245349 240719 237036 233321
          228566 223127 217536 212301 256699 250748 245424 240928 238261 234091 229584 224734
          218293 212461 256674 250666 245261 240616 236954 233257 228573 223093 217496 212284
          256625 250504 244935 240014 235714 231405 226623 221634 216700 212046 256567 250316
          244564 239357 234584 229951 225259 220578 216069 211841 256519 250160 244265 238864
          233854 229069 224407 219901 215648 211700 256492 250073 244103 238608 233496 228649
          224000 219573 215441 211630 255511 247517 240554 234594 229415 224731 220386 216477
          213224 210772 255535 247602 240732 234922 229951 225403 221024 216973 213523 210870
          255573 247734 241020 235486 230991 226776 222302 217957 214097 211053 255605 247848
          241280 236022 232171 228564 224160 219377 214851 211276 255612 247878 241367 236256
          233440 229381 225216 220992 215525 211427 255583 247786 241184 235909 232084 228494
          224176 219347 214810 211259 255527 247600 240810 235226 230732 226526 222082 217764
          213959 211003 255462 247383 240378 234455 229413 224844 220506 216549 213243 210772
          255406 247201 240026 233867 228534 223784 219494 215754 212756 210611 255374 247100
          239835 233559 228100 223275 219007 215367 212515 210529 253775 243478 235195 228571
          223176 218555 214509 211266 209287 209072 253804 243578 235413 228996 223911 219485
          215361 211903 209656 209190 253848 243735 235764 229711 225290 221328 217073 213184
          210370 209412 253885 243869 236075 230364 226721 223341 219256 214994 211296 209681
          253894 243906 236182 230649 228131 224280 220406 216573 211996 209847 253863 243803
          235973 230246 226630 223245 219603 215056 211277 209668 253799 243592 235539 229434
          225019 221070 216902 213012 210237 209362 253725 243342 235029 228489 223334 218887
          214809 211449 209356 209085 253661 243132 234613 227762 222185 217487 213507 210460
          208768 208894 253625 243015 234387 227387 221635 216838 212899 209989 208481 208798
          250237 237326 227956 220899 215428 210877 206977 204157 203215 205560 250269 237439
          228215 221447 216568 212356 208175 204980 203664 205700 250318 237616 228629 222367
          218813 215617 211008 206811 204578 205970 250359 237768 228992 223175 220970 217932
          214186 210112 205885 206314 250369 237811 229120 223536 222829 219300 215412 211501
          206935 206536 250335 237699 228887 223054 220884 217858 214150 210332 205899 206306
          250267 237468 228397 222084 218562 215389 210837 206667 204454 205921 250186 237193
          227815 220924 216008 211781 207604 204511 203353 205591 250117 236962 227340 220034
          214362 209722 205894 203292 202662 205371 250078 236833 227086 219592 213668 208893
          205154 202740 202335 205264
        </DataArray>
        <DataArray type="Float32" Name="wetting saturation" NumberOfComponents="1" format="ascii">
          1 1 1 1 1 1 1 1 1 1 1 1
          1 1 1 1 1 1 1 1 1 1 1 1
          1 1 1 1 1 1 1 1 1 1 0.99873 1
          1 1 1 1 1 1 1 1 0.959294 0.985591 0.994214 1
          1 1 1 1 1 1 0.99847 1 1 1 1 1
          1 1 1 1 1 1 1 1 1 1 1 1
          1 1 1 1 1 1 1 1 1 1 1 1
          1 1 1 1 1 1 1 1 1 1 1 1
          1 1 1 1 1 1 1 1 1 1 1 1
          1 1 1 1 1 1 1 1 1 1 1 1
          1 1 1 1 1 1 1 1 1 1 1 1
          1 1 0.99336 0.997267 1 1 1 1 1 1 1 1
          0.931586 0.966186 0.981981 0.991934 1 1 1 1 1 1 0.99269 0.996511
          1 1 1 1 1 1 1 1 1 1 1 1
          1 1 1 1 1 1 1 1 1 1 1 1
          1 1 1 1 1 1 1 1 1 1 1 1
          1 1 1 1 1 1 1 1 1 1 1 1
          1 1 1 1 1 1 1 1 1 1 1 1
          1 1 1 1 1 1 1 1 1 1 1 1
          1 1 1 1 1 1 0.986265 0.991802 1 1 1 1
          1 1 1 1 0.920179 0.955601 0.974129 0.987244 1 1 1 1
          1 1 0.985582 0.991116 1 1 1 1 1 1 1 1
          1 1 1 1 1 1 1 1 1 1 1 1
          1 1 1 1 1 1 1 1 1 1 1 1
          1 1 1 1 1 1 1 1 1 1 1 1
          1 1 1 1 1 1 1 1 1 1 1 1
          1 1 1 1 1 1 1 1 1 1 1 1
          1 1 1 1 1 1 1 1 1 1 0.982231 0.987874
          1 1 1 1 1 1 1 1 0.917416 0.952491 0.971575 0.985896
          1 1 1 1 1 1 0.981551 0.987158 1 1 1 1
          1 1 1 1 1 1 1 1 1 1 1 1
          1 1 1 1 1 1 1 1 1 1 1 1
          1 1 1 1 1 1 1 1 1 1 1 1
          1 1 1 1 1 1 1 1 1 1 1 1
          1 1 1 1 1 1 1 1 1 1 1 1
          1 1 1 1 1 1 1 1 1 1 1 1
          1 1 0.981282 0.986602 1 1 1 1 1 1 1 1
          0.917477 0.952055 0.971446 0.986517 1 1 1 1 1 1 0.980573 0.985708
          0.999193 1 1 1 1 1 1 1 1 1 1 1
          1 1 1 1 1 1 1 1 1 1 1 1
          1 1 1 1 1 1 1 1 1 1 1 1
          1 1 1 1 1 1 1 1 1 1 1 1
          1 1 1 1 1 1 1 1 1 1 1 1
          1 1 1 1 1 1 1 1 1 1 1 1
          1 1 1 1 1 1 0.981593 0.986409 1 1 1 1
          1 1 1 1 0.918229 0.952231 0.972116 0.988003 1 1 1 1
          1 1 0.980852 0.985595 0.999906 1 1 1 1 1 1 1
          1 1 1 1 1 1 1 1 1 1 1 1
          1 1 1 1 1 1 1 1 1 1 1 1
          1 1 1 1 1 1 1 1 1 1 1 1
          1 1 1 1 1 1 1 1 1 1 1 1
          1 1 1 1 1 1 1 1 1 1 1 1
          1 1 1 1 1 1 1 1 1 1 0.982116 0.986462
          1 1 1 1 1 1 1 1 0.918822 0.952437 0.972938 0.989928
          1 1 1 1 1 1 0.981341 0.985729 1 1 1 1
          1 1 1 1 1 1 1 1 1 1 1 1
          1 1 1 1 1 1 1 1 1 1 1 1
          1 1 1 1 1 1 1 1 1 1 1 1
          1 1 1 1 1 1 1 1 1 1 1 1
          1 1 1 1 1 1 1 1 1 1 1 1
          1 1 1 1 1 1 1 1 1 1 1 1
          1 1 0.982193 0.986328 1 1 1 1 1 1 1 1
          0.918558 0.952432 0.973685 0.992308 1 1 1 1 1 1 0.981392 0.98558
          1 1 1 1 1 1 1 1 1 1 1 1
          1 1 1 1 1 1 1 1 1 1 1 1
          1 1 1 1 1 1 1 1 1 1 1 1
          1 1 1 1 1 1 1 1 1 1 1 1
          1 1 1 1 1 1 1 1 1 1 1 1
          1 1 1 1 1 1 1 1 1 1 1 1
          1 1 1 1 1 1 0.980284 0.985028 1 1 1 1
          1 1 1 1 0.914723 0.950649 0.973249 0.993477 1 1 1 1
          1 1 0.979468 0.984057 0.99931 1 1 1 1 1 1 1
          1 1 1 1 1 1 1 1 1 1 1 1
          1 1 1 1 1 1 1 1 1 1 1 1
          1 1 1 1 1 1 1 1 1 1 1 1
          1 1 1 1 1 1 1 1 1 1 1 1
          1 1 1 1 1 1 1 1 1 1 1 1
          0.983341 0.985976 1 1 1 1 1 1 1 1 0.941942 0.950532
          0.972793 0.998969 1 1 1 1 1 1 0.8629 0.906283 0.938151 0.971833
          1 1 1 1 1 1 0.940729 0.949416 0.971948 0.998133 1 1
          1 1 1 1 0.981951 0.984352 1 1 1 1 1 1
          1 1 1 1 1 1 1 1 1 1 1 1
          1 1 1 1 1 1 1 1 1 1 1 1
          1 1 1 1
        </DataArray>
        <DataArray type="Float32" Name="C^w from cellData" NumberOfComponents="1" format="ascii">
          199.956 199.956 199.956 199.956 199.956 199.956 199.955 199.954 199.953 199.952 199.956 199.956
          199.956 199.956 199.956 199.956 199.955 199.954 199.953 199.952 199.956 199.956 199.956 199.956
          199.953 199.956 199.955 199.954 199.953 199.952 199.956 199.956 199.956 199.942 199.327 199.668
          199.926 199.954 199.953 199.952 199.956 199.956 199.956 199.846 191.624 196.792 198.101 199.319
          199.953 199.952 199.956 199.956 199.956 199.94 199.264 199.618 199.921 199.954 199.953 199.952
          199.956 199.956 199.956 199.956 199.949 199.956 199.955 199.954 199.953 199.952 199.956 199.956
          199.956 199.956 199.956 199.956 199.955 199.954 199.953 199.952 199.956 199.956 199.956 199.956
          199.956 199.956 199.955 199.954 199.953 199.952 199.956 199.956 199.957 199.956 199.956 199.956
          199.955 199.954 199.953 199.952 199.956 199.956 199.956 199.956 199.955 199.955 199.954 199.954
          199.953 199.952 199.956 199.956 199.956 199.956 199.955 199.955 199.954 199.954 199.953 199.952
          199.956 199.956 199.956 199.956 199.841 199.95 199.954 199.954 199.953 199.952 199.956 199.956
          199.956 199.926 198.231 198.928 199.67 199.92 199.953 199.952 199.956 199.956 199.956 199.751
          186.477 192.954 195.96 197.563 199.56 199.952 199.956 199.956 199.956 199.926 198.123 198.788
          199.616 199.918 199.953 199.952 199.956 199.956 199.956 199.956 199.806 199.945 199.954 199.954
          199.953 199.952 199.956 199.956 199.956 199.956 199.955 199.955 199.954 199.954 199.953 199.952
          199.956 199.956 199.956 199.956 199.955 199.955 199.954 199.954 199.953 199.952 199.956 199.956
          199.956 199.956 199.955 199.955 199.954 199.954 199.953 199.952 199.955 199.955 199.955 199.955
          199.955 199.954 199.954 199.953 199.952 199.951 199.955 199.955 199.955 199.955 199.955 199.954
          199.954 199.953 199.952 199.951 199.955 199.955 199.955 199.955 199.64 199.867 199.954 199.953
          199.952 199.951 199.955 199.955 199.955 199.926 196.841 197.623 199.171 199.836 199.952 199.951
          199.955 199.955 199.955 199.777 184.24 190.983 194.237 196.292 199.121 199.951 199.955 199.955
          199.955 199.924 196.691 197.454 199.133 199.832 199.952 199.951 199.955 199.955 199.955 199.955
          199.603 199.843 199.954 199.953 199.952 199.951 199.955 199.955 199.955 199.955 199.955 199.954
          199.954 199.953 199.952 199.951 199.955 199.955 199.955 199.955 199.955 199.954 199.954 199.953
          199.952 199.951 199.955 199.955 199.955 199.955 199.955 199.954 199.954 199.953 199.952 199.951
          199.955 199.955 199.955 199.955 199.954 199.954 199.953 199.953 199.952 199.951 199.955 199.955
          199.955 199.955 199.954 199.954 199.953 199.953 199.952 199.951 199.955 199.955 199.955 199.954
          199.539 199.765 199.953 199.953 199.952 199.951 199.955 199.955 199.955 199.922 195.983 196.687
          199 199.807 199.952 199.951 199.955 199.955 199.955 199.807 183.637 190.376 193.64 195.985
          199.132 199.951 199.955 199.955 199.955 199.922 195.827 196.547 198.903 199.801 199.952 199.951
          199.955 199.955 199.955 199.954 199.505 199.726 199.953 199.953 199.952 199.951 199.955 199.955
          199.955 199.955 199.954 199.954 199.953 199.953 199.952 199.951 199.955 199.955 199.955 199.955
          199.954 199.954 199.953 199.953 199.952 199.951 199.955 199.955 199.955 199.955 199.954 199.954
          199.953 199.953 199.952 199.951 199.955 199.955 199.955 199.954 199.954 199.953 199.953 199.952
          199.952 199.951 199.955 199.955 199.955 199.954 199.954 199.953 199.953 199.952 199.952 199.951
          199.955 199.955 199.954 199.954 199.501 199.714 199.953 199.952 199.952 199.951 199.955 199.955
          199.954 199.919 195.765 196.397 198.971 199.827 199.952 199.951 199.955 199.955 199.954 199.871
          183.621 190.282 193.596 196.215 199.324 199.951 199.955 199.955 199.954 199.919 195.601 196.274
          198.783 199.821 199.952 199.951 199.955 199.955 199.954 199.954 199.466 199.668 199.953 199.952
          199.952 199.951 199.955 199.955 199.955 199.954 199.954 199.953 199.953 199.952 199.952 199.951
          199.955 199.955 199.955 199.954 199.954 199.953 199.953 199.952 199.952 199.951 199.955 199.955
          199.955 199.954 199.954 199.953 199.953 199.952 199.952 199.951 199.955 199.955 199.954 199.954
          199.953 199.953 199.952 199.952 199.951 199.951 199.955 199.955 199.954 199.954 199.953 199.953
          199.952 199.952 199.951 199.951 199.955 199.955 199.954 199.954 199.493 199.699 199.952 199.952
          199.952 199.951 199.955 199.955 199.954 199.914 195.821 196.371 198.993 199.863 199.952 199.951
          199.955 199.955 199.954 199.874 183.779 190.313 193.715 196.687 199.555 199.951 199.955 199.955
          199.954 199.914 195.647 196.216 198.881 199.859 199.952 199.951 199.955 199.955 199.954 199.954
          199.455 199.648 199.952 199.952 199.952 199.951 199.955 199.955 199.954 199.954 199.953 199.953
          199.952 199.952 199.951 199.951 199.955 199.955 199.954 199.954 199.953 199.953 199.952 199.952
          199.951 199.951 199.955 199.955 199.954 199.954 199.953 199.953 199.952 199.952 199.951 199.951
          199.955 199.955 199.954 199.953 199.953 199.952 199.952 199.952 199.951 199.951 199.955 199.955
          199.954 199.953 199.953 199.952 199.952 199.952 199.951 199.951 199.955 199.954 199.954 199.953
          199.489 199.691 199.952 199.952 199.951 199.951 199.955 199.954 199.954 199.91 195.924 196.404
          199.027 199.899 199.951 199.951 199.955 199.954 199.954 199.914 183.946 190.36 193.847 197.235
          199.746 199.951 199.955 199.954 199.954 199.91 195.741 196.22 198.991 199.896 199.951 199.951
          199.955 199.954 199.954 199.953 199.449 199.634 199.952 199.952 199.951 199.951 199.955 199.954
          199.954 199.953 199.953 199.952 199.952 199.952 199.951 199.951 199.955 199.954 199.954 199.953
          199.953 199.952 199.952 199.952 199.951 199.951 199.955 199.954 199.954 199.953 199.953 199.952
          199.952 199.952 199.951 199.951 199.955 199.954 199.954 199.953 199.952 199.952 199.952 199.951
          199.951 199.951 199.955 199.954 199.954 199.953 199.952 199.952 199.952 199.951 199.951 199.951
          199.955 199.954 199.954 199.953 199.468 199.66 199.952 199.951 199.951 199.951 199.955 199.954
          199.953 199.906 195.931 196.388 199.05 199.924 199.951 199.951 199.955 199.954 199.953 199.901
          183.98 190.378 193.965 197.793 199.861 199.951 199.955 199.954 199.953 199.907 195.74 196.2
          199.013 199.923 199.951 199.951 199.955 199.954 199.953 199.953 199.428 199.601 199.952 199.951
          199.951 199.951 199.955 199.954 199.953 199.953 199.952 199.952 199.952 199.951 199.951 199.951
          199.955 199.954 199.953 199.953 199.952 199.952 199.951 199.951 199.951 199.951 199.955 199.954
          199.953 199.953 199.952 199.952 199.951 199.951 199.951 199.951 199.955 199.954 199.953 199.952
          199.952 199.951 199.951 199.951 199.951 199.951 199.955 199.954 199.953 199.952 199.952 199.951
          199.951 199.951 199.951 199.951 199.955 199.954 199.953 199.952 199.4 199.557 199.951 199.951
          199.951 199.951 199.955 199.954 199.953 199.907 195.503 196.086 199.018 199.931 199.951 199.951
          199.955 199.954 199.953 199.913 183.291 190.056 193.858 198.075 199.899 199.951 199.955 199.954
          199.953 199.907 195.306 195.927 198.833 199.929 199.951 199.951 199.955 199.954 199.953 199.952
          199.361 199.498 199.951 199.951 199.951 199.951 199.955 199.954 199.953 199.952 199.952 199.951
          199.951 199.951 199.951 199.951 199.955 199.954 199.953 199.952 199.952 199.951 199.951 199.951
          199.951 199.951 199.955 199.954 199.953 199.952 199.952 199.951 199.951 199.951 199.951 199.951
          199.955 199.953 199.952 199.952 199.951 199.951 199.95 199.95 199.95 199.95 199.955 199.953
          199.952 199.952 199.588 199.766 199.95 199.95 199.95 199.95 199.955 199.953 199.952 199.929
          196.062 196.367 198.984 199.95 199.95 199.95 199.955 199.953 199.952 199.914 188.12 189.77
          193.235 198.462 199.95 199.95 199.955 199.953 199.952 199.893 172.88 181.43 187.419 193.027
          199.058 199.95 199.955 199.953 199.952 199.914 187.889 189.565 193.077 198.311 199.95 199.95
          199.955 199.953 199.952 199.929 195.74 195.926 198.87 199.95 199.95 199.95 199.955 199.953
          199.952 199.952 199.484 199.687 199.95 199.95 199.95 199.95 199.955 199.953 199.952 199.952
          199.951 199.951 199.95 199.95 199.95 199.95 199.955 199.953 199.952 199.952 199.951 199.95
          199.95 199.95 199.95 199.95
        </DataArray>
        <DataArray type="Float32" Name="C^n from cellData" NumberOfComponents="1" format="ascii">
          0 0 0 3.48401e-15 6.37264e-11 4.53029e-12 1.40022e-13 2.55636e-15 8.09317e-18 0 0 0
          5.39439e-16 8.59542e-12 1.11962e-07 9.62733e-09 3.72525e-10 7.66146e-12 1.10805e-13 1.41263e-15 7.50143e-18 1.04337e-14 9.67796e-13 7.80733e-09
          8.99099e-05 7.90841e-06 4.65523e-07 1.08931e-08 1.57792e-10 2.08575e-12 2.82399e-13 1.39574e-11 1.03445e-09 3.66928e-06 0.0166251 0.00358332
          0.000410179 1.15108e-05 1.5794e-07 1.93171e-09 6.10458e-10 2.46096e-08 1.3978e-06 0.00142469 0.0420159 0.0246451 0.0186979 0.00771603
          0.000128937 1.62589e-06 4.80854e-13 2.50846e-11 1.87475e-09 4.81612e-06 0.0167864 0.00436561 0.000478591 1.29729e-05 1.77621e-07 2.16918e-09
          2.17811e-16 2.225e-14 2.17476e-12 1.21951e-08 0.000152756 1.11357e-05 6.28667e-07 1.41749e-08 2.02256e-10 2.64393e-12 0 2.49264e-18
          1.65702e-15 1.79024e-11 2.07375e-07 1.65659e-08 6.2435e-10 1.24314e-11 1.75804e-13 2.10911e-15 0 0 0 1.31225e-14
          1.81846e-10 1.27348e-11 3.81455e-13 6.84974e-15 2.01846e-17 0 0 0 0 0 6.48211e-14 3.71211e-15
          6.13695e-17 0 0 0 0 0 0 1.04953e-14 6.58505e-10 3.44948e-11 1.06651e-12 1.6057e-14
          4.00274e-17 0 0 0 5.70237e-16 2.32199e-11 1.57878e-06 8.57473e-08 3.60461e-09 6.78453e-11 6.76129e-13 4.80458e-15