<?xml version="1.0"?>
<VTKFile type="UnstructuredGrid" version="0.1" byte_order="LittleEndian">
  <UnstructuredGrid>
    <Piece NumberOfCells="80" NumberOfPoints="162">
      <CellData Scalars="p">
        <DataArray type="Float32" Name="p" NumberOfComponents="1" format="ascii">
          139840 139606 139368 139126 138879 138627 138369 138106 137835 137556 137268 136969
          136658 136333 135993 135635 135259 134863 134448 134012 133557 133083 132593 132087
          131567 131036 130497 129949 129395 128836 128274 127709 127142 126574 126004 125434
          124864 124293 123721 123150 122579 122007 121436 120864 120292 119721 119149 118578
          118006 117434 116863 116291 115720 115148 114576 114005 113433 112861 112290 111718
          111147 110575 110003 109432 108860 108288 107717 107145 106574 106002 105430 104859
          104287 103716 103144 102572 102001 101429 100857 100286
        </DataArray>
        <DataArray type="Float32" Name="rho" NumberOfComponents="1" format="ascii">
          985.769 986.302 986.83 987.365 987.931 988.522 989.138 989.806 990.497 991.249 992.02 992.834
          993.649 994.453 995.236 995.956 996.605 997.189 997.67 998.084 998.41 998.688 998.881 999.042
          999.173 999.268 999.329 999.377 999.413 999.44 999.46 999.475 999.485 999.493 999.498 999.501
          999.504 999.505 999.506 999.507 999.507 999.507 999.507 999.507 999.507 999.507 999.506 999.506
          999.506 999.506 999.505 999.505 999.505 999.505 999.504 999.504 999.504 999.504 999.503 999.503
          999.503 999.503 999.502 999.502 999.502 999.501 999.501 999.501 999.501 999.5 999.5 999.5
          999.5 999.499 999.499 999.499 999.498 999.498 999.498 999.498
        </DataArray>
        <DataArray type="Float32" Name="mu" NumberOfComponents="1" format="ascii">
          0.000504882 0.000513784 0.00052303 0.000533352 0.000544258 0.000556364 0.000570158 0.000585128 0.00060315 0.00062292 0.00064669 0.000673086
          0.000703513 0.000737708 0.000774638 0.000815088 0.000857967 0.000900855 0.000945373 0.000987595 0.0010285 0.00106436 0.00109912 0.00112807
          0.00115172 0.00117182 0.00118927 0.00120282 0.00121318 0.00122099 0.0012268 0.00123105 0.00123414 0.00123634 0.0012379 0.00123899
          0.00123975 0.00124026 0.00124061 0.00124085 0.00124101 0.00124111 0.00124118 0.00124123 0.00124125 0.00124127 0.00124129 0.00124129
          0.0012413 0.0012413 0.0012413 0.00124131 0.00124131 0.00124131 0.00124131 0.00124131 0.00124131 0.00124131 0.00124131 0.00124131
          0.00124131 0.00124131 0.00124131 0.00124131 0.00124131 0.00124132 0.00124132 0.00124132 0.00124132 0.00124132 0.00124132 0.00124132
          0.00124132 0.00124132 0.00124132 0.00124132 0.00124132 0.00124132 0.00124132 0.00124132
        </DataArray>
        <DataArray type="Float32" Name="x^H2O_liq" NumberOfComponents="1" format="ascii">
          0.999715 0.999721 0.999727 0.999733 0.99974 0.999746 0.999752 0.999759 0.999766 0.999773 0.99978 0.999788
          0.999796 0.999804 0.999812 0.99982 0.999829 0.999838 0.999848 0.999857 0.999866 0.999876 0.999885 0.999894
          0.999904 0.999913 0.999921 0.999929 0.999937 0.999944 0.999951 0.999957 0.999963 0.999968 0.999972 0.999976
          0.99998 0.999983 0.999986 0.999988 0.99999 0.999992 0.999993 0.999995 0.999996 0.999996 0.999997 0.999998
          0.999998 0.999999 0.999999 0.999999 0.999999 0.999999 1 1 1 1 1 1
          1 1 1 1 1 1 1 1 1 1 1 1
          1 1 1 1 1 1 1 1
        </DataArray>
        <DataArray type="Float32" Name="x^N2_liq" NumberOfComponents="1" format="ascii">
          0.000285117 0.000278656 0.000272703 0.000266663 0.000260481 0.000254144 0.000247642 0.000240961 0.000234088 0.000227009 0.00021971 0.000212176
          0.000204394 0.000196357 0.000188061 0.000179509 0.000170714 0.000161697 0.000152492 0.000143142 0.0001337 0.00012423 0.000114799 0.000105483
          9.63537e-05 8.74854e-05 7.89459e-05 7.07961e-05 6.30882e-05 5.58638e-05 4.91531e-05 4.29747e-05 3.73362e-05 3.22346e-05 2.76576e-05 2.35853e-05
          1.99912e-05 1.6844e-05 1.41093e-05 1.17507e-05 9.7313e-06 8.01446e-06 6.56484e-06 5.34899e-06 4.33579e-06 3.49675e-06 2.80616e-06 2.2411e-06
          1.78141e-06 1.40951e-06 1.11026e-06 8.70722e-07 6.79955e-07 5.28779e-07 4.09548e-07 3.1595e-07 2.42805e-07 1.85893e-07 1.418e-07 1.0778e-07
          8.16374e-08 6.1626e-08 4.63662e-08 3.47725e-08 2.59959e-08 1.93749e-08 1.43971e-08 1.0667e-08 7.88079e-09 5.80621e-09 4.26616e-09 3.12632e-09
          2.28512e-09 1.66605e-09 1.21172e-09 8.79166e-10 6.36389e-10 4.596e-10 3.31182e-10 2.38122e-10
        </DataArray>
        <DataArray type="Float32" Name="X^H2O_liq" NumberOfComponents="1" format="ascii">
          0.999557 0.999567 0.999576 0.999585 0.999595 0.999605 0.999615 0.999625 0.999636 0.999647 0.999658 0.99967
          0.999682 0.999695 0.999708 0.999721 0.999735 0.999749 0.999763 0.999777 0.999792 0.999807 0.999821 0.999836
          0.99985 0.999864 0.999877 0.99989 0.999902 0.999913 0.999924 0.999933 0.999942 0.99995 0.999957 0.999963
          0.999969 0.999974 0.999978 0.999982 0.999985 0.999988 0.99999 0.999992 0.999993 0.999995 0.999996 0.999997
          0.999997 0.999998 0.999998 0.999999 0.999999 0.999999 0.999999 1 1 1 1 1
          1 1 1 1 1 1 1 1 1 1 1 1
          1 1 1 1 1 1 1 1
        </DataArray>
        <DataArray type="Float32" Name="X^N2_liq" NumberOfComponents="1" format="ascii">
          0.000443284 0.00043324 0.000423986 0.000414597 0.000404987 0.000395136 0.000385027 0.000374641 0.000363957 0.000352952 0.000341604 0.000329892
          0.000317795 0.0003053 0.000292402 0.000279107 0.000265433 0.000251415 0.000237103 0.000222566 0.000207887 0.000193162 0.0001785 0.000164015
          0.000149821 0.000136032 0.000122755 0.000110083 9.8098e-05 8.68649e-05 7.64304e-05 6.68236e-05 5.80561e-05 5.01235e-05 4.30067e-05 3.66744e-05
          3.10857e-05 2.6192e-05 2.19396e-05 1.82721e-05 1.5132e-05 1.24623e-05 1.02082e-05 8.31759e-06 6.74208e-06 5.43739e-06 4.36354e-06 3.48489e-06
          2.77007e-06 2.19178e-06 1.72644e-06 1.35396e-06 1.05732e-06 8.22244e-07 6.36843e-07 4.91299e-07 3.77558e-07 2.89061e-07 2.20498e-07 1.67597e-07
          1.26945e-07 9.58277e-08 7.20988e-08 5.40709e-08 4.04233e-08 3.01277e-08 2.23873e-08 1.6587e-08 1.22545e-08 9.02858e-09 6.63384e-09 4.86139e-09
          3.55333e-09 2.59069e-09 1.88421e-09 1.36709e-09 9.89578e-10 7.14673e-10 5.14984e-10 3.70276e-10
        </DataArray>
        <DataArray type="Float32" Name="T" NumberOfComponents="1" format="ascii">
          328.037 326.933 325.822 324.657 323.427 322.117 320.706 319.176 317.505 315.679 313.694 311.556
          309.29 306.934 304.535 302.15 299.834 297.637 295.604 293.763 292.133 290.722 289.524 288.526
          287.711 287.057 286.541 286.14 285.833 285.602 285.431 285.305 285.214 285.148 285.102 285.07
          285.048 285.032 285.022 285.015 285.01 285.007 285.005 285.004 285.003 285.003 285.002 285.002
          285.002 285.002 285.002 285.002 285.002 285.002 285.002 285.002 285.002 285.002 285.002 285.002
          285.002 285.002 285.002 285.002 285.002 285.002 285.002 285.002 285.002 285.002 285.002 285.002
          285.002 285.002 285.002 285.002 285.002 285.002 285.002 285.002
        </DataArray>
        <DataArray type="Float32" Name="process rank" NumberOfComponents="1" format="ascii">
          0 0 0 0 0 0 0 0 0 0 0 0
          0 0 0 0 0 0 0 0 0 0 0 0
          0 0 0 0 0 0 0 0 0 0 0 0
          0 0 0 0 0 0 0 0 0 0 0 0
          0 0 0 0 0 0 0 0 0 0 0 0
          0 0 0 0 0 0 0 0 0 0 0 0
          0 0 0 0 0 0 0 0
        </DataArray>
      </CellData>
      <Points>
        <DataArray type="Float32" Name="Coordinates" NumberOfComponents="3" format="ascii">
          0 0 0 0.25 0 0 0 1 0 0.25 1 0
          0.5 0 0 0.5 1 0 0.75 0 0 0.75 1 0
          1 0 0 1 1 0 1.25 0 0 1.25 1 0
          1.5 0 0 1.5 1 0 1.75 0 0 1.75 1 0
          2 0 0 2 1 0 2.25 0 0 2.25 1 0
          2.5 0 0 2.5 1 0 2.75 0 0 2.75 1 0
          3 0 0 3 1 0 3.25 0 0 3.25 1 0
          3.5 0 0 3.5 1 0 3.75 0 0 3.75 1 0
          4 0 0 4 1 0 4.25 0 0 4.25 1 0
          4.5 0 0 4.5 1 0 4.75 0 0 4.75 1 0
          5 0 0 5 1 0 5.25 0 0 5.25 1 0
          5.5 0 0 5.5 1 0 5.75 0 0 5.75 1 0
          6 0 0 6 1 0 6.25 0 0 6.25 1 0
          6.5 0 0 6.5 1 0 6.75 0 0 6.75 1 0
          7 0 0 7 1 0 7.25 0 0 7.25 1 0
          7.5 0 0 7.5 1 0 7.75 0 0 7.75 1 0
          8 0 0 8 1 0 8.25 0 0 8.25 1 0
          8.5 0 0 8.5 1 0 8.75 0 0 8.75 1 0
          9 0 0 9 1 0 9.25 0 0 9.25 1 0
          9.5 0 0 9.5 1 0 9.75 0 0 9.75 1 0
          10 0 0 10 1 0 10.25 0 0 10.25 1 0
          10.5 0 0 10.5 1 0 10.75 0 0 10.75 1 0
          11 0 0 11 1 0 11.25 0 0 11.25 1 0
          11.5 0 0 11.5 1 0 11.75 0 0 11.75 1 0
          12 0 0 12 1 0 12.25 0 0 12.25 1 0
          12.5 0 0 12.5 1 0 12.75 0 0 12.75 1 0
          13 0 0 13 1 0 13.25 0 0 13.25 1 0
          13.5 0 0 13.5 1 0 13.75 0 0 13.75 1 0
          14 0 0 14 1 0 14.25 0 0 14.25 1 0
          14.5 0 0 14.5 1 0 14.75 0 0 14.75 1 0
          15 0 0 15 1 0 15.25 0 0 15.25 1 0
          15.5 0 0 15.5 1 0 15.75 0 0 15.75 1 0
          16 0 0 16 1 0 16.25 0 0 16.25 1 0
          16.5 0 0 16.5 1 0 16.75 0 0 16.75 1 0
          17 0 0 17 1 0 17.25 0 0 17.25 1 0
          17.5 0 0 17.5 1 0 17.75 0 0 17.75 1 0
          18 0 0 18 1 0 18.25 0 0 18.25 1 0
          18.5 0 0 18.5 1 0 18.75 0 0 18.75 1 0
          19 0 0 19 1 0 19.25 0 0 19.25 1 0
          19.5 0 0 19.5 1 0 19.75 0 0 19.75 1 0
          20 0 0 20 1 0
        </DataArray>
      </Points>
      <Cells>
        <DataArray type="Int32" Name="connectivity" NumberOfComponents="1" format="ascii">
          0 1 3 2 1 4 5 3 4 6 7 5
          6 8 9 7 8 10 11 9 10 12 13 11
          12 14 15 13 14 16 17 15 16 18 19 17
          18 20 21 19 20 22 23 21 22 24 25 23
          24 26 27 25 26 28 29 27 28 30 31 29
          30 32 33 31 32 34 35 33 34 36 37 35
          36 38 39 37 38 40 41 39 40 42 43 41
          42 44 45 43 44 46 47 45 46 48 49 47
          48 50 51 49 50 52 53 51 52 54 55 53
          54 56 57 55 56 58 59 57 58 60 61 59
          60 62 63 61 62 64 65 63 64 66 67 65
          66 68 69 67 68 70 71 69 70 72 73 71
          72 74 75 73 74 76 77 75 76 78 79 77
          78 80 81 79 80 82 83 81 82 84 85 83
          84 86 87 85 86 88 89 87 88 90 91 89
          90 92 93 91 92 94 95 93 94 96 97 95
          96 98 99 97 98 100 101 99 100 102 103 101
          102 104 105 103 104 106 107 105 106 108 109 107
          108 110 111 109 110 112 113 111 112 114 115 113
          114 116 117 115 116 118 119 117 118 120 121 119
          120 122 123 121 122 124 125 123 124 126 127 125
          126 128 129 127 128 130 131 129 130 132 133 131
          132 134 135 133 134 136 137 135 136 138 139 137
          138 140 141 139 140 142 143 141 142 144 145 143
          144 146 147 145 146 148 149 147 148 150 151 149
          150 152 153 151 152 154 155 153 154 156 157 155
          156 158 159 157 158 160 161 159
        </DataArray>
        <DataArray type="Int32" Name="offsets" NumberOfComponents="1" format="ascii">
          4 8 12 16 20 24 28 32 36 40 44 48
          52 56 60 64 68 72 76 80 84 88 92 96
          100 104 108 112 116 120 124 128 132 136 140 144
          148 152 156 160 164 168 172 176 180 184 188 192
          196 200 204 208 212 216 220 224 228 232 236 240
          244 248 252 256 260 264 268 272 276 280 284 288
          292 296 300 304 308 312 316 320
        </DataArray>
        <DataArray type="UInt8" Name="types" NumberOfComponents="1" format="ascii">
          9 9 9 9 9 9 9 9 9 9 9 9
          9 9 9 9 9 9 9 9 9 9 9 9
          9 9 9 9 9 9 9 9 9 9 9 9
          9 9 9 9 9 9 9 9 9 9 9 9
          9 9 9 9 9 9 9 9 9 9 9 9
          9 9 9 9 9 9 9 9 9 9 9 9
          9 9 9 9 9 9 9 9
        </DataArray>
      </Cells>
    </Piece>
  </UnstructuredGrid>
</VTKFile>
