<?xml version="1.0"?>
<VTKFile type="UnstructuredGrid" version="0.1" byte_order="LittleEndian">
  <UnstructuredGrid>
    <Piece NumberOfCells="1000" NumberOfPoints="1331">
      <CellData Scalars="wetting pressure">
        <DataArray type="Float32" Name="wetting pressure" NumberOfComponents="1" format="ascii">
          265545 270749 272317 271362 268369 263499 256695 247720 236067 220665 265551 270770
          272359 271433 268479 263650 256866 247876 236174 220702 265561 270802 272423 271547
          268660 263926 257191 248184 236384 220774 265568 270827 272477 271645 268801 264240
          257612 248623 236671 220868 265567 270827 272483 271664 268810 264210 257893 249126
          236921 220934 265556 270793 272424 271577 268724 264171 257554 248571 236635 220855
          265537 270733 272314 271405 268501 263763 257043 248061 236302 220746 265515 270664
          272188 271209 268219 263377 256609 247664 236034 220653 265497 270606 272084 271049
          267996 263098 256310 247399 235854 220591 265486 270573 272025 270961 267877 262954
          256160 247267 235766 220559 261994 264555 264991 263521 260330 255474 248889 240434
          229903 217125 262002 264580 265043 263613 260475 255675 249109 240629 230035 217171
          262014 264620 265126 263765 260736 256081 249562 241039 230309 217262 262023 264653
          265199 263908 260950 256663 250262 241713 230752 217397 262023 264656 265218 263976
          261189 256737 250561 242589 231432 217528 262011 264618 265144 263838 260868 256566
          250232 241672 230719 217384 261989 264548 265012 263620 260576 255918 249420 240919
          230227 217233 261964 264469 264864 263377 260203 255390 248843 240409 229888 217119
          261944 264403 264743 263187 259930 255044 248477 240091 229676 217046 261932 264366
          264677 263085 259790 254874 248301 239938 229574 217010 260242 260460 259521 257311
          253811 248978 242735 235027 225856 215391 260252 260493 259591 257438 254021 249262
          243033 235282 226022 215447 260267 260546 259705 257662 254441 249886 243689 235840
          226380 215564 260280 260592 259812 257890 254865 250822 244855 236833 226990 215743
          260281 260601 259849 258020 255345 251134 245391 238152 227973 215929 260267 260554
          259754 257821 254807 250785 244878 236814 226964 215732 260241 260468 259583 257510
          254286 249738 243566 235728 226299 215535 260211 260371 259395 257181 253727 248958
          242752 235048 225866 215392 260186 260292 259245 256937 253363 248497 242276 234646
          225604 215303 260172 260248 259164 256810 253185 248280 242055 234459 225481 215260
          259125 257488 255255 252264 248417 243609 237749 230830 222937 214293 259138 257531
          255344 252431 248697 243979 238123 231139 223134 214359 259157 257599 255494 252734
          249293 244824 238960 231819 223556 214496 259173 257659 255637 253051 249943 246075
          240472 233019 224261 214701 259176 257673 255689 253218 250507 246468 241133 234507
          225320 214906 259159 257618 255574 252976 249879 246018 240730 233054 224246 214692
          259128 257513 255360 252568 249129 244675 238883 231723 223477 214466 259091 257394
          255125 252144 248370 243645 237824 230888 222963 214298 259061 257297 254940 251837
          247905 243060 237229 230400 222653 214194 259045 257244 254841 251679 247683 242791
          236958 230176 222508 214144 258261 255072 251656 247905 243707 238922 233450 227299
          220571 213447 258276 255123 251765 248108 244045 239359 233881 227648 220790 213520
          258299 255206 251947 248476 244766 240356 234833 228401 221248 213668 258319 255279
          252120 248858 245560 241792 236505 229687 221978 213881 258323 255297 252181 249043
          246135 242192 237234 231222 222975 214079 258303 255233 252049 248774 245484 241703
          236982 229763 221968 213872 258266 255109 251796 248289 244583 240192 234783 228307
          221163 213635 258223 254969 251516 247782 243674 238982 233549 227368 220600 213452
          258188 254854 251296 247415 243119 238293 232857 226812 220251 213335 258168 254790
          251177 247228 242854 237976 232541 226553 220085 213279 257469 252831 248284 243792
          239247 234486 229398 223998 218385 212675 257487 252892 248411 244026 239630 234976
          229873 224377 218620 212753 257514 252988 248622 244445 240432 236063 230894 225175
          219098 212907 257538 253073 248819 244870 241291 237571 232610 226475 219815 213117
          257542 253094 248886 245066 241871 237980 233351 227995 220694 213297 257520 253022
          248740 244776 241208 237492 232890 226505 219793 213105 257477 252879 248451 244234
          240224 235871 230781 225044 218994 212868 257427 252717 248128 243656 239207 234542
          229482 224052 218401 212676 257386 252582 247872 243231 238573 233765 228718 223442
          218021 212549 257363 252508 247734 243012 238267 233403 228362 223152 217836 212486
          256612 250440 244730 239500 234621 229891 225183 220533 216059 211842 256633 250511
          244878 239770 235058 230443 225713 220952 216317 211928 256665 250623 245121 240245
          235942 231624 226814 221805 216822 212090 256692 250720 245344 240712 236847 233175
          228557 223120 217532 212299 256698 250745 245419 240921 237439 233605 229302 224623
          218288 212459 256673 250663 245257 240609 236758 233103 228563 223086 217492 212283
          256624 250501 244930 240008 235706 231397 226616 221629 216697 212044 256567 250314
          244560 239351 234577 229945 225253 220573 216066 211840 256518 250158 244262 238860
          233849 229064 224403 219897 215646 211699 256491 250071 244100 238603 233491 228645
          223996 219569 215439 211629 255510 247515 240550 234588 229409 224724 220379 216472
          213221 210771 255534 247599 240728 234916 229944 225395 221017 216968 213520 210869
          255572 247731 241015 235479 230982 226767 222293 217951 214092 211051 255604 247845
          241275 236014 231982 228416 224150 219369 214846 211275 255611 247875 241362 236248
          232614 228893 224941 220904 215520 211426 255582 247783 241179 235902 231887 228338
          224166 219338 214806 211258 255526 247598 240806 235219 230724 226517 222074 217757
          213955 211002 255461 247381 240374 234449 229407 224837 220500 216544 213240 210771
          255405 247199 240023 233862 228528 223778 219489 215750 212754 210610 255373 247098
          239832 233555 228095 223270 219002 215364 212512 210529 253774 243476 235190 228566
          223169 218548 214502 211261 209283 209071 253803 243576 235409 228989 223903 219477
          215354 211897 209652 209189 253847 243732 235759 229704 225280 221317 217064 213177
          210366 209411 253884 243866 236070 230356 226513 223180 219245 214985 211291 209679
          253893 243903 236176 230641 227266 223775 220126 216496 211990 209845 253862 243800
          235968 230238 226414 223073 219586 215047 211272 209666 253799 243589 235534 229427
          225010 221060 216893 213005 210232 209361 253724 243340 235025 228484 223326 218880
          214802 211444 209352 209084 253660 243130 234609 227758 222180 217481 213501 210455
          208765 208893 253624 243013 234384 227382 221630 216832 212894 209985 208478 208797
          250236 237323 227952 220892 215420 210869 206970 204152 203212 205559 250268 237436
          228211 221441 216560 212347 208167 204974 203660 205699 250317 237613 228624 222359
          218635 215465 210998 206802 204573 205968 250358 237765 228986 223167 220378 217425
          213901 210090 205879 206313 250368 237808 229114 223528 221446 218350 214781 211207
          206928 206534 250334 237696 228882 223046 220280 217340 213857 210304 205893 206305
          250266 237465 228392 222076 218371 215221 210827 206660 204449 205920 250185 237190
          227811 220918 216000 211772 207597 204506 203349 205590 250116 236959 227337 220029
          214356 209715 205888 203287 202659 205370 250077 236831 227083 219587 213663 208888
          205149 202736 202332 205263
        </DataArray>
        <DataArray type="Float32" Name="nonwetting pressure" NumberOfComponents="1" format="ascii">
          265545 270749 272317 271362 268369 263499 256695 247720 236067 220665 265551 270770
          272359 271433 268479 263650 256866 247876 236174 220702 265561 270802 272423 271547
          268660 263926 257191 248184 236384 220774 265568 270827 272477 271645 268814 264240
          257612 248623 236671 220868 265567 270827 272483 271664 269217 264354 257951 249126
          236921 220934 265556 270793 272424 271577 268739 264171 257554 248571 236635 220855
          265537 270733 272314 271405 268501 263763 257043 248061 236302 220746 265515 270664
          272188 271209 268219 263377 256609 247664 236034 220653 265497 270606 272084 271049
          267996 263098 256310 247399 235854 220591 265486 270573 272025 270961 267877 262954
          256160 247267 235766 220559 261994 264555 264991 263521 260330 255474 248889 240434
          229903 217125 262002 264580 265043 263613 260475 255675 249109 240629 230035 217171
          262014 264620 265126 263765 260736 256081 249562 241039 230309 217262 262023 264653
          265199 263908 261016 256690 250262 241713 230752 217397 262023 264656 265218 263976
          261874 257075 250741 242669 231432 217528 262011 264618 265144 263838 260941 256601
          250232 241672 230719 217384 261989 264548 265012 263620 260576 255918 249420 240919
          230227 217233 261964 264469 264864 263377 260203 255390 248843 240409 229888 217119
          261944 264403 264743 263187 259930 255044 248477 240091 229676 217046 261932 264366
          264677 263085 259790 254874 248301 239938 229574 217010 260242 260460 259521 257311
          253811 248978 242735 235027 225856 215391 260252 260493 259591 257438 254021 249262
          243033 235282 226022 215447 260267 260546 259705 257662 254441 249886 243689 235840
          226380 215564 260280 260592 259812 257890 255002 250905 244855 236833 226990 215743
          260281 260601 259849 258020 256143 251578 245649 238280 227973 215929 260267 260554
          259754 257821 254951 250874 244878 236814 226964 215732 260241 260468 259583 257510
          254286 249738 243566 235728 226299 215535 260211 260371 259395 257181 253727 248958
          242752 235048 225866 215392 260186 260292 259245 256937 253363 248497 242276 234646
          225604 215303 260172 260248 259164 256810 253185 248280 242055 234459 225481 215260
          259125 257488 255255 252264 248417 243609 237749 230830 222937 214293 259138 257531
          255344 252431 248697 243979 238123 231139 223134 214359 259157 257599 255494 252734
          249293 244824 238960 231819 223556 214496 259173 257659 255637 253051 250121 246196
          240472 233019 224261 214701 259176 257673 255689 253218 251333 246944 241417 234648
          225320 214906 259159 257618 255574 252976 250063 246147 240730 233054 224246 214692
          259128 257513 255360 252568 249129 244675 238883 231723 223477 214466 259091 257394
          255125 252144 248370 243645 237824 230888 222963 214298 259061 257297 254940 251837
          247905 243060 237229 230400 222653 214194 259045 257244 254841 251679 247683 242791
          236958 230176 222508 214144 258261 255072 251656 247905 243707 238922 233450 227299
          220571 213447 258276 255123 251765 248108 244045 239359 233881 227648 220790 213520
          258299 255206 251947 248476 244766 240356 234833 228401 221248 213668 258319 255279
          252120 248858 245747 241926 236505 229687 221978 213881 258323 255297 252181 249043
          246961 242672 237520 231357 222975 214079 258303 255233 252049 248774 245678 241846
          236990 229763 221968 213872 258266 255109 251796 248289 244583 240192 234783 228307
          221163 213635 258223 254969 251516 247782 243674 238982 233549 227368 220600 213452
          258188 254854 251296 247415 243119 238293 232857 226812 220251 213335 258168 254790
          251177 247228 242854 237976 232541 226553 220085 213279 257469 252831 248284 243792
          239247 234486 229398 223998 218385 212675 257487 252892 248411 244026 239630 234976
          229873 224377 218620 212753 257514 252988 248622 244445 240432 236063 230894 225175
          219098 212907 257538 253073 248819 244870 241475 237707 232610 226475 219815 213117
          257542 253094 248886 245066 242689 238458 233630 228115 220694 213297 257520 253022
          248740 244776 241400 237636 232891 226505 219793 213105 257477 252879 248451 244234
          240224 235871 230781 225044 218994 212868 257427 252717 248128 243656 239207 234542
          229482 224052 218401 212676 257386 252582 247872 243231 238573 233765 228718 223442
          218021 212549 257363 252508 247734 243012 238267 233403 228362 223152 217836 212486
          256612 250440 244730 239500 234621 229891 225183 220533 216059 211842 256633 250511
          244878 239770 235058 230443 225713 220952 216317 211928 256665 250623 245121 240245
          235942 231624 226814 221805 216822 212090 256692 250720 245344 240712 237026 233311
          228557 223120 217532 212299 256698 250745 245419 240921 238251 234080 229573 224724
          218288 212459 256673 250663 245257 240609 236944 233246 228563 223086 217492 212283
          256624 250501 244930 240008 235706 231397 226616 221629 216697 212044 256567 250314
          244560 239351 234577 229945 225253 220573 216066 211840 256518 250158 244262 238860
          233849 229064 224403 219897 215646 211699 256491 250071 244100 238603 233491 228645
          223996 219569 215439 211629 255510 247515 240550 234588 229409 224724 220379 216472
          213221 210771 255534 247599 240728 234916 229944 225395 221017 216968 213520 210869
          255572 247731 241015 235479 230982 226767 222293 217951 214092 211051 255604 247845
          241275 236014 232161 228553 224150 219369 214846 211275 255611 247875 241362 236248
          233429 229369 225204 220981 215520 211426 255582 247783 241179 235902 232073 228483
          224166 219338 214806 211258 255526 247598 240806 235219 230724 226517 222074 217757
          213955 211002 255461 247381 240374 234449 229407 224837 220500 216544 213240 210771
          255405 247199 240023 233862 228528 223778 219489 215750 212754 210610 255373 247098
          239832 233555 228095 223270 219002 215364 212512 210529 253774 243476 235190 228566
          223169 218548 214502 211261 209283 209071 253803 243576 235409 228989 223903 219477
          215354 211897 209652 209189 253847 243732 235759 229704 225280 221317 217064 213177
          210366 209411 253884 243866 236070 230356 226710 223329 219245 214985 211291 209679
          253893 243903 236176 230641 228120 224268 220393 216561 211990 209845 253862 243800
          235968 230238 226619 223233 219593 215047 211272 209666 253799 243589 235534 229427
          225010 221060 216893 213005 210232 209361 253724 243340 235025 228484 223326 218880
          214802 211444 209352 209084 253660 243130 234609 227758 222180 217481 213501 210455
          208765 208893 253624 243013 234384 227382 221630 216832 212894 209985 208478 208797
          250236 237323 227952 220892 215420 210869 206970 204152 203212 205559 250268 237436
          228211 221441 216560 212347 208167 204974 203660 205699 250317 237613 228624 222359
          218802 215605 210998 206802 204573 205968 250358 237765 228986 223167 220958 217919
          214173 210100 205879 206313 250368 237808 229114 223528 222817 219287 215399 211488
          206928 206534 250334 237696 228882 223046 220872 217845 214137 210322 205893 206305
          250266 237465 228392 222076 218552 215377 210827 206660 204449 205920 250185 237190
          227811 220918 216000 211772 207597 204506 203349 205590 250116 236959 227337 220029
          214356 209715 205888 203287 202659 205370 250077 236831 227083 219587 213663 208888
          205149 202736 202332 205263
        </DataArray>
        <DataArray type="Float32" Name="wetting saturation" NumberOfComponents="1" format="ascii">
          1 1 1 1 1 1 1 1 1 1 1 1
          1 1 1 1 1 1 1 1 1 1 1 1
          1 1 1 1 1 1 1 1 1 1 0.998727 1
          1 1 1 1 1 1 1 1 0.959273 0.985581 0.994208 1
          1 1 1 1 1 1 0.998467 1 1 1 1 1
          1 1 1 1 1 1 1 1 1 1 1 1
          1 1 1 1 1 1 1 1 1 1 1 1
          1 1 1 1 1 1 1 1 1 1 1 1
          1 1 1 1 1 1 1 1 1 1 1 1
          1 1 1 1 1 1 1 1 1 1 1 1
          1 1 1 1 1 1 1 1 1 1 1 1
          1 1 0.993351 0.997261 1 1 1 1 1 1 1 1
          0.931556 0.966172 0.981973 0.991932 1 1 1 1 1 1 0.992681 0.996507
          1 1 1 1 1 1 1 1 1 1 1 1
          1 1 1 1 1 1 1 1 1 1 1 1
          1 1 1 1 1 1 1 1 1 1 1 1
          1 1 1 1 1 1 1 1 1 1 1 1
          1 1 1 1 1 1 1 1 1 1 1 1
          1 1 1 1 1 1 1 1 1 1 1 1
          1 1 1 1 1 1 0.986254 0.991795 1 1 1 1
          1 1 1 1 0.920151 0.955589 0.974123 0.987239 1 1 1 1
          1 1 0.985571 0.991108 1 1 1 1 1 1 1 1
          1 1 1 1 1 1 1 1 1 1 1 1
          1 1 1 1 1 1 1 1 1 1 1 1
          1 1 1 1 1 1 1 1 1 1 1 1
          1 1 1 1 1 1 1 1 1 1 1 1
          1 1 1 1 1 1 1 1 1 1 1 1
          1 1 1 1 1 1 1 1 1 1 0.982219 0.987865
          1 1 1 1 1 1 1 1 0.917388 0.952481 0.971569 0.985892
          1 1 1 1 1 1 0.98154 0.987151 1 1 1 1
          1 1 1 1 1 1 1 1 1 1 1 1
          1 1 1 1 1 1 1 1 1 1 1 1
          1 1 1 1 1 1 1 1 1 1 1 1
          1 1 1 1 1 1 1 1 1 1 1 1
          1 1 1 1 1 1 1 1 1 1 1 1
          1 1 1 1 1 1 1 1 1 1 1 1
          1 1 0.981271 0.986594 1 1 1 1 1 1 1 1
          0.917449 0.952044 0.971439 0.986514 1 1 1 1 1 1 0.980563 0.9857
          0.999205 1 1 1 1 1 1 1 1 1 1 1
          1 1 1 1 1 1 1 1 1 1 1 1
          1 1 1 1 1 1 1 1 1 1 1 1
          1 1 1 1 1 1 1 1 1 1 1 1
          1 1 1 1 1 1 1 1 1 1 1 1
          1 1 1 1 1 1 1 1 1 1 1 1
          1 1 1 1 1 1 0.981582 0.986401 1 1 1 1
          1 1 1 1 0.918201 0.95222 0.97211 0.988004 1 1 1 1
          1 1 0.980841 0.985588 0.999914 1 1 1 1 1 1 1
          1 1 1 1 1 1 1 1 1 1 1 1
          1 1 1 1 1 1 1 1 1 1 1 1
          1 1 1 1 1 1 1 1 1 1 1 1
          1 1 1 1 1 1 1 1 1 1 1 1
          1 1 1 1 1 1 1 1 1 1 1 1
          1 1 1 1 1 1 1 1 1 1 0.982105 0.986455
          1 1 1 1 1 1 1 1 0.918794 0.952426 0.97293 0.98993
          1 1 1 1 1 1 0.98133 0.985721 1 1 1 1
          1 1 1 1 1 1 1 1 1 1 1 1
          1 1 1 1 1 1 1 1 1 1 1 1
          1 1 1 1 1 1 1 1 1 1 1 1
          1 1 1 1 1 1 1 1 1 1 1 1
          1 1 1 1 1 1 1 1 1 1 1 1
          1 1 1 1 1 1 1 1 1 1 1 1
          1 1 0.982183 0.98632 1 1 1 1 1 1 1 1
          0.91853 0.952421 0.973678 0.992317 1 1 1 1 1 1 0.981381 0.985571
          1 1 1 1 1 1 1 1 1 1 1 1
          1 1 1 1 1 1 1 1 1 1 1 1
          1 1 1 1 1 1 1 1 1 1 1 1
          1 1 1 1 1 1 1 1 1 1 1 1
          1 1 1 1 1 1 1 1 1 1 1 1
          1 1 1 1 1 1 1 1 1 1 1 1
          1 1 1 1 1 1 0.980273 0.985019 1 1 1 1
          1 1 1 1 0.914694 0.950637 0.973239 0.993486 1 1 1 1
          1 1 0.979456 0.984047 0.999322 1 1 1 1 1 1 1
          1 1 1 1 1 1 1 1 1 1 1 1
          1 1 1 1 1 1 1 1 1 1 1 1
          1 1 1 1 1 1 1 1 1 1 1 1
          1 1 1 1 1 1 1 1 1 1 1 1
          1 1 1 1 1 1 1 1 1 1 1 1
          0.98334 0.985982 1 1 1 1 1 1 1 1 0.941933 0.950534
          0.972794 0.998997 1 1 1 1 1 1 0.862872 0.906275 0.938154 0.971834
          1 1 1 1 1 1 0.940719 0.949417 0.971946 0.998168 1 1
          1 1 1 1 0.981949 0.984356 1 1 1 1 1 1
          1 1 1 1 1 1 1 1 1 1 1 1
          1 1 1 1 1 1 1 1 1 1 1 1
          1 1 1 1
        </DataArray>
        <DataArray type="Float32" Name="C^w from cellData" NumberOfComponents="1" format="ascii">
          199.956 199.956 199.956 199.956 199.956 199.956 199.955 199.954 199.953 199.952 199.956 199.956
          199.956 199.956 199.956 199.956 199.955 199.954 199.953 199.952 199.956 199.956 199.956 199.956
          199.953 199.956 199.955 199.954 199.953 199.952 199.956 199.956 199.956 199.942 199.327 199.668
          199.926 199.954 199.953 199.952 199.956 199.956 199.956 199.846 191.62 196.79 198.101 199.32
          199.953 199.952 199.956 199.956 199.956 199.94 199.264 199.618 199.921 199.954 199.953 199.952
          199.956 199.956 199.956 199.956 199.949 199.956 199.955 199.954 199.953 199.952 199.956 199.956
          199.956 199.956 199.956 199.956 199.955 199.954 199.953 199.952 199.956 199.956 199.956 199.956
          199.956 199.956 199.955 199.954 199.953 199.952 199.956 199.956 199.957 199.956 199.956 199.956
          199.955 199.954 199.953 199.952 199.956 199.956 199.956 199.956 199.955 199.955 199.954 199.954
          199.953 199.952 199.956 199.956 199.956 199.956 199.955 199.955 199.954 199.954 199.953 199.952
          199.956 199.956 199.956 199.956 199.841 199.95 199.954 199.954 199.953 199.952 199.956 199.956
          199.956 199.926 198.23 198.927 199.67 199.92 199.953 199.952 199.956 199.956 199.956 199.751
          186.471 192.951 195.958 197.564 199.561 199.952 199.956 199.956 199.956 199.926 198.121 198.787
          199.616 199.918 199.953 199.952 199.956 199.956 199.956 199.956 199.806 199.945 199.954 199.954
          199.953 199.952 199.956 199.956 199.956 199.956 199.955 199.955 199.954 199.954 199.953 199.952
          199.956 199.956 199.956 199.956 199.955 199.955 199.954 199.954 199.953 199.952 199.956 199.956
          199.956 199.956 199.955 199.955 199.954 199.954 199.953 199.952 199.955 199.955 199.955 199.955
          199.955 199.954 199.954 199.953 199.952 199.951 199.955 199.955 199.955 199.955 199.955 199.954
          199.954 199.953 199.952 199.951 199.955 199.955 199.955 199.955 199.64 199.867 199.954 199.953
          199.952 199.951 199.955 199.955 199.955 199.926 196.839 197.623 199.172 199.836 199.952 199.951
          199.955 199.955 199.955 199.777 184.234 190.98 194.236 196.294 199.123 199.951 199.955 199.955
          199.955 199.924 196.689 197.453 199.135 199.832 199.952 199.951 199.955 199.955 199.955 199.955
          199.603 199.843 199.954 199.953 199.952 199.951 199.955 199.955 199.955 199.955 199.955 199.954
          199.954 199.953 199.952 199.951 199.955 199.955 199.955 199.955 199.955 199.954 199.954 199.953
          199.952 199.951 199.955 199.955 199.955 199.955 199.955 199.954 199.954 199.953 199.952 199.951
          199.955 199.955 199.955 199.955 199.954 199.954 199.953 199.953 199.952 199.951 199.955 199.955
          199.955 199.955 199.954 199.954 199.953 199.953 199.952 199.951 199.955 199.955 199.955 199.954
          199.539 199.765 199.953 199.953 199.952 199.951 199.955 199.955 199.955 199.922 195.98 196.687
          199.002 199.807 199.952 199.951 199.955 199.955 199.955 199.807 183.631 190.373 193.639 195.987
          199.134 199.951 199.955 199.955 199.955 199.922 195.825 196.546 198.906 199.802 199.952 199.951
          199.955 199.955 199.955 199.954 199.505 199.726 199.953 199.953 199.952 199.951 199.955 199.955
          199.955 199.955 199.954 199.954 199.953 199.953 199.952 199.951 199.955 199.955 199.955 199.955
          199.954 199.954 199.953 199.953 199.952 199.951 199.955 199.955 199.955 199.955 199.954 199.954
          199.953 199.953 199.952 199.951 199.955 199.955 199.955 199.954 199.954 199.953 199.953 199.952
          199.952 199.951 199.955 199.955 199.955 199.954 199.954 199.953 199.953 199.952 199.952 199.951
          199.955 199.955 199.954 199.954 199.502 199.715 199.953 199.952 199.952 199.951 199.955 199.955
          199.954 199.919 195.763 196.398 198.973 199.827 199.952 199.951 199.955 199.955 199.954 199.871
          183.615 190.279 193.596 196.217 199.326 199.951 199.955 199.955 199.954 199.919 195.599 196.274
          198.785 199.821 199.952 199.951 199.955 199.955 199.954 199.954 199.467 199.669 199.953 199.952
          199.952 199.951 199.955 199.955 199.955 199.954 199.954 199.953 199.953 199.952 199.952 199.951
          199.955 199.955 199.955 199.954 199.954 199.953 199.953 199.952 199.952 199.951 199.955 199.955
          199.955 199.954 199.954 199.953 199.953 199.952 199.952 199.951 199.955 199.955 199.954 199.954
          199.953 199.953 199.952 199.952 199.951 199.951 199.955 199.955 199.954 199.954 199.953 199.953
          199.952 199.952 199.951 199.951 199.955 199.955 199.954 199.954 199.493 199.7 199.952 199.952
          199.952 199.951 199.955 199.955 199.954 199.914 195.819 196.371 198.995 199.863 199.952 199.951
          199.955 199.955 199.954 199.874 183.773 190.31 193.714 196.689 199.557 199.951 199.955 199.955
          199.954 199.914 195.645 196.216 198.885 199.859 199.952 199.951 199.955 199.955 199.954 199.954
          199.456 199.648 199.952 199.952 199.952 199.951 199.955 199.955 199.954 199.954 199.953 199.953
          199.952 199.952 199.951 199.951 199.955 199.955 199.954 199.954 199.953 199.953 199.952 199.952
          199.951 199.951 199.955 199.955 199.954 199.954 199.953 199.953 199.952 199.952 199.951 199.951
          199.955 199.955 199.954 199.953 199.953 199.952 199.952 199.952 199.951 199.951 199.955 199.954
          199.954 199.953 199.953 199.952 199.952 199.952 199.951 199.951 199.955 199.954 199.954 199.953
          199.489 199.691 199.952 199.952 199.951 199.951 199.955 199.954 199.954 199.91 195.923 196.404
          199.029 199.899 199.951 199.951 199.955 199.954 199.954 199.914 183.94 190.357 193.847 197.237
          199.747 199.951 199.955 199.954 199.954 199.91 195.74 196.22 198.993 199.897 199.951 199.951
          199.955 199.954 199.954 199.953 199.449 199.634 199.952 199.952 199.951 199.951 199.955 199.954
          199.954 199.953 199.953 199.952 199.952 199.952 199.951 199.951 199.955 199.954 199.954 199.953
          199.953 199.952 199.952 199.952 199.951 199.951 199.955 199.954 199.954 199.953 199.953 199.952
          199.952 199.952 199.951 199.951 199.955 199.954 199.954 199.953 199.952 199.952 199.952 199.951
          199.951 199.951 199.955 199.954 199.954 199.953 199.952 199.952 199.952 199.951 199.951 199.951
          199.955 199.954 199.954 199.953 199.468 199.66 199.952 199.951 199.951 199.951 199.955 199.954
          199.953 199.906 195.929 196.388 199.052 199.924 199.951 199.951 199.955 199.954 199.953 199.901
          183.974 190.376 193.964 197.796 199.862 199.951 199.955 199.954 199.953 199.907 195.738 196.2
          199.015 199.923 199.951 199.951 199.955 199.954 199.953 199.953 199.428 199.601 199.952 199.951
          199.951 199.951 199.955 199.954 199.953 199.953 199.952 199.952 199.952 199.951 199.951 199.951
          199.955 199.954 199.953 199.953 199.952 199.952 199.951 199.951 199.951 199.951 199.955 199.954
          199.953 199.953 199.952 199.952 199.951 199.951 199.951 199.951 199.955 199.954 199.953 199.952
          199.952 199.951 199.951 199.951 199.951 199.951 199.955 199.954 199.953 199.952 199.952 199.951
          199.951 199.951 199.951 199.951 199.955 199.954 199.953 199.952 199.4 199.557 199.951 199.951
          199.951 199.951 199.955 199.954 199.953 199.907 195.501 196.086 199.02 199.931 199.951 199.951
          199.955 199.954 199.953 199.913 183.285 190.054 193.858 198.077 199.899 199.951 199.955 199.954
          199.953 199.907 195.304 195.926 198.835 199.929 199.951 199.951 199.955 199.954 199.953 199.952
          199.362 199.498 199.951 199.951 199.951 199.951 199.955 199.954 199.953 199.952 199.952 199.951
          199.951 199.951 199.951 199.951 199.955 199.954 199.953 199.952 199.952 199.951 199.951 199.951
          199.951 199.951 199.955 199.954 199.953 199.952 199.952 199.951 199.951 199.951 199.951 199.951
          199.955 199.953 199.952 199.952 199.951 199.951 199.95 199.95 199.95 199.95 199.955 199.953
          199.952 199.952 199.588 199.766 199.95 199.95 199.95 199.95 199.955 199.953 199.952 199.929
          196.062 196.369 198.987 199.95 199.95 199.95 199.955 199.953 199.952 199.914 188.118 189.77
          193.237 198.47 199.95 199.95 199.955 199.953 199.952 199.893 172.874 181.428 187.419 193.031
          199.061 199.95 199.955 199.953 199.952 199.914 187.887 189.565 193.08 198.317 199.95 199.95
          199.955 199.953 199.952 199.929 195.74 195.929 198.873 199.95 199.95 199.95 199.955 199.953
          199.952 199.952 199.485 199.687 199.95 199.95 199.95 199.95 199.955 199.953 199.952 199.952
          199.951 199.951 199.95 199.95 199.95 199.95 199.955 199.953 199.952 199.952 199.951 199.95
          199.95 199.95 199.95 199.95
        </DataArray>
        <DataArray type="Float32" Name="C^n from cellData" NumberOfComponents="1" format="ascii">
          0 0 0 3.49244e-15 6.38194e-11 4.53477e-12 1.40029e-13 2.5485e-15 8.04384e-18 0 0 0
          5.40278e-16 8.61016e-12 1.12132e-07 9.63665e-09 3.72673e-10 7.66024e-12 1.10515e-13 1.40555e-15 7.49478e-18 1.04565e-14 9.69625e-13 7.81832e-09
          9.00881e-05 7.9159e-06 4.65711e-07 1.08893e-08 1.57682e-10 2.08373e-12 2.82775e-13 1.39789e-11 1.03609e-09 3.67302e-06 0.0166266 0.00358641
          0.000410243 1.1503e-05 1.57809e-07 1.92952e-09 6.11138e-10 2.46385e-08 1.39936e-06 0.00142553 0.0420285 0.0246502 0.0187013 0.0077118
          0.000128779 1.62351e-06 4.81366e-13 2.51204e-11 1.87746e-09 4.82077e-06 0.0167879 0.00436889 0.000478662 1.29642e-05 1.77469e-07 2.16669e-09
          2.17281e-16 2.23785e-14 2.17842e-12 1.22111e-08 0.000153114 1.11467e-05 6.28859e-07 1.41694e-08 2.02111e-10 2.64137e-12 0 2.48574e-18
          1.67102e-15 1.79306e-11 2.07759e-07 1.6581e-08 6.24527e-10 1.24281e-11 1.75489e-13 2.09962e-15 0 0 0 1.31425e-14
          1.82101e-10 1.27454e-11 3.81724e-13 6.83032e-15 2.00621e-17 0 0 0 0 0 6.49026e-14 3.71759e-15
          6.11537e-17 0 0 0 0 0 0 1.05173e-14 6.59491e-10 3.45214e-11 1.06623e-12 1.60036e-14
          3.97221e-17 0 0 0 5.7015e-16 2.3256e-11 1.58081e-06 8.57827e-08 3.60335e-09 6.77725e-11 6.74938e-13 4.77617e-15