<?xml version="1.0"?>
<VTKFile type="UnstructuredGrid" version="0.1" byte_order="LittleEndian">
  <UnstructuredGrid>
    <Piece NumberOfCells="160" NumberOfPoints="205">
      <PointData Scalars="porosity" Vectors="u">
        <DataArray type="Float32" Name="porosity" NumberOfComponents="1" format="ascii">
          0.199998 0.199998 0.199998 0.199998 0.199998 0.199998 0.199998 0.199998 0.199998 0.199998 0.199998 0.199998
          0.199998 0.199998 0.199998 0.199998 0.199998 0.199998 0.199998 0.199998 0.199998 0.199998 0.199998 0.199998
          0.199998 0.199998 0.199998 0.199998 0.199998 0.199998 0.199998 0.199998 0.199998 0.199998 0.199998 0.199998
          0.199998 0.199998 0.199998 0.199998 0.199998 0.199998 0.199998 0.199998 0.199998 0.199998 0.199998 0.199998
          0.199998 0.199998 0.199998 0.199998 0.199998 0.199998 0.199998 0.199998 0.199997 0.199997 0.199997 0.199997
          0.199997 0.199997 0.199996 0.199996 0.199993 0.199993 0.199989 0.199989 0.19998 0.19998 0.199962 0.199962
          0.19993 0.19993 0.199877 0.199877 0.199797 0.199797 0.199689 0.199689 0.199689 0.199689 0.199998 0.199998
          0.199998 0.199998 0.199998 0.199998 0.199998 0.199998 0.199998 0.199998 0.199998 0.199998 0.199998 0.199998
          0.199998 0.199998 0.199998 0.199998 0.199998 0.199998 0.199998 0.199998 0.199998 0.199998 0.199998 0.199998
          0.199998 0.199998 0.199997 0.199997 0.199997 0.199996 0.199993 0.199989 0.19998 0.199962 0.19993 0.199877
          0.199797 0.199689 0.199689 0.199998 0.199998 0.199998 0.199998 0.199998 0.199998 0.199998 0.199998 0.199998
          0.199998 0.199998 0.199998 0.199998 0.199998 0.199998 0.199998 0.199998 0.199998 0.199998 0.199998 0.199998
          0.199998 0.199998 0.199998 0.199998 0.199998 0.199998 0.199998 0.199997 0.199997 0.199997 0.199996 0.199993
          0.199989 0.19998 0.199962 0.19993 0.199877 0.199797 0.199689 0.199689 0.199998 0.199998 0.199998 0.199998
          0.199998 0.199998 0.199998 0.199998 0.199998 0.199998 0.199998 0.199998 0.199998 0.199998 0.199998 0.199998
          0.199998 0.199998 0.199998 0.199998 0.199998 0.199998 0.199998 0.199998 0.199998 0.199998 0.199998 0.199998
          0.199997 0.199997 0.199997 0.199996 0.199993 0.199989 0.19998 0.199962 0.19993 0.199877 0.199797 0.199689
          0.199689
        </DataArray>
        <DataArray type="Float32" Name="u" NumberOfComponents="3" format="ascii">
          0 -0 0 0.00135539 -0 0 0 -0.00172504 0 0.00135539 -0.00172504 0
          0.00271078 -0 0 0.00271078 -0.00172504 0 0.00406616 -0 0 0.00406616 -0.00172504 0
          0.00542155 -0 0 0.00542155 -0.00172504 0 0.00677694 -0 0 0.00677694 -0.00172504 0
          0.00813233 -0 0 0.00813233 -0.00172504 0 0.00948772 -0 0 0.00948772 -0.00172504 0
          0.0108431 -0 0 0.0108431 -0.00172504 0 0.0121985 -0 0 0.0121985 -0.00172504 0
          0.0135539 -0 0 0.0135539 -0.00172504 0 0.0149093 -0 0 0.0149093 -0.00172504 0
          0.0162647 -0 0 0.0162647 -0.00172504 0 0.01762 -0 0 0.01762 -0.00172504 0
          0.0189754 -0 0 0.0189754 -0.00172504 0 0.0203308 -0 0 0.0203308 -0.00172504 0
          0.0216862 -0 0 0.0216862 -0.00172504 0 0.0230416 -0 0 0.0230416 -0.00172504 0
          0.024397 -0 0 0.024397 -0.00172504 0 0.0257524 -0 0 0.0257524 -0.00172504 0
          0.0271078 -0 0 0.0271078 -0.00172504 0 0.0284632 -0 0 0.0284632 -0.00172504 0
          0.0298185 -0 0 0.0298185 -0.00172504 0 0.0311739 -0 0 0.0311739 -0.00172504 0
          0.0325293 -0 0 0.0325293 -0.00172504 0 0.0338847 -0 0 0.0338847 -0.00172504 0
          0.03524 -0 0 0.03524 -0.00172504 0 0.0365954 -0 0 0.0365954 -0.00172504 0
          0.0379506 -0 0 0.0379506 -0.00172504 0 0.0393056 -0 0 0.0393056 -0.00172504 0
          0.04066 -0 0 0.04066 -0.00172504 0 0.0420133 -0 0 0.0420133 -0.00172504 0
          0.043364 -0 0 0.043364 -0.00172504 0 0.0447091 -0 0 0.0447091 -0.00172504 0
          0.0460426 -0 0 0.0460426 -0.00172504 0 0.047353 -0 0 0.047353 -0.00172504 0
          0.0486195 -0 0 0.0486195 -0.00172504 0 0.0498067 -0 0 0.0498067 -0.00172504 0
          0.0508612 -0 0 0.0508612 -0.00172504 0 0.051714 -0 0 0.051714 -0.00172504 0
          0.052297 -0 0 0.052297 -0.00172504 0 0 -0.00345007 0 0.00135539 -0.00345007 0
          0.00271078 -0.00345007 0 0.00406616 -0.00345007 0 0.00542155 -0.00345007 0 0.00677694 -0.00345007 0
          0.00813233 -0.00345007 0 0.00948772 -0.00345007 0 0.0108431 -0.00345007 0 0.0121985 -0.00345007 0
          0.0135539 -0.00345007 0 0.0149093 -0.00345007 0 0.0162647 -0.00345007 0 0.01762 -0.00345007 0
          0.0189754 -0.00345007 0 0.0203308 -0.00345007 0 0.0216862 -0.00345007 0 0.0230416 -0.00345007 0
          0.024397 -0.00345007 0 0.0257524 -0.00345007 0 0.0271078 -0.00345007 0 0.0284632 -0.00345007 0
          0.0298185 -0.00345007 0 0.0311739 -0.00345007 0 0.0325293 -0.00345007 0 0.0338847 -0.00345007 0
          0.03524 -0.00345007 0 0.0365954 -0.00345007 0 0.0379506 -0.00345007 0 0.0393056 -0.00345007 0
          0.04066 -0.00345007 0 0.0420133 -0.00345007 0 0.043364 -0.00345007 0 0.0447091 -0.00345007 0
          0.0460426 -0.00345007 0 0.047353 -0.00345007 0 0.0486195 -0.00345007 0 0.0498067 -0.00345007 0
          0.0508612 -0.00345007 0 0.051714 -0.00345007 0 0.052297 -0.00345007 0 0 -0.00517511 0
          0.00135539 -0.00517511 0 0.00271078 -0.00517511 0 0.00406616 -0.00517511 0 0.00542155 -0.00517511 0
          0.00677694 -0.00517511 0 0.00813233 -0.00517511 0 0.00948772 -0.00517511 0 0.0108431 -0.00517511 0
          0.0121985 -0.00517511 0 0.0135539 -0.00517511 0 0.0149093 -0.00517511 0 0.0162647 -0.00517511 0
          0.01762 -0.00517511 0 0.0189754 -0.00517511 0 0.0203308 -0.00517511 0 0.0216862 -0.00517511 0
          0.0230416 -0.00517511 0 0.024397 -0.00517511 0 0.0257524 -0.00517511 0 0.0271078 -0.00517511 0
          0.0284632 -0.00517511 0 0.0298185 -0.00517511 0 0.0311739 -0.00517511 0 0.0325293 -0.00517511 0
          0.0338847 -0.00517511 0 0.03524 -0.00517511 0 0.0365954 -0.00517511 0 0.0379506 -0.00517511 0
          0.0393056 -0.00517511 0 0.04066 -0.00517511 0 0.0420133 -0.00517511 0 0.043364 -0.00517511 0
          0.0447091 -0.00517511 0 0.0460426 -0.00517511 0 0.047353 -0.00517511 0 0.0486195 -0.00517511 0
          0.0498067 -0.00517511 0 0.0508612 -0.00517511 0 0.051714 -0.00517511 0 0.052297 -0.00517511 0
          0 -0.00690014 0 0.00135539 -0.00690014 0 0.00271078 -0.00690014 0 0.00406616 -0.00690014 0
          0.00542155 -0.00690014 0 0.00677694 -0.00690014 0 0.00813233 -0.00690014 0 0.00948772 -0.00690014 0
          0.0108431 -0.00690014 0 0.0121985 -0.00690014 0 0.0135539 -0.00690014 0 0.0149093 -0.00690014 0
          0.0162647 -0.00690014 0 0.01762 -0.00690014 0 0.0189754 -0.00690014 0 0.0203308 -0.00690014 0
          0.0216862 -0.00690014 0 0.0230416 -0.00690014 0 0.024397 -0.00690014 0 0.0257524 -0.00690014 0
          0.0271078 -0.00690014 0 0.0284632 -0.00690014 0 0.0298185 -0.00690014 0 0.0311739 -0.00690014 0
          0.0325293 -0.00690014 0 0.0338847 -0.00690014 0 0.03524 -0.00690014 0 0.0365954 -0.00690014 0
          0.0379506 -0.00690014 0 0.0393056 -0.00690014 0 0.04066 -0.00690014 0 0.0420133 -0.00690014 0
          0.043364 -0.00690014 0 0.0447091 -0.00690014 0 0.0460426 -0.00690014 0 0.047353 -0.00690014 0
          0.0486195 -0.00690014 0 0.0498067 -0.00690014 0 0.0508612 -0.00690014 0 0.051714 -0.00690014 0
          0.052297 -0.00690014 0
        </DataArray>
        <DataArray type="Float32" Name="uExact" NumberOfComponents="3" format="ascii">
          0 -0 0 0.00135539 -0 0 0 -0.00172504 0 0.00135539 -0.00172504 0
          0.00271077 -0 0 0.00271077 -0.00172504 0 0.00406616 -0 0 0.00406616 -0.00172504 0
          0.00542154 -0 0 0.00542154 -0.00172504 0 0.00677693 -0 0 0.00677693 -0.00172504 0
          0.00813231 -0 0 0.00813231 -0.00172504 0 0.0094877 -0 0 0.0094877 -0.00172504 0
          0.0108431 -0 0 0.0108431 -0.00172504 0 0.0121985 -0 0 0.0121985 -0.00172504 0
          0.0135539 -0 0 0.0135539 -0.00172504 0 0.0149092 -0 0 0.0149092 -0.00172504 0
          0.0162646 -0 0 0.0162646 -0.00172504 0 0.01762 -0 0 0.01762 -0.00172504 0
          0.0189754 -0 0 0.0189754 -0.00172504 0 0.0203308 -0 0 0.0203308 -0.00172504 0
          0.0216862 -0 0 0.0216862 -0.00172504 0 0.0230415 -0 0 0.0230415 -0.00172504 0
          0.0243969 -0 0 0.0243969 -0.00172504 0 0.0257523 -0 0 0.0257523 -0.00172504 0
          0.0271077 -0 0 0.0271077 -0.00172504 0 0.0284631 -0 0 0.0284631 -0.00172504 0
          0.0298185 -0 0 0.0298185 -0.00172504 0 0.0311739 -0 0 0.0311739 -0.00172504 0
          0.0325292 -0 0 0.0325292 -0.00172504 0 0.0338846 -0 0 0.0338846 -0.00172504 0
          0.03524 -0 0 0.03524 -0.00172504 0 0.0365954 -0 0 0.0365954 -0.00172504 0
          0.0379508 -0 0 0.0379508 -0.00172504 0 0.0393061 -0 0 0.0393061 -0.00172504 0
          0.0406614 -0 0 0.0406614 -0.00172504 0 0.0420163 -0 0 0.0420163 -0.00172504 0
          0.0433699 -0 0 0.0433699 -0.00172504 0 0.0447196 -0 0 0.0447196 -0.00172504 0
          0.0460586 -0 0 0.0460586 -0.00172504 0 0.0473728 -0 0 0.0473728 -0.00172504 0
          0.0486356 -0 0 0.0486356 -0.00172504 0 0.0498055 -0 0 0.0498055 -0.00172504 0
          0.0508279 -0 0 0.0508279 -0.00172504 0 0.0516449 -0 0 0.0516449 -0.00172504 0
          0.0522107 -0 0 0.0522107 -0.00172504 0 0 -0.00345007 0 0.00135539 -0.00345007 0
          0.00271077 -0.00345007 0 0.00406616 -0.00345007 0 0.00542154 -0.00345007 0 0.00677693 -0.00345007 0
          0.00813231 -0.00345007 0 0.0094877 -0.00345007 0 0.0108431 -0.00345007 0 0.0121985 -0.00345007 0
          0.0135539 -0.00345007 0 0.0149092 -0.00345007 0 0.0162646 -0.00345007 0 0.01762 -0.00345007 0
          0.0189754 -0.00345007 0 0.0203308 -0.00345007 0 0.0216862 -0.00345007 0 0.0230415 -0.00345007 0
          0.0243969 -0.00345007 0 0.0257523 -0.00345007 0 0.0271077 -0.00345007 0 0.0284631 -0.00345007 0
          0.0298185 -0.00345007 0 0.0311739 -0.00345007 0 0.0325292 -0.00345007 0 0.0338846 -0.00345007 0
          0.03524 -0.00345007 0 0.0365954 -0.00345007 0 0.0379508 -0.00345007 0 0.0393061 -0.00345007 0
          0.0406614 -0.00345007 0 0.0420163 -0.00345007 0 0.0433699 -0.00345007 0 0.0447196 -0.00345007 0
          0.0460586 -0.00345007 0 0.0473728 -0.00345007 0 0.0486356 -0.00345007 0 0.0498055 -0.00345007 0
          0.0508279 -0.00345007 0 0.0516449 -0.00345007 0 0.0522107 -0.00345007 0 0 -0.00517511 0
          0.00135539 -0.00517511 0 0.00271077 -0.00517511 0 0.00406616 -0.00517511 0 0.00542154 -0.00517511 0
          0.00677693 -0.00517511 0 0.00813231 -0.00517511 0 0.0094877 -0.00517511 0 0.0108431 -0.00517511 0
          0.0121985 -0.00517511 0 0.0135539 -0.00517511 0 0.0149092 -0.00517511 0 0.0162646 -0.00517511 0
          0.01762 -0.00517511 0 0.0189754 -0.00517511 0 0.0203308 -0.00517511 0 0.0216862 -0.00517511 0
          0.0230415 -0.00517511 0 0.0243969 -0.00517511 0 0.0257523 -0.00517511 0 0.0271077 -0.00517511 0
          0.0284631 -0.00517511 0 0.0298185 -0.00517511 0 0.0311739 -0.00517511 0 0.0325292 -0.00517511 0
          0.0338846 -0.00517511 0 0.03524 -0.00517511 0 0.0365954 -0.00517511 0 0.0379508 -0.00517511 0
          0.0393061 -0.00517511 0 0.0406614 -0.00517511 0 0.0420163 -0.00517511 0 0.0433699 -0.00517511 0
          0.0447196 -0.00517511 0 0.0460586 -0.00517511 0 0.0473728 -0.00517511 0 0.0486356 -0.00517511 0
          0.0498055 -0.00517511 0 0.0508279 -0.00517511 0 0.0516449 -0.00517511 0 0.0522107 -0.00517511 0
          0 -0.00690014 0 0.00135539 -0.00690014 0 0.00271077 -0.00690014 0 0.00406616 -0.00690014 0
          0.00542154 -0.00690014 0 0.00677693 -0.00690014 0 0.00813231 -0.00690014 0 0.0094877 -0.00690014 0
          0.0108431 -0.00690014 0 0.0121985 -0.00690014 0 0.0135539 -0.00690014 0 0.0149092 -0.00690014 0
          0.0162646 -0.00690014 0 0.01762 -0.00690014 0 0.0189754 -0.00690014 0 0.0203308 -0.00690014 0
          0.0216862 -0.00690014 0 0.0230415 -0.00690014 0 0.0243969 -0.00690014 0 0.0257523 -0.00690014 0
          0.0271077 -0.00690014 0 0.0284631 -0.00690014 0 0.0298185 -0.00690014 0 0.0311739 -0.00690014 0
          0.0325292 -0.00690014 0 0.0338846 -0.00690014 0 0.03524 -0.00690014 0 0.0365954 -0.00690014 0
          0.0379508 -0.00690014 0 0.0393061 -0.00690014 0 0.0406614 -0.00690014 0 0.0420163 -0.00690014 0
          0.0433699 -0.00690014 0 0.0447196 -0.00690014 0 0.0460586 -0.00690014 0 0.0473728 -0.00690014 0
          0.0486356 -0.00690014 0 0.0498055 -0.00690014 0 0.0508279 -0.00690014 0 0.0516449 -0.00690014 0
          0.0522107 -0.00690014 0
        </DataArray>
      </PointData>
      <CellData Scalars="process rank">
        <DataArray type="Float32" Name="process rank" NumberOfComponents="1" format="ascii">
          0 0 0 0 0 0 0 0 0 0 0 0
          0 0 0 0 0 0 0 0 0 0 0 0
          0 0 0 0 0 0 0 0 0 0 0 0
          0 0 0 0 0 0 0 0 0 0 0 0
          0 0 0 0 0 0 0 0 0 0 0 0
          0 0 0 0 0 0 0 0 0 0 0 0
          0 0 0 0 0 0 0 0 0 0 0 0
          0 0 0 0 0 0 0 0 0 0 0 0
          0 0 0 0 0 0 0 0 0 0 0 0
          0 0 0 0 0 0 0 0 0 0 0 0
          0 0 0 0 0 0 0 0 0 0 0 0
          0 0 0 0 0 0 0 0 0 0 0 0
          0 0 0 0 0 0 0 0 0 0 0 0
          0 0 0 0
        </DataArray>
      </CellData>
      <Points>
        <DataArray type="Float32" Name="Coordinates" NumberOfComponents="3" format="ascii">
          0 0 0 2.5 0 0 0 2.5 0 2.5 2.5 0
          5 0 0 5 2.5 0 7.5 0 0 7.5 2.5 0
          10 0 0 10 2.5 0 12.5 0 0 12.5 2.5 0
          15 0 0 15 2.5 0 17.5 0 0 17.5 2.5 0
          20 0 0 20 2.5 0 22.5 0 0 22.5 2.5 0
          25 0 0 25 2.5 0 27.5 0 0 27.5 2.5 0
          30 0 0 30 2.5 0 32.5 0 0 32.5 2.5 0
          35 0 0 35 2.5 0 37.5 0 0 37.5 2.5 0
          40 0 0 40 2.5 0 42.5 0 0 42.5 2.5 0
          45 0 0 45 2.5 0 47.5 0 0 47.5 2.5 0
          50 0 0 50 2.5 0 52.5 0 0 52.5 2.5 0
          55 0 0 55 2.5 0 57.5 0 0 57.5 2.5 0
          60 0 0 60 2.5 0 62.5 0 0 62.5 2.5 0
          65 0 0 65 2.5 0 67.5 0 0 67.5 2.5 0
          70 0 0 70 2.5 0 72.5 0 0 72.5 2.5 0
          75 0 0 75 2.5 0 77.5 0 0 77.5 2.5 0
          80 0 0 80 2.5 0 82.5 0 0 82.5 2.5 0
          85 0 0 85 2.5 0 87.5 0 0 87.5 2.5 0
          90 0 0 90 2.5 0 92.5 0 0 92.5 2.5 0
          95 0 0 95 2.5 0 97.5 0 0 97.5 2.5 0
          100 0 0 100 2.5 0 0 5 0 2.5 5 0
          5 5 0 7.5 5 0 10 5 0 12.5 5 0
          15 5 0 17.5 5 0 20 5 0 22.5 5 0
          25 5 0 27.5 5 0 30 5 0 32.5 5 0
          35 5 0 37.5 5 0 40 5 0 42.5 5 0
          45 5 0 47.5 5 0 50 5 0 52.5 5 0
          55 5 0 57.5 5 0 60 5 0 62.5 5 0
          65 5 0 67.5 5 0 70 5 0 72.5 5 0
          75 5 0 77.5 5 0 80 5 0 82.5 5 0
          85 5 0 87.5 5 0 90 5 0 92.5 5 0
          95 5 0 97.5 5 0 100 5 0 0 7.5 0
          2.5 7.5 0 5 7.5 0 7.5 7.5 0 10 7.5 0
          12.5 7.5 0 15 7.5 0 17.5 7.5 0 20 7.5 0
          22.5 7.5 0 25 7.5 0 27.5 7.5 0 30 7.5 0
          32.5 7.5 0 35 7.5 0 37.5 7.5 0 40 7.5 0
          42.5 7.5 0 45 7.5 0 47.5 7.5 0 50 7.5 0
          52.5 7.5 0 55 7.5 0 57.5 7.5 0 60 7.5 0
          62.5 7.5 0 65 7.5 0 67.5 7.5 0 70 7.5 0
          72.5 7.5 0 75 7.5 0 77.5 7.5 0 80 7.5 0
          82.5 7.5 0 85 7.5 0 87.5 7.5 0 90 7.5 0
          92.5 7.5 0 95 7.5 0 97.5 7.5 0 100 7.5 0
          0 10 0 2.5 10 0 5 10 0 7.5 10 0
          10 10 0 12.5 10 0 15 10 0 17.5 10 0
          20 10 0 22.5 10 0 25 10 0 27.5 10 0
          30 10 0 32.5 10 0 35 10 0 37.5 10 0
          40 10 0 42.5 10 0 45 10 0 47.5 10 0
          50 10 0 52.5 10 0 55 10 0 57.5 10 0
          60 10 0 62.5 10 0 65 10 0 67.5 10 0
          70 10 0 72.5 10 0 75 10 0 77.5 10 0
          80 10 0 82.5 10 0 85 10 0 87.5 10 0
          90 10 0 92.5 10 0 95 10 0 97.5 10 0
          100 10 0
        </DataArray>
      </Points>
      <Cells>
        <DataArray type="Int32" Name="connectivity" NumberOfComponents="1" format="ascii">
          0 1 3 2 1 4 5 3 4 6 7 5
          6 8 9 7 8 10 11 9 10 12 13 11
          12 14 15 13 14 16 17 15 16 18 19 17
          18 20 21 19 20 22 23 21 22 24 25 23
          24 26 27 25 26 28 29 27 28 30 31 29
          30 32 33 31 32 34 35 33 34 36 37 35
          36 38 39 37 38 40 41 39 40 42 43 41
          42 44 45 43 44 46 47 45 46 48 49 47
          48 50 51 49 50 52 53 51 52 54 55 53
          54 56 57 55 56 58 59 57 58 60 61 59
          60 62 63 61 62 64 65 63 64 66 67 65
          66 68 69 67 68 70 71 69 70 72 73 71
          72 74 75 73 74 76 77 75 76 78 79 77
          78 80 81 79 2 3 83 82 3 5 84 83
          5 7 85 84 7 9 86 85 9 11 87 86
          11 13 88 87 13 15 89 88 15 17 90 89
          17 19 91 90 19 21 92 91 21 23 93 92
          23 25 94 93 25 27 95 94 27 29 96 95
          29 31 97 96 31 33 98 97 33 35 99 98
          35 37 100 99 37 39 101 100 39 41 102 101
          41 43 103 102 43 45 104 103 45 47 105 104
          47 49 106 105 49 51 107 106 51 53 108 107
          53 55 109 108 55 57 110 109 57 59 111 110
          59 61 112 111 61 63 113 112 63 65 114 113
          65 67 115 114 67 69 116 115 69 71 117 116
          71 73 118 117 73 75 119 118 75 77 120 119
          77 79 121 120 79 81 122 121 82 83 124 123
          83 84 125 124 84 85 126 125 85 86 127 126
          86 87 128 127 87 88 129 128 88 89 130 129
          89 90 131 130 90 91 132 131 91 92 133 132
          92 93 134 133 93 94 135 134 94 95 136 135
          95 96 137 136 96 97 138 137 97 98 139 138
          98 99 140 139 99 100 141 140 100 101 142 141
          101 102 143 142 102 103 144 143 103 104 145 144
          104 105 146 145 105 106 147 146 106 107 148 147
          107 108 149 148 108 109 150 149 109 110 151 150
          110 111 152 151 111 112 153 152 112 113 154 153
          113 114 155 154 114 115 156 155 115 116 157 156
          116 117 158 157 117 118 159 158 118 119 160 159
          119 120 161 160 120 121 162 161 121 122 163 162
          123 124 165 164 124 125 166 165 125 126 167 166
          126 127 168 167 127 128 169 168 128 129 170 169
          129 130 171 170 130 131 172 171 131 132 173 172
          132 133 174 173 133 134 175 174 134 135 176 175
          135 136 177 176 136 137 178 177 137 138 179 178
          138 139 180 179 139 140 181 180 140 141 182 181
          141 142 183 182 142 143 184 183 143 144 185 184
          144 145 186 185 145 146 187 186 146 147 188 187
          147 148 189 188 148 149 190 189 149 150 191 190
          150 151 192 191 151 152 193 192 152 153 194 193
          153 154 195 194 154 155 196 195 155 156 197 196
          156 157 198 197 157 158 199 198 158 159 200 199
          159 160 201 200 160 161 202 201 161 162 203 202
          162 163 204 203
        </DataArray>
        <DataArray type="Int32" Name="offsets" NumberOfComponents="1" format="ascii">
          4 8 12 16 20 24 28 32 36 40 44 48
          52 56 60 64 68 72 76 80 84 88 92 96
          100 104 108 112 116 120 124 128 132 136 140 144
          148 152 156 160 164 168 172 176 180 184 188 192
          196 200 204 208 212 216 220 224 228 232 236 240
          244 248 252 256 260 264 268 272 276 280 284 288
          292 296 300 304 308 312 316 320 324 328 332 336
          340 344 348 352 356 360 364 368 372 376 380 384
          388 392 396 400 404 408 412 416 420 424 428 432
          436 440 444 448 452 456 460 464 468 472 476 480
          484 488 492 496 500 504 508 512 516 520 524 528
          532 536 540 544 548 552 556 560 564 568 572 576
          580 584 588 592 596 600 604 608 612 616 620 624
          628 632 636 640
        </DataArray>
        <DataArray type="UInt8" Name="types" NumberOfComponents="1" format="ascii">
          9 9 9 9 9 9 9 9 9 9 9 9
          9 9 9 9 9 9 9 9 9 9 9 9
          9 9 9 9 9 9 9 9 9 9 9 9
          9 9 9 9 9 9 9 9 9 9 9 9
          9 9 9 9 9 9 9 9 9 9 9 9
          9 9 9 9 9 9 9 9 9 9 9 9
          9 9 9 9 9 9 9 9 9 9 9 9
          9 9 9 9 9 9 9 9 9 9 9 9
          9 9 9 9 9 9 9 9 9 9 9 9
          9 9 9 9 9 9 9 9 9 9 9 9
          9 9 9 9 9 9 9 9 9 9 9 9
          9 9 9 9 9 9 9 9 9 9 9 9
          9 9 9 9 9 9 9 9 9 9 9 9
          9 9 9 9
        </DataArray>
      </Cells>
    </Piece>
  </UnstructuredGrid>
</VTKFile>
