<?xml version="1.0"?>
<VTKFile type="UnstructuredGrid" version="0.1" byte_order="LittleEndian">
  <UnstructuredGrid>
    <Piece NumberOfCells="1927" NumberOfPoints="526">
      <PointData Scalars="p">
        <DataArray type="Float32" Name="p" NumberOfComponents="1" format="ascii">
          1.87805 2 1.87832 2 2 1.84227 2 1.78511 2 1.87808 2 1.72406
          1.69542 1.72491 1.80032 1.69659 1.73365 1.87729 2 2 2 2 1.79791 1.68755
          1.70429 1.82501 2 2 2 1.87603 1.79257 1.70596 1.64114 1.73704 2 2
          1.52532 1.63943 1.74367 1.61832 1.61566 1.56293 1.55502 1.55112 1.49855 1.50085 1.49856 1.58733
          1.50216 1.53644 1.40995 1.455 1.53277 1.60146 1.63534 1.50341 1.45572 1.51054 1.50104 2
          1.81908 2 2 1.63237 1.52533 1.87431 1.78542 2 2 1.73524 1.6401 2
          2 1.75652 1.51384 2 2 1.51419 1.51219 1.50562 1.75748 1.54467 1.51067 1.44296
          1.51013 1.47005 1.50063 1.54824 1.51209 1.50496 1.50807 1.48896 1.50816 1.5049 1.50403 1.50065
          2 2 1.81974 2 1.87701 2 1.70777 1.68777 1.79713 1.7834 2 1.73577
          2 1.63698 2 2 1.87843 2 1.87724 1.84183 2 1.72348 1.69479 1.72378
          2 2 1.87851 2 1.79344 1.68908 1.55028 1.54525 1.45005 1.58698 1.50109 1.55244
          1.49816 1.61763 1.6179 1.56312 1.49999 1.49993 1.43773 1.58677 1.50017 1.54719 2 1.73576
          1.52813 2 2 1.51468 2 1.81565 2 1.63645 1.78496 2 1.8729 1.74061
          1.54649 1.51061 1.50844 1.50519 1.51284 1.49669 1.50115 1.54363 1.44628 1.61732 1.50412 1.439
          1.38729 1.38695 1.38118 1.42079 1.30623 1.276 1.27665 1.31462 1.20639 1.26779 1.1507 1.2986
          1.20466 1.37496 1.48949 1.3976 1.39437 1.18397 1.20387 1.36002 1.47646 1.159 1.12376 1.12347
          1.12199 1 1 1 1 1 1 1.12288 1 1 1 1
          1.2653 1.12194 1 1 1 1.25194 1 1 1 1.37451 1.41557 1.3783
          1.28058 1.22712 1.36461 1.49029 1.47527 1.25512 1.49668 1.49007 1.49304 1.48712 1.48999 1.49661
          1.49293 1.49728 1.48683 1.49572 1.17902 1 1 1 1.12183 1.20401 1 1
          1 1.24825 1 1.24284 1 1.44736 1.38644 1.2971 1.30599 1.36203 1.27479 1.38636
          1.27604 1.21009 1.30578 1.27645 1.3058 1.17758 1.12322 1.20003 1 1 1 1
          1.24669 1 1.12271 1.15928 1.12424 1 1 1 1 1.20579 1.12345 1
          1 1 1.4455 1.30969 1.49286 1.48973 1.48654 1.48986 1.47528 1.44542 1.37408 1.28884
          1.26554 1.37473 1 1 1 1 1.17599 1 1 1.22122 1.13039 1
          1 2 1.82395 2 1.73413 1.70545 2 2 1.87739 1.78139 2 1.69602
          1.79893 1.73678 1.63569 2 1.51435 2 2 1.52829 1.51268 1.60281 1.53372 1.55108
          1.45153 1.61866 1.49906 1.55099 1.50829 1.5049 1.49703 1.51042 1.53443 1.45976 1.50033 2
          1.87663 2 2 2 1.72594 2 1.87654 2 1.8412 1.87607 2 1.7248
          1.69669 1.79393 1.69245 1.68528 2 1.78453 2 1.63724 1.82333 2 1.87105 2
          1.70969 1.74108 1.51339 1.61786 1.50055 1.56466 1.50032 1.50089 1.61988 1.47302 1.5163 1.55389
          1.45032 2 1.74114 2 2 1.73515 1.78274 1.636 2 1.68564 2 1.82302
          1.7093 2 2 1.87797 1.69359 1.54725 1.48865 1.53215 1.53599 1.45656 1.55651 1.45628
          1.55464 1.49927 2 2 1.68985 1.81701 1.87884 2 2 2 2 1.8776
          1.79437 1.72178 1.87696 2 2 1.84097 1.79338 1.7233 1.69382 1.54625 1.58845 1.50327
          1.44481 1.61507 1.49897 1.61791 1.56279 1.41212 1.50148 1.44008 1.38997 1.41869 1.37943 1.31284
          1.18245 1.26836 1.44447 1.49665 1.24442 1.49305 1.48712 1.39152 1.49049 1.49009 1.47484 1
          1 1 1.12179 1 1 1 1 1 1.23094 1 1.38676 1.38476
          1.40591 1.208 1.27527 1.27395 1.43824 1.41723 1.3048 1.31021 1.20654 1.35507 1.18778 1.26718
          1.37879 1.1524 1.12422 1 1 1 1 1.15874 1.124 1.12269 1 1
          1 1.22937 1 1 1.12166 1 1.41562 1.40009 1.25892 1.3861 1.26849 1.21961
          1.38382 1.4223 1.3158 1.17897 1 1 1 1.12129 1.15109 1 1 1.29057
          1.30431 1.3889 1.27734 1.20853 1.27843 1.38853 1.2079 1.30769 1 1 1.18121 1.12308
          1 1 1.12517 1 1 1 1.12381 1.16012 1 1
        </DataArray>
      </PointData>
      <CellData Scalars="process rank">
        <DataArray type="Float32" Name="process rank" NumberOfComponents="1" format="ascii">
          0 0 0 0 0 0 0 0 0 0 0 0
          0 0 0 0 0 0 0 0 0 0 0 0
          0 0 0 0 0 0 0 0 0 0 0 0
          0 0 0 0 0 0 0 0 0 0 0 0
          0 0 0 0 0 0 0 0 0 0 0 0
          0 0 0 0 0 0 0 0 0 0 0 0
          0 0 0 0 0 0 0 0 0 0 0 0
          0 0 0 0 0 0 0 0 0 0 0 0
          0 0 0 0 0 0 0 0 0 0 0 0
          0 0 0 0 0 0 0 0 0 0 0 0
          0 0 0 0 0 0 0 0 0 0 0 0
          0 0 0 0 0 0 0 0 0 0 0 0
          0 0 0 0 0 0 0 0 0 0 0 0
          0 0 0 0 0 0 0 0 0 0 0 0
          0 0 0 0 0 0 0 0 0 0 0 0
          0 0 0 0 0 0 0 0 0 0 0 0
          0 0 0 0 0 0 0 0 0 0 0 0
          0 0 0 0 0 0 0 0 0 0 0 0
          0 0 0 0 0 0 0 0 0 0 0 0
          0 0 0 0 0 0 0 0 0 0 0 0
          0 0 0 0 0 0 0 0 0 0 0 0
          0 0 0 0 0 0 0 0 0 0 0 0
          0 0 0 0 0 0 0 0 0 0 0 0
          0 0 0 0 0 0 0 0 0 0 0 0
          0 0 0 0 0 0 0 0 0 0 0 0
          0 0 0 0 0 0 0 0 0 0 0 0
          0 0 0 0 0 0 0 0 0 0 0 0
          0 0 0 0 0 0 0 0 0 0 0 0
          0 0 0 0 0 0 0 0 0 0 0 0
          0 0 0 0 0 0 0 0 0 0 0 0
          0 0 0 0 0 0 0 0 0 0 0 0
          0 0 0 0 0 0 0 0 0 0 0 0
          0 0 0 0 0 0 0 0 0 0 0 0
          0 0 0 0 0 0 0 0 0 0 0 0
          0 0 0 0 0 0 0 0 0 0 0 0
          0 0 0 0 0 0 0 0 0 0 0 0
          0 0 0 0 0 0 0 0 0 0 0 0
          0 0 0 0 0 0 0 0 0 0 0 0
          0 0 0 0 0 0 0 0 0 0 0 0
          0 0 0 0 0 0 0 0 0 0 0 0
          0 0 0 0 0 0 0 0 0 0 0 0
          0 0 0 0 0 0 0 0 0 0 0 0
          0 0 0 0 0 0 0 0 0 0 0 0
          0 0 0 0 0 0 0 0 0 0 0 0
          0 0 0 0 0 0 0 0 0 0 0 0
          0 0 0 0 0 0 0 0 0 0 0 0
          0 0 0 0 0 0 0 0 0 0 0 0
          0 0 0 0 0 0 0 0 0 0 0 0
          0 0 0 0 0 0 0 0 0 0 0 0
          0 0 0 0 0 0 0 0 0 0 0 0
          0 0 0 0 0 0 0 0 0 0 0 0
          0 0 0 0 0 0 0 0 0 0 0 0
          0 0 0 0 0 0 0 0 0 0 0 0
          0 0 0 0 0 0 0 0 0 0 0 0
          0 0 0 0 0 0 0 0 0 0 0 0
          0 0 0 0 0 0 0 0 0 0 0 0
          0 0 0 0 0 0 0 0 0 0 0 0
          0 0 0 0 0 0 0 0 0 0 0 0
          0 0 0 0 0 0 0 0 0 0 0 0
          0 0 0 0 0 0 0 0 0 0 0 0
          0 0 0 0 0 0 0 0 0 0 0 0
          0 0 0 0 0 0 0 0 0 0 0 0
          0 0 0 0 0 0 0 0 0 0 0 0
          0 0 0 0 0 0 0 0 0 0 0 0
          0 0 0 0 0 0 0 0 0 0 0 0
          0 0 0 0 0 0 0 0 0 0 0 0
          0 0 0 0 0 0 0 0 0 0 0 0
          0 0 0 0 0 0 0 0 0 0 0 0
          0 0 0 0 0 0 0 0 0 0 0 0
          0 0 0 0 0 0 0 0 0 0 0 0
          0 0 0 0 0 0 0 0 0 0 0 0
          0 0 0 0 0 0 0 0 0 0 0 0
          0 0 0 0 0 0 0 0 0 0 0 0
          0 0 0 0 0 0 0 0 0 0 0 0
          0 0 0 0 0 0 0 0 0 0 0 0
          0 0 0 0 0 0 0 0 0 0 0 0
          0 0 0 0 0 0 0 0 0 0 0 0
          0 0 0 0 0 0 0 0 0 0 0 0
          0 0 0 0 0 0 0 0 0 0 0 0
          0 0 0 0 0 0 0 0 0 0 0 0
          0 0 0 0 0 0 0 0 0 0 0 0
          0 0 0 0 0 0 0 0 0 0 0 0
          0 0 0 0 0 0 0 0 0 0 0 0
          0 0 0 0 0 0 0 0 0 0 0 0
          0 0 0 0 0 0 0 0 0 0 0 0
          0 0 0 0 0 0 0 0 0 0 0 0
          0 0 0 0 0 0 0 0 0 0 0 0
          0 0 0 0 0 0 0 0 0 0 0 0
          0 0 0 0 0 0 0 0 0 0 0 0
          0 0 0 0 0 0 0 0 0 0 0 0
          0 0 0 0 0 0 0 0 0 0 0 0
          0 0 0 0 0 0 0 0 0 0 0 0
          0 0 0 0 0 0 0 0 0 0 0 0
          0 0 0 0 0 0 0 0 0 0 0 0
          0 0 0 0 0 0 0 0 0 0 0 0
          0 0 0 0 0 0 0 0 0 0 0 0
          0 0 0 0 0 0 0 0 0 0 0 0
          0 0 0 0 0 0 0 0 0 0 0 0
          0 0 0 0 0 0 0 0 0 0 0 0
          0 0 0 0 0 0 0 0 0 0 0 0
          0 0 0 0 0 0 0 0 0 0 0 0
          0 0 0 0 0 0 0 0 0 0 0 0
          0 0 0 0 0 0 0 0 0 0 0 0
          0 0 0 0 0 0 0 0 0 0 0 0
          0 0 0 0 0 0 0 0 0 0 0 0
          0 0 0 0 0 0 0 0 0 0 0 0
          0 0 0 0 0 0 0 0 0 0 0 0
          0 0 0 0 0 0 0 0 0 0 0 0
          0 0 0 0 0 0 0 0 0 0 0 0
          0 0 0 0 0 0 0 0 0 0 0 0
          0 0 0 0 0 0 0 0 0 0 0 0
          0 0 0 0 0 0 0 0 0 0 0 0
          0 0 0 0 0 0 0 0 0 0 0 0
          0 0 0 0 0 0 0 0 0 0 0 0
          0 0 0 0 0 0 0 0 0 0 0 0
          0 0 0 0 0 0 0 0 0 0 0 0
          0 0 0 0 0 0 0 0 0 0 0 0
          0 0 0 0 0 0 0 0 0 0 0 0
          0 0 0 0 0 0 0 0 0 0 0 0
          0 0 0 0 0 0 0 0 0 0 0 0
          0 0 0 0 0 0 0 0 0 0 0 0
          0 0 0 0 0 0 0 0 0 0 0 0
          0 0 0 0 0 0 0 0 0 0 0 0
          0 0 0 0 0 0 0 0 0 0 0 0
          0 0 0 0 0 0 0 0 0 0 0 0
          0 0 0 0 0 0 0 0 0 0 0 0
          0 0 0 0 0 0 0 0 0 0 0 0
          0 0 0 0 0 0 0 0 0 0 0 0
          0 0 0 0 0 0 0 0 0 0 0 0
          0 0 0 0 0 0 0 0 0 0 0 0
          0 0 0 0 0 0 0 0 0 0 0 0
          0 0 0 0 0 0 0 0 0 0 0 0
          0 0 0 0 0 0 0 0 0 0 0 0
          0 0 0 0 0 0 0 0 0 0 0 0
          0 0 0 0 0 0 0 0 0 0 0 0
          0 0 0 0 0 0 0 0 0 0 0 0
          0 0 0 0 0 0 0 0 0 0 0 0
          0 0 0 0 0 0 0 0 0 0 0 0
          0 0 0 0 0 0 0 0 0 0 0 0
          0 0 0 0 0 0 0 0 0 0 0 0
          0 0 0 0 0 0 0 0 0 0 0 0
          0 0 0 0 0 0 0 0 0 0 0 0
          0 0 0 0 0 0 0 0 0 0 0 0
          0 0 0 0 0 0 0 0 0 0 0 0
          0 0 0 0 0 0 0 0 0 0 0 0
          0 0 0 0 0 0 0 0 0 0 0 0
          0 0 0 0 0 0 0 0 0 0 0 0
          0 0 0 0 0 0 0 0 0 0 0 0
          0 0 0 0 0 0 0 0 0 0 0 0
          0 0 0 0 0 0 0 0 0 0 0 0
          0 0 0 0 0 0 0 0 0 0 0 0
          0 0 0 0 0 0 0 0 0 0 0 0
          0 0 0 0 0 0 0 0 0 0 0 0
          0 0 0 0 0 0 0 0 0 0 0 0
          0 0 0 0 0 0 0 0 0 0 0 0
          0 0 0 0 0 0 0 0 0 0 0 0
          0 0 0 0 0 0 0 0 0 0 0 0
          0 0 0 0 0 0 0 0 0 0 0 0
          0 0 0 0 0 0 0 0 0 0 0 0
          0 0 0 0 0 0 0 0 0 0 0 0
          0 0 0 0 0 0 0
        </DataArray>
      </CellData>
      <Points>
        <DataArray type="Float32" Name="Coordinates" NumberOfComponents="3" format="ascii">
          0 0.108636 0.108307 0 0 0 0.108636 0.108307 0 0.108307 0 0.108636
          0.142857 0 0 0 0.142857 0 0 0 0.142857 0.180062 0.180062 0.180062
          0.254705 0 0.103211 0.254705 0.103211 0 0.285714 0 0 0.103211 0.254705 0
          0 0.285714 0 0 0.254705 0.103211 0.183029 0.180271 0 0.278892 0.267859 0
          0.35453 0.198466 0.16527 0 0.103211 0.254705 0.103211 0 0.254705 0 0 0.285714
          0.180271 0 0.183029 0.267859 0 0.278892 0 0.183029 0.180271 0 0.278892 0.267859
          0.157751 0.226836 0.361592 0.366074 0.138287 0 0.36792 0 0.144779 0.428571 0 0
          0.500098 0 0.0948026 0.499934 0.0947856 0 0.493544 0.143153 0.143155 0.395584 0.243152 0
          0.460454 0.276453 0.118893 0.5 0.210976 0 0.429321 0 0.324602 0.5 0 0.210976
          0.5 0.25 0.25 0.266351 0.3125 0.266351 0.3125 0.161926 0.355058 0 0.366074 0.138287
          0.144779 0.36792 0 0 0.428571 0 0.163459 0.42943 0.177043 0.325216 0.429937 0
          0.0948051 0.500096 0 0 0.499934 0.0947856 0.210976 0.5 0 0 0.395584 0.243152
          0 0.5 0.210976 0.177053 0.4375 0.352421 0.114939 0.618585 0.235633 0.251909 0.566567 0.251909
          0.350336 0.439967 0.175544 0.437369 0.355488 0 0.574809 0.321174 0 0.501508 0.500333 0
          0.355488 0.562631 0 0.5 0.375 0.25 0.5 0.5 0.25 0.138287 0 0.366074
          0 0.144779 0.36792 0 0 0.428571 0.243152 0 0.395584 0 0.324658 0.429285
          0.25 0.25 0.5 0 0.0948051 0.500096 0.143165 0.143144 0.506458 0.0947856 0 0.499934
          0.210976 0 0.5 0 0.210976 0.5 0.118892 0.276443 0.539542 0.355488 0 0.437369
          0.562631 0 0.355488 0.4375 0.127173 0.4375 0.5 0.25 0.375 0.321119 0 0.574557
          0.5 0 0.5 0.375 0.25 0.5 0.329409 0.326542 0.5 0.5 0.25 0.5
          0.5625 0.127173 0.5625 0 0.437369 0.355488 0.25 0.375 0.5 0 0.574711 0.321021
          0 0.500921 0.499412 0.127427 0.5625 0.436488 0.25 0.5 0.5 0.364917 0.370263 0.364917
          0.5 0.326542 0.329409 0.5 0.425983 0.373141 0.5 0.338542 0.411458 0.352089 0.53675 0.367038
          0.411458 0.338542 0.5 0.373141 0.425983 0.5 0.5 0.375 0.5 0.5 0.5 0.5
          0.571429 0 0 0.633956 0 0.138239 0.632665 0.144406 0 0.714286 0 0
          0.745295 0.103211 0 0.745295 0 0.103211 0.639408 0.224543 0.15223 0.732798 0.278473 0
          0.819894 0.182924 0 0.819937 0.180063 0.180063 0.604529 0 0.242976 0.644949 0.161898 0.3125
          0.721527 0 0.267202 0.733649 0.3125 0.266351 0.857143 0 0 0.891377 0 0.108288
          0.891712 0.108623 0 1 0 0 1 0.108623 0.108288 1 0.142857 0
          1 0 0.142857 0.896789 0.254705 0 1 0.285714 0 1 0.254705 0.103211
          0.817076 0 0.180106 0.896789 0 0.254705 1 0.103211 0.254705 1 0 0.285714
          1 0.182924 0.180106 1 0.278473 0.267202 0.643151 0.418878 0.169148 0.644512 0.437369 0
          0.642383 0.586214 0.171079 0.757024 0.395471 0 0.789024 0.5 0 0.82384 0.432179 0.164423
          0.691775 0.504012 0.308225 0.861761 0.366044 0 1 0.366044 0.138239 1 0.428571 0
          0.905217 0.499933 0 1 0.499902 0.0948026 1 0.571429 0 1 0.395471 0.242976
          1 0.5 0.210976 0.830852 0.418878 0.356849 0.678881 0 0.425443 0.811386 0.184608 0.352456
          0.75 0.25 0.5 0.644512 0 0.562631 0.789024 0 0.5 0.625 0.25 0.5
          0.855594 0 0.367335 1 0.144406 0.367335 1 0 0.428571 1 0.320867 0.425387
          0.856845 0.143156 0.513519 0.905214 0 0.500066 1 0.0947831 0.500067 1 0.210976 0.5
          0.635083 0.370263 0.364917 0.75 0.375 0.5 0.588542 0.338542 0.5 0.626859 0.425983 0.5
          0.670591 0.326542 0.5 0.622608 0.570206 0.5 0.75 0.5 0.5 1 0.437369 0.355488
          0.828921 0.586214 0.357617 1 0.355488 0.562631 1 0.498492 0.499667 0 0.571429 0
          0.138287 0.633926 0 0 0.632665 0.144406 0.218303 0.656653 0.137662 0.243152 0.604416 0
          0 0.714286 0 0 0.745295 0.103211 0.103211 0.745295 0 0.267859 0.721108 0
          0.180271 0.816971 0 0.216706 0.783295 0.216758 0.126175 0.874424 0.164473 0 0.732798 0.278473
          0 0.819894 0.182924 0.429413 0.675419 0 0.5 0.625 0.25 0.562631 0.644512 0
          0.353899 0.6875 0.19206 0.36792 0.855221 0 0.427027 0.864406 0.177607 0.53833 0.727508 0.118443
          0.5 0.75 0.25 0 0.857143 0 0.108307 0.891364 0 0 0.891712 0.108623
          0.254705 0.896789 0 0 1 0 0.108623 1 0.108288 0.142857 1 0
          0 1 0.142857 0.285714 1 0 0.254705 1 0.103211 0 0.896789 0.254705
          0.103211 1 0.254705 0 1 0.285714 0.182924 1 0.180106 0.278473 1 0.267202
          0.5 0.789024 0 0.500098 0.905197 0 0.366044 1 0.138239 0.428571 1 0
          0.499933 1 0.0947831 0.357592 0.839164 0.3125 0.395471 1 0.242976 0.5 1 0.210976
          0.437369 1 0.355488 0.160832 0.6875 0.3576 0.317488 0.675588 0.34495 0 0.644512 0.437369
          0 0.757024 0.395471 0.150824 0.841177 0.398912 0 0.676245 0.571471 0.25 0.625 0.5
          0.25 0.75 0.5 0 0.789024 0.5 0.5 0.570206 0.377392 0.5 0.661125 0.341841
          0.5 0.671266 0.418846 0.5 0.75 0.375 0.341841 0.661125 0.5 0.377392 0.570206 0.5
          0.418846 0.671266 0.5 0.5 0.625 0.5 0.375 0.75 0.5 0.5 0.75 0.5
          0 0.861761 0.366044 0.144406 1 0.367335 0 1 0.428571 0.321174 1 0.425191
          0 0.905197 0.499902 0.177699 0.86447 0.572902 0.0947856 1 0.500066 0 1 0.571429
          0.210976 1 0.5 0.5625 0.872827 0.4375 0.574613 1 0.320867 0.4375 0.872827 0.5625
          0.500333 1 0.498492 0.679133 0.574613 0 0.855594 0.632665 0 0.604529 0.757024 0
          0.721527 0.732798 0 0.748855 0.6875 0.251145 0.645716 0.801954 0.165435 1 0.63208 0.144779
          0.896789 0.745295 0 0.825242 0.825233 0.174767 1 0.714286 0 1 0.745295 0.103211
          1 0.732141 0.278892 0.633956 0.861761 0 0.745295 0.896789 0 0.817076 0.819894 0
          0.571429 1 0 0.632665 1 0.144406 0.714286 1 0 0.745295 1 0.103211
          0.6875 0.835513 0.34886 0.732798 1 0.278473 0.891377 0.891712 0 1 0.857143 0
          1 0.891693 0.108636 0.857143 1 0 0.891712 1 0.108623 1 1 0
          1 1 0.142857 1 0.819729 0.183029 1 0.896789 0.254705 0.819894 1 0.182924
          0.896789 1 0.254705 1 1 0.285714 0.623976 0.698995 0.376024 0.838775 0.770451 0.362177
          0.581154 0.671266 0.5 0.75 0.625 0.5 0.625 0.75 0.5 0.658159 0.661125 0.5
          0.75 0.75 0.5 1 0.570587 0.324581 1 0.644512 0.437369 1 0.756848 0.395584
          1 0.789024 0.5 1 0.674784 0.570063 0.644512 1 0.437369 0.757024 1 0.395471
          0.675419 1 0.570587 0.789024 1 0.5 1 0.861713 0.366074 0.861761 1 0.366044
          1 1 0.428571 0.85684 0.856841 0.485652 1 0.905195 0.499904 0.905197 1 0.499902
          1 1 0.571429 0 0 0.571429 0 0.138287 0.633926 0.144406 0 0.632665
          0.16527 0.198466 0.64547 0 0.243152 0.604416 0 0 0.714286 0.103211 0 0.745295
          0 0.103211 0.745295 0.180062 0.180063 0.819938 0.278473 0 0.732798 0 0.267859 0.721108
          0 0.180271 0.816971 0.355051 0.161898 0.6875 0.266351 0.3125 0.733649 0.437369 0 0.644512
          0.5 0.25 0.625 0.395471 0 0.757024 0.5 0 0.789024 0.5 0.25 0.75
          0.5 0.326542 0.670591 0 0.355488 0.562631 0.175541 0.439967 0.649664 0 0.429962 0.674824
          0 0.562631 0.644512 0 0.36792 0.855221 0 0.5 0.789024 0.364917 0.370263 0.635083
          0.5 0.338542 0.588542 0.5 0.425983 0.626859 0.370202 0.509902 0.68131 0.5 0.375 0.75
          0.350336 0.439967 0.824456 0.251909 0.566567 0.748091 0.5 0.5 0.75 0 0 0.857143
          0 0.108307 0.891364 0.108623 0 0.891712 0.182924 0 0.819894 0.254705 0 0.896789
          0 0.254705 0.896789 0 0 1 0.108636 0.108307 1 0.142857 0 1
          0 0.142857 1 0.254705 0.103211 1 0.285714 0 1 0.103211 0.254705 1
          0 0.285714 1 0.183029 0.180271 1 0.278892 0.267859 1 0.362218 0.228262 0.838757
          0.366044 0 0.861761 0.486493 0.143164 0.856849 0.499902 0 0.905197 0.574809 0.321174 1
          0.366074 0.138287 1 0.428571 0 1 0.499934 0.0947856 1 0.571429 0 1
          0.395584 0.243152 1 0.5 0.210976 1 0.152874 0.479727 0.847126 0.144779 0.36792 1
          0 0.500096 0.905195 0 0.428571 1 0.0948051 0.500096 1 0.210976 0.5 1
          0.437369 0.355488 1 0.563509 0.5625 0.872574 0.501508 0.500333 1 0.325216 0.429937 1
          0.355488 0.562631 1 0.570679 0 0.675398 0.6875 0.161926 0.644942 0.756848 0 0.604416
          0.732141 0 0.721108 0.647544 0.184607 0.811382 0.819937 0.180061 0.819937 0.733649 0.3125 0.733649
          0.861713 0 0.633926 0.838736 0.228286 0.637774 1 0 0.571429 1 0.138239 0.633956
          1 0.242976 0.604529 0.896789 0 0.745295 1 0 0.714286 1 0.103211 0.745295
          1 0.267202 0.721527 0.635083 0.370263 0.635083 0.633029 0.536704 0.64794 0.825108 0.439929 0.64968
          0.647591 0.4375 0.82312 0.748091 0.566567 0.748091 1 0.425191 0.678826 1 0.562631 0.644512
          0.823067 0.429425 0.836503 1 0.5 0.789024 0.63208 0 0.855221 0.745295 0 0.896789
          0.732798 0.278473 1 0.632665 0.144406 1 0.745295 0.103211 1 0.714286 0 1
          0.819729 0 0.816971 0.891693 0 0.891364 1 0 0.857143 1 0.108288 0.891377
          1 0.180106 0.817076 1 0.254705 0.896789 0.891712 0.108623 1 0.857143 0 1
          1 0 1 1 0.142857 1 0.819894 0.182924 1 0.896789 0.254705 1
          1 0.285714 1 0.644512 0.437369 1 0.757024 0.395471 1 0.789024 0.5 1
          0.679133 0.574613 1 1 0.367335 0.855594 1 0.500066 0.905214 0.861761 0.366044 1
          1 0.428571 1 0.764376 0.618602 0.885053 0.905217 0.499933 1 1 0.571429 1
          0.192231 0.6875 0.646099 0 0.604416 0.756848 0.137657 0.656644 0.781596 0 0.721108 0.732141
          0 0.855221 0.63208 0.216728 0.783271 0.783271 0.344099 0.65251 0.655901 0.5 0.570206 0.622608
          0.3125 0.839129 0.642416 0.5 0.671266 0.581154 0.5 0.75 0.625 0.353901 0.6875 0.807769
          0.5 0.625 0.75 0.5 0.661125 0.658159 0.5 0.75 0.75 0.138287 1 0.633926
          0.355488 1 0.562631 0.243152 1 0.604416 0 0.896789 0.745295 0.267859 1 0.721108
          0 1 0.714286 0.103211 1 0.745295 0.429937 1 0.674784 0.562631 1 0.644512
          0.376725 0.848931 0.792705 0.5 1 0.789024 0 0.633926 0.861713 0.138287 0.633926 1
          0.241977 0.629496 0.892483 0 0.816971 0.819729 0 0.745295 0.896789 0.103211 0.745295 1
          0 0.571429 1 0.243152 0.604416 1 0 0.714286 1 0.267859 0.721108 1
          0.180271 0.816971 1 0.429413 0.675419 1 0.36792 0.855221 1 0.5 0.789024 1
          0.562631 0.644512 1 0.165294 0.874487 0.874487 0 0.891364 0.891693 0 1 0.857143
          0.108307 1 0.891364 0.180271 1 0.816971 0.254705 1 0.896789 0 0.857143 1
          0.108307 0.891364 1 0.254705 0.896789 1 0 1 1 0.142857 1 1
          0.285714 1 1 0.5954 0.84312 0.843108 0.36792 1 0.855221 0.500096 1 0.905195
          0.500098 0.905197 1 0.428571 1 1 0.655048 0.675586 0.682516 0.807935 0.6875 0.646101
          0.64243 0.839123 0.6875 0.642397 0.6875 0.839169 0.783265 0.783265 0.783318 0.79569 0.848802 0.635569
          0.862342 0.65663 0.78167 1 0.604416 0.756848 1 0.721108 0.732141 1 0.855221 0.63208
          0.721108 1 0.732141 0.604416 1 0.756848 0.855221 1 0.63208 1 0.896789 0.745295
          0.874492 0.874492 0.8347 0.896789 1 0.745295 1 1 0.714286 0.604529 0.757024 1
          0.721527 0.732798 1 1 0.633926 0.861713 0.896789 0.745295 1 1 0.816971 0.819729
          1 0.745295 0.896789 0.855594 0.632665 1 0.817076 0.819894 1 1 0.714286 1
          0.633926 1 0.861713 0.745295 1 0.896789 0.633956 0.861761 1 0.745295 0.896789 1
          0.571429 1 1 0.714286 1 1 1 0.891364 0.891693 0.816971 1 0.819729
          0.891364 1 0.891693 1 1 0.857143 0.891377 0.891712 1 1 0.857143 1
          0.857143 1 1 1 1 1
        </DataArray>
      </Points>
      <Cells>
        <DataArray type="Int32" Name="connectivity" NumberOfComponents="1" format="ascii">
          0 1 2 3 1 2 3 4 0 1 5 2
          1 0 6 3 0 3 2 7 2 3 4 8
          9 4 10 8 2 4 9 8 3 8 2 7
          2 8 9 7 11 0 5 2 5 11 12 13
          0 11 5 13 11 0 2 7 11 13 0 7
          14 2 9 7 2 14 11 7 11 14 15 7
          9 14 7 16 15 7 14 16 0 6 3 17
          0 17 3 7 3 6 18 17 6 19 18 17
          3 17 18 7 20 8 3 7 20 3 18 7
          20 21 8 7 18 21 20 7 0 13 22 7
          0 22 17 7 23 22 13 7 22 17 7 24
          22 7 23 24 10 9 8 25 26 10 8 25
          10 26 27 25 9 8 25 16 9 7 8 16
          26 25 8 16 26 27 25 28 27 29 25 28
          29 25 28 30 26 28 25 30 26 25 16 30
          9 15 14 16 9 25 15 16 25 31 15 16
          31 15 16 32 25 29 33 30 31 25 33 30
          31 16 25 30 31 16 30 32 31 30 33 32
          21 26 8 16 21 8 7 16 21 34 26 16
          26 35 28 30 26 16 35 30 26 35 16 34
          36 16 35 34 37 7 15 16 21 7 38 16
          38 7 37 16 36 30 16 32 36 35 16 30
          11 39 12 13 39 11 12 40 41 39 12 40
          13 7 11 42 39 11 40 42 39 13 11 42
          42 15 11 40 15 43 40 42 42 11 15 7
          41 39 40 44 41 45 39 44 39 40 44 42
          39 44 45 42 43 46 40 42 46 44 40 42
          42 23 13 7 42 13 23 39 39 47 23 42
          15 7 37 42 23 37 7 42 45 48 39 42
          39 48 47 42 47 42 48 49 48 49 42 50
          46 51 42 52 42 49 37 52 51 49 42 52
          43 15 53 52 31 53 15 32 53 31 33 32
          54 53 33 32 32 55 54 53 53 52 15 32
          46 43 56 52 15 43 42 52 46 42 43 52
          43 53 55 52 56 43 55 52 32 52 55 53
          32 37 15 16 15 42 37 52 32 15 37 52
          36 16 37 32 57 36 37 32 57 37 52 32
          32 55 52 57 57 58 55 52 19 18 17 59
          17 59 18 24 19 17 60 59 19 60 61 59
          17 60 59 24 18 59 21 7 59 7 18 24
          59 21 7 24 62 24 21 59 21 24 62 38
          17 18 7 24 22 23 17 24 17 23 60 24
          60 23 63 24 38 7 21 24 23 7 37 24
          37 7 38 24 37 38 64 24 60 61 59 65
          60 65 59 66 61 67 59 65 67 59 65 66
          59 66 62 24 59 67 68 66 62 59 68 66
          62 68 38 66 60 66 59 24 69 66 60 24
          69 60 63 24 60 69 65 66 69 66 24 70
          62 66 38 24 38 66 64 24 64 38 68 66
          64 24 66 70 21 38 34 16 62 71 21 38
          21 71 34 38 34 35 36 72 34 72 36 73
          36 38 37 16 34 38 36 16 34 36 38 73
          74 38 36 73 71 62 68 38 71 68 64 38
          71 64 75 73 34 71 76 73 76 72 34 73
          71 34 38 73 75 76 71 73 71 38 64 73
          64 38 77 73 64 78 77 38 77 38 74 73
          77 74 79 73 77 73 79 80 63 23 81 49
          63 23 49 24 37 42 23 49 37 49 23 24
          82 49 37 24 81 23 47 49 47 23 42 49
          81 47 48 49 81 48 83 49 63 24 49 70
          69 24 63 70 82 37 64 24 82 24 64 70
          49 24 82 70 63 81 84 49 84 49 81 85
          63 49 84 70 84 49 82 70 84 82 49 85
          86 49 82 85 37 38 36 87 57 37 87 52
          64 38 37 87 37 49 82 87 57 37 36 87
          88 57 36 87 36 38 74 87 88 36 74 87
          57 88 89 87 90 88 74 87 90 89 88 87
          49 87 37 52 51 49 52 91 87 52 49 91
          57 87 58 52 57 89 58 87 58 52 87 91
          58 87 89 91 64 78 38 87 78 77 38 87
          64 37 82 87 78 64 82 87 78 92 77 87
          93 78 82 87 78 93 92 87 77 74 38 87
          90 74 77 87 92 89 90 87 90 77 74 79
          90 92 77 79 92 90 77 87 90 92 94 89
          92 90 94 79 86 82 49 87 86 87 49 91
          86 93 87 91 86 93 82 87 93 89 92 87
          89 87 93 91 95 89 93 91 92 93 94 89
          93 95 94 89 27 29 28 96 29 97 28 96
          29 98 97 96 29 28 97 30 98 29 97 30
          97 98 99 96 97 98 100 99 100 97 99 101
          98 97 100 102 97 101 100 102 33 29 98 30
          54 33 98 102 33 98 102 30 98 97 102 30
          33 30 102 32 103 54 98 102 103 98 100 102
          100 104 103 102 101 105 100 102 35 97 28 30
          97 35 106 30 97 106 102 30 35 107 106 30
          97 108 101 105 97 105 101 102 97 108 105 102
          106 102 108 97 108 102 106 107 102 30 36 32
          35 36 107 30 107 102 106 30 36 102 107 30
          103 105 109 102 107 105 108 102 109 107 36 102
          109 105 107 102 99 100 101 110 101 100 111 110
          111 100 112 110 100 101 111 105 100 111 112 105
          111 112 113 110 114 111 112 113 114 112 115 113
          114 111 113 116 111 114 112 105 100 112 104 105
          117 104 112 105 103 104 117 105 100 105 104 102
          104 105 103 102 117 114 112 115 117 118 119 115
          117 119 114 115 114 117 112 105 117 114 119 105
          120 101 108 105 120 111 101 105 120 121 111 105
          120 108 121 105 114 122 111 116 122 114 111 105
          122 121 111 116 123 121 122 116 121 122 111 105
          124 119 114 105 122 124 114 105 124 125 119 105
          124 122 125 105 54 33 102 32 102 126 54 32
          103 127 54 126 103 54 102 126 55 54 127 126
          32 54 55 126 55 126 127 128 103 129 127 126
          130 127 129 126 129 103 131 126 128 127 130 126
          57 126 102 32 57 102 36 32 57 109 36 102
          103 102 109 126 109 131 103 126 57 109 102 126
          57 55 126 32 57 55 58 126 130 126 131 128
          132 131 109 126 131 126 132 128 129 103 133 131
          131 117 103 133 131 103 117 105 118 117 119 134
          133 117 118 134 135 133 118 134 119 117 105 131
          133 117 134 131 119 134 117 131 130 129 133 131
          136 130 133 131 130 129 131 126 135 137 133 134
          136 135 137 133 135 138 136 137 137 133 134 131
          136 133 137 131 109 105 103 131 125 105 109 131
          131 119 125 105 131 125 119 134 134 125 139 131
          137 134 140 131 140 131 139 141 140 134 139 131
          35 72 106 107 35 36 72 107 106 72 108 107
          108 72 142 107 142 108 107 143 73 36 107 72
          73 107 36 74 88 74 36 107 108 105 107 143
          144 107 109 143 107 73 72 80 142 107 72 80
          142 72 76 80 72 73 76 80 145 146 142 144
          74 73 107 80 74 107 147 80 79 73 74 80
          79 74 147 80 142 147 144 107 142 107 144 143
          142 147 107 80 142 144 147 80 108 148 121 143
          108 121 105 143 142 148 108 143 121 149 123 122
          122 105 121 143 149 122 121 143 121 149 148 123
          149 150 148 123 121 148 149 143 107 105 109 143
          109 105 125 143 125 105 122 143 149 125 122 143
          151 125 149 143 146 148 142 143 148 143 146 152
          153 148 146 152 146 144 143 142 153 149 150 148
          149 143 148 152 149 148 153 152 154 153 149 150
          153 154 149 152 143 144 146 152 144 143 151 152
          155 143 149 152 155 151 149 143 154 155 149 152
          155 151 143 152 88 36 57 156 36 109 57 156
          88 107 36 156 88 74 107 156 57 89 88 156
          90 74 88 156 90 88 89 156 36 107 109 156
          57 156 109 126 109 107 144 156 157 109 156 141
          57 58 89 156 57 58 156 126 132 156 58 126
          58 132 89 156 109 156 132 126 132 156 109 141
          74 147 107 156 158 147 74 156 90 158 74 156
          74 158 79 147 158 90 74 79 94 90 158 79
          90 159 94 158 158 90 159 156 144 107 147 156
          157 109 144 156 160 144 147 156 160 147 158 156
          158 159 160 156 157 160 159 156 157 144 160 156
          159 89 132 156 90 89 159 156 161 159 89 132
          159 90 94 89 95 159 94 89 95 161 159 89
          162 157 156 141 162 159 132 156 162 156 132 141
          162 157 159 156 109 143 125 141 125 131 109 141
          144 143 109 141 151 125 143 141 151 163 125 141
          109 131 132 141 132 141 131 164 131 141 140 164
          125 139 131 141 139 125 163 141 140 139 163 141
          164 140 163 141 151 143 144 141 144 109 157 141
          151 144 157 141 157 165 151 141 165 157 151 144
          157 162 166 141 151 166 163 141 163 141 166 164
          157 166 165 141 165 166 151 141 41 45 44 167
          44 45 168 167 45 168 167 169 45 44 168 50
          45 168 169 50 44 46 168 170 46 171 168 170
          44 42 46 170 44 170 168 50 168 172 167 169
          168 172 169 173 174 172 168 173 174 173 168 170
          50 173 168 169 50 168 173 170 171 175 168 170
          168 175 174 170 174 175 176 170 175 177 176 170
          45 42 44 50 45 48 42 50 45 169 48 50
          169 83 48 50 42 170 44 50 46 42 51 170
          51 170 42 50 50 178 170 173 173 179 169 50
          169 179 83 50 180 179 173 50 51 177 170 50
          170 178 50 177 171 46 56 52 171 46 52 170
          171 52 56 170 56 55 58 52 181 56 55 182
          55 181 182 183 175 171 56 170 181 175 56 184
          175 181 185 184 175 56 184 170 181 56 182 184
          181 186 184 187 51 52 46 170 56 52 184 170