<?xml version="1.0"?>
<VTKFile type="PolyData" version="0.1" byte_order="LittleEndian">
  <PolyData>
    <Piece NumberOfLines="100" NumberOfPoints="101">
      <CellData Scalars="p">
        <DataArray type="Float32" Name="p" NumberOfComponents="1" format="ascii">
          102577 102577 102575 102573 102571 102568 102564 102559 102554 102549 102542 102536
          102529 102522 102513 102504 102495 102486 102477 102468 102459 102449 102440 102431
          102421 102412 102402 102393 102386 102380 102374 102369 102364 102360 102356 102354
          102409 102409 102408 102407 102405 102404 102403 102401 102400 102399 102397 102396
          102396 102395 102395 102394 102393 102393 102392 102392 102391 102390 102389 102389
          102386 102383 102379 102375 102372 102369 102367 102365 102513 102513 102513 102514
          102514 102515 102516 102516 102517 102518 102519 102520 102521 102522 102523 102524
          102525 102528 102531 102535 102299 102316 102335 102353 102368 102380 102391 102401
          102412 102427 102445 102464
        </DataArray>
        <DataArray type="Float32" Name="process rank" NumberOfComponents="1" format="ascii">
          0 0 0 0 0 0 0 0 0 0 0 0
          0 0 0 0 0 0 0 0 0 0 0 0
          0 0 0 0 0 0 0 0 0 0 0 0
          0 0 0 0 0 0 0 0 0 0 0 0
          0 0 0 0 0 0 0 0 0 0 0 0
          0 0 0 0 0 0 0 0 0 0 0 0
          0 0 0 0 0 0 0 0 0 0 0 0
          0 0 0 0 0 0 0 0 0 0 0 0
          0 0 0 0
        </DataArray>
      </CellData>
      <Points>
        <DataArray type="Float32" Name="Coordinates" NumberOfComponents="3" format="ascii">
          0 6.409 0 0.243615 6.37169 0 0.487231 6.33438 0 0.730846 6.29708 0
          0.974462 6.25977 0 1.21808 6.22246 0 1.46169 6.18515 0 1.70531 6.14785 0
          1.94892 6.11054 0 2.19254 6.07323 0 2.43615 6.03592 0 2.67977 5.99862 0
          2.92338 5.96131 0 3.167 5.924 0 3.41427 5.88613 0 3.66153 5.84827 0
          3.9088 5.8104 0 4.15607 5.77253 0 4.40333 5.73467 0 4.6506 5.6968 0
          4.89787 5.65893 0 5.14513 5.62107 0 5.3924 5.5832 0 5.63967 5.54533 0
          5.88693 5.50747 0 6.1342 5.4696 0 6.38147 5.43173 0 6.62873 5.39387 0
          6.876 5.356 0 7.11438 5.3195 0 7.35275 5.283 0 7.59113 5.2465 0
          7.8295 5.21 0 8.06787 5.1735 0 8.30625 5.137 0 8.54463 5.1005 0
          8.783 5.064 0 5.088 0 0 5.16083 0.218083 0 5.23367 0.436167 0
          5.3065 0.65425 0 5.37933 0.872333 0 5.45217 1.09042 0 5.525 1.3085 0
          5.59783 1.52658 0 5.67067 1.74467 0 5.7435 1.96275 0 5.81633 2.18083 0
          5.88917 2.39892 0 5.962 2.617 0 6.03817 2.84525 0 6.11433 3.0735 0
          6.1905 3.30175 0 6.26667 3.53 0 6.34283 3.75825 0 6.419 3.9865 0
          6.49517 4.21475 0 6.57133 4.443 0 6.6475 4.67125 0 6.72367 4.8995 0
          6.79983 5.12775 0 6.9515 5.5825 0 7.027 5.809 0 7.1025 6.0355 0
          7.178 6.262 0 7.2535 6.4885 0 7.329 6.715 0 7.4045 6.9415 0
          7.48 7.168 0 3.626 10 0 3.599 9.76023 0 3.572 9.52047 0
          3.545 9.28071 0 3.518 9.04094 0 3.491 8.80118 0 3.464 8.56141 0
          3.437 8.32165 0 3.41 8.08188 0 3.383 7.84212 0 3.356 7.60235 0
          3.329 7.36259 0 3.302 7.12282 0 3.275 6.88306 0 3.248 6.64329 0
          3.221 6.40353 0 3.194 6.16376 0 3.13757 5.66149 0 3.09751 5.30423 0
          3.043 4.818 0 9.3 3.493 0 8.50037 3.28315 0 7.84441 3.11101 0
          7.3063 2.96979 0 6.86487 2.85394 0 6.50275 2.75891 0 6.20569 2.68095 0
          5.69148 2.545 0 5.33453 2.45001 0 4.86354 2.32465 0 4.24205 2.15925 0
          3.422 1.941 0
        </DataArray>
      </Points>
      <Lines>
        <DataArray type="Int32" Name="connectivity" NumberOfComponents="1" format="ascii">
          0 1 1 2 2 3 3 4 4 5 5 6
          6 7 7 8 8 9 9 10 10 11 11 12
          12 13 13 14 14 15 15 16 16 17 17 18
          18 19 19 20 20 21 21 22 22 23 23 24
          24 25 25 26 26 27 27 28 28 29 29 30
          30 31 31 32 32 33 33 34 34 35 35 36
          37 38 38 39 39 40 40 41 41 42 42 43
          43 44 44 45 45 46 46 47 47 48 48 49
          49 50 50 51 51 52 52 53 53 54 54 55
          55 56 56 57 57 58 58 59 59 60 60 28
          28 61 61 62 62 63 63 64 64 65 65 66
          66 67 67 68 69 70 70 71 71 72 72 73
          73 74 74 75 75 76 76 77 77 78 78 79
          79 80 80 81 81 82 82 83 83 84 84 85
          85 13 13 86 86 87 87 88 89 90 90 91
          91 92 92 93 93 94 94 95 95 49 49 96
          96 97 97 98 98 99 99 100
        </DataArray>
        <DataArray type="Int32" Name="offsets" NumberOfComponents="1" format="ascii">
          2 4 6 8 10 12 14 16 18 20 22 24
          26 28 30 32 34 36 38 40 42 44 46 48
          50 52 54 56 58 60 62 64 66 68 70 72
          74 76 78 80 82 84 86 88 90 92 94 96
          98 100 102 104 106 108 110 112 114 116 118 120
          122 124 126 128 130 132 134 136 138 140 142 144
          146 148 150 152 154 156 158 160 162 164 166 168
          170 172 174 176 178 180 182 184 186 188 190 192
          194 196 198 200
        </DataArray>
      </Lines>
    </Piece>
  </PolyData>
</VTKFile>
