<?xml version="1.0"?>
<VTKFile type="UnstructuredGrid" version="0.1" byte_order="LittleEndian">
  <UnstructuredGrid>
    <Piece NumberOfCells="1728" NumberOfPoints="2197">
      <CellData Scalars="S_Water">
        <DataArray type="Float32" Name="S_Water" NumberOfComponents="1" format="ascii">
          0.208985 0.208914 0.20882 0.208792 0.208883 0.209067 0.209309 0.209583 0.20986 0.210105 0.210288 0.210385
          0.208948 0.208853 0.208715 0.208664 0.208771 0.208967 0.209215 0.209503 0.209798 0.210061 0.210257 0.210361
          0.208917 0.20879 0.20858 0.208491 0.208622 0.208816 0.209052 0.20936 0.20969 0.209987 0.210207 0.210323
          0.208954 0.208841 0.208665 0.208555 0.208598 0.208701 0.20886 0.209192 0.209571 0.20991 0.21016 0.210291
          0.209056 0.208963 0.208824 0.208718 0.208685 0.208675 0.208698 0.209076 0.209498 0.209874 0.210147 0.21029
          0.209207 0.209126 0.209009 0.208926 0.208879 0.208853 0.208896 0.209178 0.209554 0.20992 0.210193 0.210337
          0.209405 0.209325 0.209208 0.209163 0.209132 0.209111 0.209144 0.209388 0.209724 0.210053 0.210304 0.210437
          0.20965 0.209576 0.209466 0.209442 0.209427 0.209427 0.209488 0.209685 0.209963 0.210242 0.210458 0.210575
          0.209921 0.209868 0.209791 0.20975 0.209727 0.209728 0.209793 0.209966 0.210202 0.210439 0.210624 0.210725
          0.210171 0.210132 0.210074 0.210025 0.20999 0.209983 0.210037 0.210197 0.210408 0.210614 0.210775 0.210862
          0.210357 0.210327 0.210277 0.210228 0.210191 0.210186 0.210242 0.210381 0.210565 0.210747 0.210889 0.210967
          0.210457 0.210429 0.210384 0.210336 0.210301 0.210299 0.210356 0.210483 0.210651 0.210819 0.210951 0.211023
          0.208561 0.208437 0.208251 0.208161 0.20828 0.208517 0.208809 0.209132 0.209455 0.209739 0.20995 0.210061
          0.208483 0.208293 0.20795 0.207786 0.208017 0.208328 0.208647 0.209002 0.20936 0.209675 0.209906 0.210029
          0.208392 0.208083 0.207232 0.206914 0.207589 0.208017 0.208332 0.208746 0.209181 0.209559 0.209833 0.209976
          0.208412 0.208178 0.207734 0.207388 0.207605 0.207763 0.207809 0.208367 0.208944 0.209423 0.209756 0.209926
          0.208507 0.208335 0.20806 0.207835 0.207775 0.207552 0.206621 0.207914 0.208725 0.209322 0.209715 0.20991
          0.208651 0.208497 0.208273 0.208162 0.208078 0.207915 0.207678 0.208149 0.20874 0.209345 0.209754 0.209955
          0.208857 0.208676 0.208321 0.208423 0.208404 0.208263 0.207904 0.208407 0.209 0.209523 0.209887 0.21007
          0.209139 0.208955 0.208543 0.208749 0.208777 0.208725 0.208689 0.208955 0.209375 0.20978 0.210078 0.210233
          0.209484 0.209376 0.209208 0.209191 0.209155 0.2091 0.209104 0.209353 0.209701 0.210032 0.210278 0.210408
          0.209799 0.209733 0.209633 0.209559 0.209478 0.209384 0.209327 0.209623 0.209954 0.210244 0.210456 0.210568
          0.210029 0.209982 0.209905 0.209823 0.209741 0.209676 0.209687 0.209894 0.210161 0.210407 0.210591 0.210688
          0.210149 0.210109 0.210041 0.209962 0.209889 0.209847 0.209886 0.210052 0.210278 0.210497 0.210664 0.210754
          0.207882 0.207706 0.207416 0.207187 0.207295 0.207578 0.207925 0.208311 0.208703 0.20905 0.209308 0.209444
          0.207761 0.207495 0.20697 0.206405 0.206746 0.20724 0.207664 0.208106 0.208557 0.208955 0.209246 0.209399
          0.207593 0.207171 0.206026 0.203911 0.205449 0.206637 0.207151 0.207685 0.208269 0.208777 0.209138 0.209324
          0.207522 0.207135 0.206242 0.204434 0.205717 0.20626 0.206362 0.206969 0.207835 0.208544 0.209015 0.209247
          0.207541 0.207237 0.20674 0.206164 0.206223 0.205994 0.20487 0.205628 0.207259 0.208316 0.208928 0.209211
          0.207628 0.207309 0.206968 0.206804 0.206709 0.206461 0.206 0.206143 0.206757 0.208233 0.208948 0.209256
          0.207873 0.20752 0.206802 0.207133 0.207157 0.206946 0.206371 0.205984 0.207542 0.208545 0.20913 0.209401
          0.208239 0.207863 0.206841 0.207528 0.207635 0.207525 0.207374 0.207576 0.2083 0.208948 0.209388 0.209607
          0.208714 0.208514 0.208179 0.208194 0.208111 0.207907 0.207692 0.208181 0.208782 0.209293 0.209647 0.209827
          0.209134 0.209022 0.208845 0.208711 0.208504 0.208086 0.207029 0.208377 0.209092 0.209563 0.20987 0.210024
          0.209433 0.209357 0.209228 0.20908 0.208896 0.208666 0.208463 0.208932 0.209405 0.209781 0.210041 0.210173
          0.209587 0.209524 0.209413 0.209276 0.209125 0.208995 0.208976 0.209242 0.20959 0.209905 0.210134 0.210254
          0.207096 0.20692 0.206631 0.206372 0.206327 0.206474 0.206785 0.20721 0.207674 0.208094 0.208407 0.208574
          0.206959 0.206723 0.20631 0.2059 0.205895 0.206085 0.206437 0.206938 0.207484 0.207971 0.208329 0.208517
          0.206736 0.206397 0.205729 0.204879 0.205107 0.205371 0.205725 0.206384 0.207116 0.207747 0.208194 0.208423
          0.206512 0.206088 0.2052 0.203198 0.204418 0.204619 0.204506 0.205511 0.206598 0.207468 0.208046 0.208331
          0.206331 0.205845 0.205337 0.204593 0.204476 0.203955 0.201831 0.204281 0.206013 0.207225 0.207951 0.208292
          0.206209 0.205161 0.20534 0.205165 0.204954 0.204607 0.203824 0.203699 0.20562 0.207182 0.207993 0.208356
          0.206648 0.206099 0.20536 0.205576 0.205575 0.205412 0.205136 0.205027 0.206471 0.207549 0.208219 0.208538
          0.207189 0.206726 0.20561 0.206184 0.206216 0.206079 0.20601 0.206396 0.20724 0.208001 0.208528 0.208791
          0.207791 0.207535 0.207108 0.207006 0.206793 0.206444 0.206111 0.20691 0.207738 0.208394 0.208837 0.20906
          0.208304 0.208149 0.207894 0.207648 0.207283 0.206566 0.204641 0.206989 0.20807 0.208712 0.209108 0.209301
          0.208665 0.208555 0.208363 0.208127 0.207829 0.20745 0.207075 0.207808 0.208483 0.208986 0.209319 0.209486
          0.208851 0.208759 0.208595 0.208385 0.208152 0.207943 0.207888 0.208262 0.208734 0.209145 0.209437 0.209587
          0.206196 0.205999 0.205663 0.205301 0.205064 0.205049 0.205345 0.205838 0.206394 0.206902 0.207282 0.207485
          0.20605 0.205807 0.205381 0.204896 0.20457 0.204462 0.204856 0.205479 0.206155 0.206751 0.207186 0.207415
          0.205795 0.205467 0.204865 0.204096 0.20365 0.203156 0.203861 0.20477 0.205709 0.206485 0.207026 0.207304
          0.205489 0.205044 0.204231 0.202811 0.202785 0.20252 0.2024 0.203704 0.205126 0.206179 0.206863 0.207201
          0.205186 0.204545 0.203824 0.202514 0.201801 0.201559 0.199185 0.202037 0.204578 0.205968 0.206784 0.207173
          0.204966 0.20347 0.203526 0.203057 0.202307 0.202399 0.201697 0.203224 0.204835 0.206082 0.206882 0.207273
          0.205529 0.204855 0.203971 0.203213 0.203431 0.203528 0.203598 0.204335 0.205479 0.206474 0.207161 0.207508
          0.206192 0.205745 0.204923 0.204673 0.204458 0.204307 0.204492 0.205215 0.206133 0.206949 0.207527 0.207823
          0.206846 0.206556 0.206065 0.205638 0.205152 0.204649 0.204597 0.205678 0.206651 0.207397 0.207901 0.208156
          0.207405 0.207204 0.206852 0.206435 0.205913 0.205145 0.203406 0.205892 0.207071 0.207787 0.208236 0.208457
          0.207809 0.207658 0.207389 0.20705 0.206668 0.206275 0.205993 0.206809 0.207556 0.20812 0.208497 0.208687
          0.20802 0.207894 0.207668 0.207384 0.207096 0.20688 0.206877 0.207314 0.207847 0.208311 0.208641 0.208812
          0.205185 0.204934 0.204487 0.203953 0.203493 0.203324 0.203642 0.204229 0.204894 0.205503 0.205964 0.206212
          0.20504 0.204743 0.2042 0.203504 0.202781 0.202378 0.202945 0.203763 0.204593 0.205311 0.205841 0.206123
          0.204794 0.204416 0.203703 0.202709 0.201222 0.199841 0.201523 0.202886 0.204055 0.204984 0.205642 0.205984
          0.204521 0.204031 0.20311 0.201956 0.200865 0.199754 0.199887 0.201805 0.203429 0.204634 0.205448 0.205862
          0.20431 0.203657 0.202325 0.200865 0.199976 0.198739 0.197225 0.200711 0.20294 0.204404 0.205358 0.205835
          0.204301 0.203468 0.201598 0.201266 0.19967 0.200096 0.200332 0.201664 0.203108 0.204518 0.205476 0.20597
          0.204722 0.20413 0.2031 0.202254 0.201504 0.201428 0.201801 0.202352 0.203901 0.205059 0.20587 0.206291
          0.205298 0.204832 0.204005 0.203176 0.202327 0.201847 0.202586 0.203611 0.204692 0.205664 0.206349 0.206703
          0.205909 0.205523 0.204786 0.203875 0.202529 0.200796 0.202492 0.204318 0.205434 0.206269 0.206842 0.207136
          0.206485 0.206201 0.205672 0.204997 0.204209 0.203497 0.204062 0.205193 0.206109 0.206805 0.207281 0.207524
          0.206928 0.20672 0.206343 0.205874 0.205413 0.205141 0.205369 0.206003 0.206665 0.207219 0.207613 0.207818
          0.207167 0.206997 0.206695 0.206332 0.206006 0.205856 0.206013 0.206452 0.206974 0.207446 0.207793 0.207975
          0.204112 0.203772 0.20316 0.202425 0.201811 0.201563 0.201839 0.202475 0.203227 0.203938 0.204501 0.204812
          0.203965 0.203568 0.202835 0.2019 0.201025 0.200534 0.200968 0.201877 0.202823 0.203664 0.204325 0.204688
          0.203735 0.203253 0.202347 0.201196 0.199657 0.198008 0.19901 0.200735 0.202106 0.203196 0.204044 0.204499
          0.203527 0.202953 0.201855 0.200585 0.198899 0.19695 0.195764 0.199339 0.201295 0.20273 0.203788 0.204346
          0.203454 0.202841 0.201691 0.200291 0.1992 0.19817 0.197318 0.198904 0.200504 0.20227 0.203625 0.204312
          0.203567 0.202914 0.20163 0.199731 0.199334 0.198975 0.198915 0.19929 0.200941 0.202087 0.203609 0.204472
          0.203919 0.203295 0.202056 0.2002 0.199184 0.199189 0.19997 0.200975 0.202124 0.203328 0.204361 0.204935
          0.204415 0.203787 0.2024 0.201168 0.199637 0.198788 0.200809 0.20201 0.202645 0.2041 0.205015 0.205477
          0.204993 0.204368 0.202726 0.201126 0.198556 0.199372 0.20171 0.203099 0.204046 0.204994 0.205682 0.206039
          0.205617 0.205202 0.204364 0.20337 0.202321 0.202209 0.203097 0.204173 0.205018 0.205738 0.206264 0.206541
          0.206112 0.205834 0.20532 0.204704 0.204159 0.20404 0.204428 0.205063 0.205706 0.206272 0.206693 0.206916
          0.206381 0.206166 0.20578 0.205327 0.204954 0.20485 0.205083 0.205541 0.206068 0.206553 0.206919 0.207115
          0.203098 0.202627 0.201754 0.200674 0.199921 0.199771 0.200007 0.20066 0.201467 0.202283 0.202994 0.203402
          0.202922 0.202346 0.201195 0.199461 0.198549 0.198762 0.1991 0.199928 0.200873 0.201806 0.202708 0.203218
          0.202669 0.201944 0.200457 0.199148 0.198106 0.197005 0.197187 0.198572 0.199819 0.200886 0.202254 0.202953
          0.202479 0.201575 0.199228 0.198269 0.197189 0.195993 0.193687 0.19686 0.198982 0.200528 0.202002 0.202805
          0.202523 0.20177 0.200301 0.198474 0.197474 0.19686 0.196112 0.197202 0.197863 0.199905 0.201984 0.202873
          0.202743 0.202061 0.200859 0.199445 0.198383 0.197314 0.196554 0.198336 0.199618 0.201054 0.202444 0.203195
          0.203161 0.202526 0.201374 0.200019 0.198941 0.198292 0.198114 0.199479 0.20048 0.201856 0.203044 0.203689
          0.203732 0.203154 0.202051 0.20063 0.199146 0.198718 0.199407 0.20037 0.200244 0.202403 0.203677 0.204282
          0.204368 0.203839 0.202728 0.200865 0.19789 0.199525 0.200731 0.201778 0.202541 0.203648 0.20451 0.20496
          0.205 0.204596 0.203796 0.202649 0.201367 0.201367 0.202158 0.203048 0.203859 0.204644 0.205254 0.205582
          0.205501 0.205205 0.204647 0.203924 0.203245 0.20308 0.203459 0.204067 0.204721 0.205328 0.205794 0.206046
          0.205776 0.205536 0.2051 0.204565 0.204101 0.203943 0.204164 0.204621 0.205164 0.205679 0.206076 0.206292
          0.202411 0.201856 0.200805 0.199537 0.198407 0.198092 0.198017 0.198878 0.199794 0.200755 0.201683 0.20222
          0.202212 0.201502 0.19995 0.198108 0.196925 0.19703 0.197076 0.197811 0.198732 0.199808 0.201209 0.201961
          0.201945 0.201055 0.198864 0.19713 0.196365 0.195356 0.194769 0.196063 0.196224 0.197228 0.200364 0.201589
          0.201789 0.200949 0.19937 0.197851 0.196528 0.194964 0.192371 0.1951 0.197066 0.197779 0.200041 0.20146
          0.201767 0.200921 0.199469 0.197958 0.1967 0.195399 0.193956 0.196126 0.197772 0.198948 0.200753 0.20173
          0.201916 0.200883 0.199481 0.198041 0.196939 0.195925 0.195328 0.197116 0.198563 0.199671 0.201276 0.202119
          0.202408 0.201466 0.199683 0.198032 0.197365 0.19639 0.196803 0.198031 0.199093 0.200193 0.201763 0.202597
          0.203149 0.202497 0.201292 0.199832 0.198244 0.196111 0.197664 0.198676 0.19891 0.199966 0.20231 0.203212
          0.203908 0.203405 0.202422 0.20096 0.198801 0.197125 0.198691 0.200202 0.201235 0.20229 0.203427 0.204015
          0.204586 0.204196 0.203413 0.202157 0.199927 0.198074 0.200186 0.201569 0.202706 0.203625 0.20436 0.204755
          0.2051 0.204802 0.204225 0.203401 0.202405 0.201782 0.202278 0.202994 0.20378 0.204479 0.205013 0.205301
          0.205378 0.20513 0.204667 0.204061 0.20345 0.203114 0.203287 0.20375 0.204343 0.204911 0.205351 0.205589
          0.202241 0.201772 0.200907 0.19982 0.198752 0.197821 0.196671 0.197913 0.198986 0.200072 0.201068 0.201626
          0.202061 0.201501 0.200435 0.199056 0.1978 0.196855 0.195862 0.196723 0.197921 0.199215 0.200681 0.201418
          0.201778 0.201067 0.199662 0.197544 0.195763 0.19468 0.194334 0.194197 0.195777 0.197704 0.200161 0.201166
          0.201504 0.200595 0.198967 0.19698 0.195031 0.193005 0.191579 0.19382 0.196673 0.198557 0.200236 0.201139
          0.201356 0.20024 0.197719 0.195706 0.1946 0.192693 0.191458 0.194802 0.197223 0.198988 0.200478 0.201297
          0.201462 0.20009 0.197258 0.194868 0.193688 0.192539 0.192624 0.195416 0.197517 0.198995 0.200663 0.201547
          0.202041 0.200991 0.19861 0.196909 0.194916 0.193307 0.193793 0.196219 0.197856 0.197841 0.200791 0.201917
          0.202867 0.202184 0.200884 0.199438 0.197834 0.196256 0.19537 0.196705 0.198802 0.19947 0.201657 0.202596
          0.203691 0.203217 0.202327 0.201165 0.199831 0.198663 0.198174 0.198687 0.200454 0.201664 0.202833 0.203446
          0.204396 0.204046 0.203381 0.202463 0.201357 0.200311 0.199209 0.19929 0.201738 0.202977 0.203798 0.204221
          0.204911 0.204641 0.204133 0.203452 0.202705 0.202099 0.20182 0.202126 0.2031 0.20391 0.204491 0.204797
          0.205184 0.204955 0.20453 0.203981 0.20342 0.203016 0.20292 0.203203 0.203796 0.204393 0.204854 0.205102
          0.20237 0.201998 0.201315 0.200442 0.199532 0.198726 0.198173 0.198472 0.199122 0.200169 0.201062 0.201547
          0.202228 0.201806 0.201025 0.20001 0.198946 0.197957 0.196981 0.197382 0.19783 0.199587 0.20083 0.201419
          0.201999 0.201488 0.200528 0.199242 0.197875 0.196588 0.195109 0.195714 0.19772 0.199356 0.200634 0.201283
          0.201773 0.201149 0.199973 0.198392 0.19657 0.194918 0.193324 0.195512 0.19762 0.199323 0.200581 0.201243
          0.201663 0.200909 0.199419 0.197343 0.19441 0.192405 0.190914 0.194585 0.197237 0.19923 0.200604 0.201309
          0.201799 0.200963 0.199256 0.196553 0.193188 0.189252 0.190341 0.19324 0.196381 0.199028 0.200694 0.201496
          0.202271 0.201521 0.199959 0.197382 0.194047 0.192397 0.192308 0.195255 0.197514 0.198872 0.200979 0.201873
          0.202975 0.202408 0.201297 0.199712 0.197841 0.196124 0.193753 0.196396 0.198915 0.200458 0.201832 0.202532
          0.203724 0.20331 0.202522 0.201447 0.200225 0.199077 0.198103 0.197866 0.200372 0.201798 0.202791 0.203305
          0.204386 0.204078 0.203501 0.202728 0.201874 0.201109 0.20061 0.200782 0.201956 0.202942 0.203652 0.204024
          0.204874 0.204634 0.20419 0.20361 0.202999 0.202501 0.20227 0.202476 0.203118 0.20378 0.204293 0.204569
          0.205132 0.204926 0.204548 0.204065 0.203575 0.203203 0.203071 0.203258 0.203711 0.20422 0.204633 0.204862
          0.202517 0.2022 0.201622 0.200882 0.200118 0.199487 0.199166 0.199341 0.199881 0.200627 0.201288 0.201664
          0.202401 0.202052 0.201409 0.20058 0.199713 0.198986 0.198596 0.198837 0.199484 0.200392 0.201158 0.20158
          0.202215 0.201804 0.201043 0.200042 0.198978 0.198078 0.197618 0.198066 0.199067 0.200142 0.201007 0.201478
          0.202037 0.201549 0.200629 0.199392 0.198023 0.196858 0.196376 0.197297 0.198649 0.199932 0.200905 0.201425
          0.201971 0.201402 0.200306 0.198772 0.196942 0.195263 0.194615 0.196333 0.198205 0.199771 0.200887 0.201467
          0.202119 0.201509 0.200307 0.198541 0.19627 0.193319 0.191608 0.195375 0.197919 0.199768 0.20102 0.201654
          0.202531 0.201961 0.200834 0.199178 0.197108 0.194826 0.191977 0.195967 0.198459 0.20016 0.201409 0.202043
          0.203142 0.202673 0.201764 0.200476 0.198922 0.197216 0.195158 0.197655 0.199616 0.201063 0.202103 0.202643
          0.203818 0.203455 0.202765 0.201821 0.200743 0.199705 0.198997 0.199735 0.201011 0.202112 0.202917 0.203342
          0.204432 0.204154 0.203635 0.202946 0.202199 0.201552 0.201229 0.201557 0.202317 0.203088 0.203682 0.204002
          0.204892 0.204672 0.204266 0.203742 0.203199 0.202766 0.202589 0.202789 0.203276 0.203821 0.204265 0.20451
          0.205137 0.204946 0.204597 0.204154 0.203708 0.203369 0.203248 0.203403 0.203775 0.204212 0.204579 0.204785
        </DataArray>
        <DataArray type="Float32" Name="S_Air" NumberOfComponents="1" format="ascii">
          0.791015 0.791086 0.79118 0.791208 0.791117 0.790933 0.790691 0.790417 0.79014 0.789895 0.789712 0.789615
          0.791052 0.791147 0.791285 0.791336 0.791229 0.791033 0.790785 0.790497 0.790202 0.789939 0.789743 0.789639
          0.791083 0.79121 0.79142 0.791509 0.791378 0.791184 0.790948 0.79064 0.79031 0.790013 0.789793 0.789677
          0.791046 0.791159 0.791335 0.791445 0.791402 0.791299 0.79114 0.790808 0.790429 0.79009 0.78984 0.789709
          0.790944 0.791037 0.791176 0.791282 0.791315 0.791325 0.791302 0.790924 0.790502 0.790126 0.789853 0.78971
          0.790793 0.790874 0.790991 0.791074 0.791121 0.791147 0.791104 0.790822 0.790446 0.79008 0.789807 0.789663
          0.790595 0.790675 0.790792 0.790837 0.790868 0.790889 0.790856 0.790612 0.790276 0.789947 0.789696 0.789563
          0.79035 0.790424 0.790534 0.790558 0.790573 0.790573 0.790512 0.790315 0.790037 0.789758 0.789542 0.789425
          0.790079 0.790132 0.790209 0.79025 0.790273 0.790272 0.790207 0.790034 0.789798 0.789561 0.789376 0.789275
          0.789829 0.789868 0.789926 0.789975 0.79001 0.790017 0.789963 0.789803 0.789592 0.789386 0.789225 0.789138
          0.789643 0.789673 0.789723 0.789772 0.789809 0.789814 0.789759 0.789619 0.789435 0.789253 0.789111 0.789033
          0.789543 0.789571 0.789616 0.789664 0.789699 0.789701 0.789644 0.789517 0.789349 0.789181 0.789049 0.788977
          0.791439 0.791563 0.791749 0.791839 0.79172 0.791483 0.791191 0.790868 0.790545 0.790261 0.790051 0.789939
          0.791517 0.791707 0.79205 0.792215 0.791983 0.791672 0.791353 0.790998 0.79064 0.790325 0.790094 0.789971
          0.791608 0.791917 0.792768 0.793086 0.792411 0.791983 0.791668 0.791254 0.790819 0.790441 0.790167 0.790024
          0.791588 0.791822 0.792266 0.792612 0.792395 0.792237 0.792191 0.791633 0.791056 0.790577 0.790244 0.790074
          0.791493 0.791665 0.79194 0.792165 0.792225 0.792448 0.793379 0.792086 0.791275 0.790678 0.790285 0.79009
          0.791349 0.791503 0.791727 0.791838 0.791922 0.792085 0.792322 0.791851 0.79126 0.790655 0.790246 0.790045
          0.791143 0.791324 0.791679 0.791577 0.791596 0.791737 0.792096 0.791593 0.791 0.790477 0.790113 0.78993
          0.790861 0.791045 0.791457 0.791251 0.791223 0.791275 0.791312 0.791045 0.790625 0.79022 0.789922 0.789767
          0.790516 0.790624 0.790792 0.790809 0.790845 0.7909 0.790896 0.790647 0.790299 0.789968 0.789722 0.789592
          0.790201 0.790267 0.790367 0.790441 0.790522 0.790616 0.790673 0.790377 0.790046 0.789756 0.789544 0.789432
          0.789971 0.790018 0.790095 0.790177 0.790259 0.790324 0.790313 0.790106 0.789839 0.789593 0.789409 0.789312
          0.789851 0.789891 0.789959 0.790038 0.790111 0.790152 0.790114 0.789948 0.789722 0.789503 0.789336 0.789246
          0.792118 0.792294 0.792584 0.792813 0.792705 0.792422 0.792075 0.791689 0.791297 0.79095 0.790693 0.790556
          0.792239 0.792505 0.79303 0.793595 0.793254 0.79276 0.792336 0.791894 0.791443 0.791045 0.790754 0.790601
          0.792407 0.792829 0.793974 0.796089 0.794551 0.793363 0.792849 0.792315 0.791731 0.791223 0.790862 0.790676
          0.792478 0.792865 0.793758 0.795566 0.794283 0.79374 0.793638 0.793031 0.792165 0.791456 0.790985 0.790753
          0.792459 0.792763 0.79326 0.793836 0.793777 0.794006 0.79513 0.794372 0.792741 0.791684 0.791072 0.790789
          0.792372 0.792691 0.793032 0.793196 0.793291 0.793539 0.794 0.793857 0.793243 0.791767 0.791052 0.790744
          0.792127 0.79248 0.793198 0.792867 0.792843 0.793054 0.793629 0.794016 0.792458 0.791455 0.79087 0.790599
          0.791761 0.792137 0.793159 0.792472 0.792365 0.792475 0.792626 0.792424 0.7917 0.791052 0.790612 0.790393
          0.791286 0.791486 0.791821 0.791806 0.791889 0.792093 0.792308 0.791819 0.791218 0.790707 0.790353 0.790173
          0.790866 0.790978 0.791155 0.791289 0.791496 0.791914 0.792971 0.791623 0.790908 0.790437 0.79013 0.789976
          0.790567 0.790643 0.790772 0.79092 0.791104 0.791334 0.791537 0.791068 0.790595 0.790219 0.789959 0.789827
          0.790413 0.790476 0.790587 0.790724 0.790875 0.791005 0.791024 0.790758 0.79041 0.790095 0.789866 0.789746
          0.792904 0.79308 0.793369 0.793628 0.793673 0.793526 0.793215 0.79279 0.792326 0.791906 0.791593 0.791426
          0.793041 0.793277 0.79369 0.7941 0.794105 0.793915 0.793563 0.793062 0.792516 0.792029 0.791671 0.791483
          0.793264 0.793603 0.794271 0.795121 0.794893 0.794629 0.794275 0.793616 0.792884 0.792253 0.791806 0.791577
          0.793488 0.793912 0.7948 0.796802 0.795582 0.795381 0.795494 0.794489 0.793402 0.792532 0.791954 0.791669
          0.793669 0.794155 0.794663 0.795407 0.795524 0.796045 0.798169 0.795719 0.793987 0.792775 0.792049 0.791708
          0.793791 0.794839 0.79466 0.794835 0.795046 0.795393 0.796176 0.796301 0.79438 0.792818 0.792007 0.791644
          0.793352 0.793901 0.79464 0.794424 0.794425 0.794588 0.794864 0.794973 0.793529 0.792451 0.791781 0.791462
          0.792811 0.793274 0.79439 0.793816 0.793784 0.793921 0.79399 0.793604 0.79276 0.791999 0.791472 0.791209
          0.792209 0.792465 0.792892 0.792994 0.793207 0.793557 0.793889 0.79309 0.792262 0.791606 0.791162 0.79094
          0.791696 0.791851 0.792106 0.792352 0.792717 0.793434 0.795359 0.793011 0.79193 0.791288 0.790892 0.790699
          0.791335 0.791445 0.791637 0.791873 0.792171 0.79255 0.792925 0.792192 0.791517 0.791014 0.790681 0.790514
          0.791149 0.791241 0.791405 0.791615 0.791848 0.792057 0.792112 0.791738 0.791266 0.790855 0.790564 0.790413
          0.793804 0.794001 0.794337 0.794699 0.794936 0.794951 0.794655 0.794162 0.793606 0.793098 0.792718 0.792515
          0.79395 0.794193 0.794619 0.795104 0.79543 0.795538 0.795144 0.794521 0.793845 0.793249 0.792814 0.792585
          0.794205 0.794533 0.795135 0.795904 0.79635 0.796844 0.796139 0.79523 0.794291 0.793515 0.792974 0.792696
          0.794511 0.794956 0.795769 0.797189 0.797215 0.79748 0.7976 0.796296 0.794874 0.793821 0.793137 0.792799
          0.794814 0.795455 0.796176 0.797486 0.798199 0.798441 0.800815 0.797963 0.795422 0.794032 0.793216 0.792827
          0.795034 0.79653 0.796474 0.796943 0.797693 0.797601 0.798303 0.796776 0.795165 0.793918 0.793118 0.792727
          0.79447 0.795145 0.796029 0.796787 0.796569 0.796472 0.796402 0.795665 0.794521 0.793526 0.792839 0.792492
          0.793808 0.794255 0.795077 0.795327 0.795542 0.795693 0.795508 0.794785 0.793867 0.793051 0.792473 0.792177
          0.793154 0.793444 0.793935 0.794362 0.794848 0.795351 0.795403 0.794322 0.793349 0.792603 0.792099 0.791844
          0.792595 0.792796 0.793148 0.793565 0.794087 0.794855 0.796594 0.794108 0.792929 0.792213 0.791764 0.791543
          0.792191 0.792342 0.792611 0.79295 0.793332 0.793725 0.794007 0.793191 0.792444 0.79188 0.791503 0.791313
          0.79198 0.792106 0.792332 0.792616 0.792904 0.79312 0.793123 0.792686 0.792153 0.791689 0.791359 0.791188
          0.794815 0.795066 0.795513 0.796047 0.796507 0.796676 0.796358 0.795771 0.795106 0.794497 0.794036 0.793788
          0.79496 0.795257 0.7958 0.796496 0.797219 0.797622 0.797055 0.796237 0.795407 0.794689 0.794159 0.793877
          0.795206 0.795584 0.796297 0.797291 0.798778 0.800159 0.798477 0.797114 0.795945 0.795016 0.794358 0.794016
          0.795479 0.795969 0.79689 0.798044 0.799135 0.800246 0.800113 0.798195 0.796571 0.795366 0.794552 0.794138
          0.79569 0.796343 0.797675 0.799135 0.800024 0.801261 0.802775 0.799289 0.79706 0.795596 0.794642 0.794165
          0.795699 0.796532 0.798402 0.798734 0.80033 0.799904 0.799668 0.798336 0.796892 0.795482 0.794524 0.79403
          0.795278 0.79587 0.7969 0.797746 0.798496 0.798572 0.798199 0.797648 0.796099 0.794941 0.79413 0.793709
          0.794702 0.795168 0.795995 0.796824 0.797673 0.798153 0.797414 0.796389 0.795308 0.794336 0.793651 0.793297
          0.794091 0.794477 0.795214 0.796125 0.797471 0.799204 0.797508 0.795682 0.794566 0.793732 0.793158 0.792864
          0.793515 0.793799 0.794328 0.795003 0.795791 0.796503 0.795938 0.794807 0.793891 0.793195 0.792719 0.792476
          0.793072 0.79328 0.793657 0.794126 0.794587 0.794859 0.794631 0.793997 0.793335 0.792781 0.792387 0.792182
          0.792833 0.793003 0.793305 0.793668 0.793994 0.794144 0.793987 0.793548 0.793026 0.792554 0.792207 0.792025
          0.795888 0.796228 0.79684 0.797575 0.798189 0.798437 0.798161 0.797525 0.796773 0.796062 0.795499 0.795188
          0.796035 0.796432 0.797165 0.7981 0.798975 0.799466 0.799032 0.798123 0.797177 0.796336 0.795675 0.795312
          0.796265 0.796747 0.797653 0.798804 0.800343 0.801992 0.80099 0.799265 0.797894 0.796804 0.795956 0.795501
          0.796473 0.797047 0.798145 0.799415 0.801101 0.80305 0.804236 0.800661 0.798706 0.79727 0.796212 0.795654
          0.796546 0.797159 0.798309 0.799708 0.8008 0.80183 0.802682 0.801096 0.799496 0.797729 0.796375 0.795688
          0.796433 0.797086 0.79837 0.800269 0.800666 0.801025 0.801085 0.80071 0.799059 0.797913 0.796391 0.795528
          0.796081 0.796705 0.797944 0.7998 0.800816 0.800811 0.80003 0.799025 0.797876 0.796672 0.795639 0.795065
          0.795585 0.796214 0.7976 0.798832 0.800363 0.801212 0.799191 0.797989 0.797355 0.7959 0.794985 0.794523
          0.795007 0.795632 0.797274 0.798874 0.801444 0.800628 0.79829 0.796901 0.795954 0.795006 0.794318 0.793961
          0.794383 0.794798 0.795636 0.79663 0.797679 0.797791 0.796903 0.795827 0.794982 0.794262 0.793736 0.793459
          0.793888 0.794166 0.79468 0.795296 0.795841 0.79596 0.795572 0.794937 0.794294 0.793728 0.793307 0.793084
          0.793619 0.793834 0.79422 0.794673 0.795046 0.79515 0.794917 0.794459 0.793932 0.793447 0.793081 0.792885
          0.796902 0.797373 0.798246 0.799326 0.800079 0.800229 0.799993 0.79934 0.798533 0.797717 0.797006 0.796598
          0.797078 0.797654 0.798805 0.800539 0.801451 0.801238 0.8009 0.800072 0.799127 0.798194 0.797292 0.796782
          0.797331 0.798056 0.799543 0.800852 0.801894 0.802995 0.802813 0.801428 0.800181 0.799114 0.797746 0.797047
          0.797521 0.798425 0.800772 0.801731 0.802811 0.804007 0.806313 0.80314 0.801018 0.799471 0.797998 0.797195
          0.797477 0.79823 0.799699 0.801526 0.802526 0.80314 0.803888 0.802798 0.802137 0.800095 0.798016 0.797127
          0.797257 0.797939 0.799141 0.800555 0.801617 0.802686 0.803446 0.801664 0.800382 0.798946 0.797556 0.796805
          0.796839 0.797474 0.798626 0.799981 0.801059 0.801708 0.801886 0.800521 0.79952 0.798144 0.796956 0.796311
          0.796268 0.796846 0.797949 0.79937 0.800854 0.801282 0.800593 0.79963 0.799756 0.797597 0.796323 0.795718
          0.795632 0.796161 0.797272 0.799135 0.80211 0.800475 0.799269 0.798222 0.797459 0.796352 0.79549 0.79504
          0.795 0.795404 0.796204 0.797351 0.798633 0.798633 0.797842 0.796952 0.796141 0.795356 0.794746 0.794418
          0.794499 0.794795 0.795353 0.796076 0.796755 0.79692 0.796541 0.795933 0.795279 0.794672 0.794206 0.793954
          0.794224 0.794464 0.7949 0.795435 0.795899 0.796057 0.795836 0.795379 0.794836 0.794321 0.793924 0.793708
          0.797589 0.798144 0.799195 0.800463 0.801593 0.801908 0.801983 0.801122 0.800206 0.799245 0.798317 0.79778
          0.797788 0.798498 0.80005 0.801892 0.803075 0.80297 0.802924 0.802189 0.801268 0.800192 0.798791 0.798039
          0.798055 0.798945 0.801136 0.80287 0.803635 0.804644 0.805231 0.803937 0.803776 0.802772 0.799636 0.798411
          0.798211 0.799051 0.80063 0.802149 0.803472 0.805036 0.807629 0.8049 0.802934 0.802221 0.799959 0.79854
          0.798233 0.799079 0.800531 0.802042 0.8033 0.804601 0.806044 0.803874 0.802228 0.801052 0.799247 0.79827
          0.798084 0.799117 0.800519 0.801959 0.803061 0.804075 0.804672 0.802884 0.801437 0.800329 0.798724 0.797881
          0.797592 0.798534 0.800317 0.801968 0.802635 0.80361 0.803197 0.801969 0.800907 0.799807 0.798237 0.797403
          0.796851 0.797503 0.798708 0.800168 0.801756 0.803889 0.802336 0.801324 0.80109 0.800034 0.79769 0.796788
          0.796092 0.796595 0.797578 0.79904 0.801199 0.802875 0.801309 0.799798 0.798765 0.79771 0.796573 0.795985
          0.795414 0.795804 0.796587 0.797843 0.800073 0.801926 0.799815 0.798431 0.797294 0.796375 0.79564 0.795245
          0.7949 0.795198 0.795775 0.796599 0.797595 0.798218 0.797722 0.797006 0.79622 0.795521 0.794987 0.794699
          0.794622 0.79487 0.795333 0.795939 0.79655 0.796886 0.796713 0.79625 0.795657 0.795089 0.794649 0.794411
          0.797759 0.798228 0.799093 0.80018 0.801248 0.802179 0.803329 0.802087 0.801014 0.799928 0.798932 0.798374