<?xml version="1.0"?>
<VTKFile type="UnstructuredGrid" version="0.1" byte_order="LittleEndian">
  <UnstructuredGrid>
    <Piece NumberOfCells="246" NumberOfPoints="439">
      <CellData Scalars="wetting pressure" Vectors="wetting-velocity">
        <DataArray type="Float32" Name="wetting pressure" NumberOfComponents="1" format="ascii">
          1.24666 1.18013 1.16743 1.19173 1.20758 1.17349 1.16391 1.17984 1.1512 1.13479 1.13194 1.14603
          1.14852 1.13363 1.13079 1.14401 1.1373 1.12667 1.11952 1.13105 1.13604 1.12553 1.11872 1.13002
          1.14761 1.15774 1.14336 1.13138 1.12852 1.13998 1.13942 1.12862 1.12573 1.1364 1.13323 1.12262
          1.11761 1.12657 1.12946 1.11931 1.11688 1.12103 1.14342 1.14167 1.13477 1.13684 1.13983 1.13753
          1.129 1.1319 1.12534 1.11929 1.11763 1.1231 1.12447 1.11812 1.11722 1.12169 1.11697 1.11651
          1.11619 1.1166 1.11659 1.11618 1.11589 1.11624 1.11502 1.11813 1.11671 1.11601 1.11679 1.11761
          1.1164 1.1157 1.11649 1.12264 1.11717 1.11669 1.1191 1.11957 1.11659 1.11615 1.11761 1.11514
          1.11324 1.11689 1.11564 1.11472 1.11568 1.11617 1.11505 1.1142 1.11499 1.13336 1.1312 1.12107
          1.12553 1.13192 1.12998 1.1199 1.12301 1.1221 1.1173 1.11649 1.11818 1.12039 1.11702 1.1162
          1.11778 1.1157 1.11921 1.1185 1.11786 1.11851 1.11859 1.11804 1.11746 1.11795 1.12844 1.12528
          1.11845 1.1197 1.1237 1.11961 1.11727 1.11785 1.11838 1.11608 1.11508 1.11666 1.11704 1.11539
          1.11453 1.11565 1.11355 1.11618 1.11455 1.1133 1.11205 1.11322 1.11231 1.10991 1.10622 1.10961
          1.14304 1.14094 1.1381 1.14039 1.13126 1.12884 1.1268 1.12947 1.13282 1.12351 1.11984 1.13003
          1.12243 1.11762 1.11729 1.11991 1.12388 1.11753 1.11624 1.11811 1.11812 1.11653 1.11565 1.11675
          1.13381 1.13092 1.12277 1.12669 1.12505 1.12092 1.11792 1.11865 1.11991 1.11846 1.11786 1.11883
          1.11706 1.11679 1.11659 1.11689 1.11724 1.11612 1.11586 1.11687 1.11626 1.1156 1.11542 1.11602
          1.1148 1.11753 1.11698 1.11623 1.11663 1.11645 1.11612 1.11561 1.11584 1.11708 1.11559 1.11518
          1.11652 1.11588 1.11474 1.11447 1.11546 1.11317 1.11064 1.11351 1.1135 1.11098 1.10794 1.11171
          1.1185 1.11751 1.11615 1.1167 1.11688 1.11636 1.11542 1.11578 1.11398 1.11115 1.11417 1.11431
          1.1122 1.10957 1.11256 1.10966 1.10455 1.09259 1.105 1.10782 1.09937 1.08788 1.07749 1.05473
          1.08048 1.08567 1.06837 1.0203 1.07583 1.10252
        </DataArray>
        <DataArray type="Float32" Name="nonwetting pressure" NumberOfComponents="1" format="ascii">
          1.24666 1.18013 1.16743 1.19173 1.20758 1.17349 1.16391 1.17984 1.1512 1.13479 1.13194 1.14603
          1.14852 1.13363 1.13079 1.14401 1.1373 1.12667 1.11952 1.13105 1.13604 1.12553 1.11872 1.13002
          1.14761 1.15774 1.14336 1.13138 1.12852 1.13998 1.13942 1.12862 1.12573 1.1364 1.13323 1.12262
          1.11761 1.12657 1.12946 1.11931 1.11688 1.12103 1.14342 1.14167 1.13477 1.13684 1.13983 1.13753
          1.129 1.1319 1.12534 1.11929 1.11763 1.1231 1.12447 1.11812 1.11722 1.12169 1.11697 1.11651
          1.11619 1.1166 1.11659 1.11618 1.11589 1.11624 1.11502 1.11813 1.11671 1.11601 1.11679 1.11761
          1.1164 1.1157 1.11649 1.12264 1.11717 1.11669 1.1191 1.11957 1.11659 1.11615 1.11761 1.11514
          1.11324 1.11689 1.11564 1.11472 1.11568 1.11617 1.11505 1.1142 1.11499 1.13336 1.1312 1.12107
          1.12553 1.13192 1.12998 1.1199 1.12301 1.1221 1.1173 1.11649 1.11818 1.12039 1.11702 1.1162
          1.11778 1.1157 1.11921 1.1185 1.11786 1.11851 1.11859 1.11804 1.11746 1.11795 1.12844 1.12528
          1.11845 1.1197 1.1237 1.11961 1.11727 1.11785 1.11838 1.11608 1.11508 1.11666 1.11704 1.11539
          1.11453 1.11565 1.11355 1.11618 1.11455 1.1133 1.11205 1.11322 1.11231 1.10991 1.10622 1.10961
          1.14304 1.14094 1.1381 1.14039 1.13126 1.12884 1.1268 1.12947 1.13282 1.12351 1.11984 1.13003
          1.12243 1.11762 1.11729 1.11991 1.12388 1.11753 1.11624 1.11811 1.11812 1.11653 1.11565 1.11675
          1.13381 1.13092 1.12277 1.12669 1.12505 1.12092 1.11792 1.11865 1.11991 1.11846 1.11786 1.11883
          1.11706 1.11679 1.11659 1.11689 1.11724 1.11612 1.11586 1.11687 1.11626 1.1156 1.11542 1.11602
          1.1148 1.11753 1.11698 1.11623 1.11663 1.11645 1.11612 1.11561 1.11584 1.11708 1.11559 1.11518
          1.11652 1.11588 1.11474 1.11447 1.11546 1.11317 1.11064 1.11351 1.1135 1.11098 1.10794 1.11171
          1.1185 1.11751 1.11615 1.1167 1.11688 1.11636 1.11542 1.11578 1.11398 1.11115 1.11417 1.11431
          1.1122 1.10957 1.11256 1.10966 1.10455 1.09259 1.105 1.10782 1.09937 1.08788 1.07749 1.05473
          1.08048 1.08567 1.06837 1.0203 1.07583 1.10252
        </DataArray>
        <DataArray type="Float32" Name="capillary pressure" NumberOfComponents="1" format="ascii">
          0 0 0 0 0 0 0 0 0 0 0 0
          0 0 0 0 0 0 0 0 0 0 0 0
          0 0 0 0 0 0 0 0 0 0 0 0
          0 0 0 0 0 0 0 0 0 0 0 0
          0 0 0 0 0 0 0 0 0 0 0 0
          0 0 0 0 0 0 0 0 0 0 0 0
          0 0 0 0 0 0 0 0 0 0 0 0
          0 0 0 0 0 0 0 0 0 0 0 0
          0 0 0 0 0 0 0 0 0 0 0 0
          0 0 0 0 0 0 0 0 0 0 0 0
          0 0 0 0 0 0 0 0 0 0 0 0
          0 0 0 0 0 0 0 0 0 0 0 0
          0 0 0 0 0 0 0 0 0 0 0 0
          0 0 0 0 0 0 0 0 0 0 0 0
          0 0 0 0 0 0 0 0 0 0 0 0
          0 0 0 0 0 0 0 0 0 0 0 0
          0 0 0 0 0 0 0 0 0 0 0 0
          0 0 0 0 0 0 0 0 0 0 0 0
          0 0 0 0 0 0 0 0 0 0 0 0
          0 0 0 0 0 0 0 0 0 0 0 0
          0 0 0 0 0 0
        </DataArray>
        <DataArray type="Float32" Name="wetting mobility" NumberOfComponents="1" format="ascii">
          842.223 669.908 570.466 704.492 754.943 615.253 526.123 642.121 500.738 329.811 266.378 431.533
          473.421 312.833 246.5 408.308 346.67 140.753 1.23103 230.407 325.939 99.6704 0.120827 193.1
          438.417 518.449 421.362 278.478 204.174 376.767 391.799 235.152 127.164 352.469 288.985 28.1512
          0.000165543 97.8268 233.132 0.77588 1.39633e-12 4.73443 450.789 402.743 295.014 360.541 412.886 370.306
          214.483 298.441 230.373 11.1027 0.00588266 110.204 186.469 0.559854 3.49559e-06 42.6712 6.07977e-10 3.68949e-19
          3.68949e-19 3.96013e-19 2.47154e-16 3.68949e-19 3.68949e-19 3.68956e-19 0 0.233456 5.33637e-17 4.10864e-18 5.22664e-14 0.00481941
          4.2636e-18 4.10864e-18 2.07742e-17 95.9354 0.000657351 4.25605e-13 2.51906 7.39933 6.96549e-11 6.56213e-18 0.00806104 4.45588e-34
          0 3.86648e-07 9.36348e-19 9.36346e-19 9.37819e-19 3.20075e-15 9.36346e-19 9.36346e-19 9.36346e-19 314.296 220.239 1.39035
          81.5463 278.202 168.673 0.0471542 20.8907 8.20849 2.21626e-11 4.17658e-18 7.1867e-11 0.729768 4.07702e-16 4.17658e-18
          5.31112e-16 0 0.000195561 8.56914e-15 8.54868e-19 8.555e-19 2.07691e-08 1.43604e-18 8.54868e-19 8.54868e-19 200.528 47.7972
          1.91705e-06 0.35008 52.7598 0.375064 2.01689e-17 3.10871e-06 0.000568132 8.94321e-20 8.88216e-20 8.93238e-20 2.15089e-12 8.88216e-20
          8.88216e-20 8.88216e-20 0 1.40285e-21 0 0 0 0 0 0 0 0
          418.374 379.082 349.522 385.646 266.808 196.365 125.545 221.034 271.713 37.4962 0.838153 211.337
          19.0932 5.44373e-07 1.58048e-15 0.521558 25.9951 3.17223e-08 1.12407e-18 1.24155e-07 1.56232e-08 1.12407e-18 1.12407e-18 1.12407e-18
          307.498 244.55 15.8826 153.004 89.0995 3.09602 2.01193e-09 0.0558025 8.58809 0.115985 0.00132928 0.873674
          2.82689e-11 1.67996e-18 4.65671e-19 4.7214e-16 1.51153e-09 4.38445e-20 4.38444e-20 3.78495e-17 4.38444e-20 4.38444e-20 4.38444e-20 4.38444e-20
          0 0.000145714 3.04613e-13 1.14271e-19 3.0489e-19 1.1438e-19 1.14271e-19 1.14271e-19 1.14271e-19 1.96415e-06 5.46848e-19 5.46842e-19
          3.22741e-15 5.46846e-19 5.46842e-19 5.46842e-19 5.46842e-19 0 0 0 0 0 0 0
          0.0309976 2.04666e-09 2.35477e-19 3.69807e-19 7.53564e-19 2.35477e-19 2.35477e-19 2.35477e-19 0 0 0 0
          0 0 0 0 0 0 0 0 0 0 0 0
          0 0 0 0 0 0
        </DataArray>
        <DataArray type="Float32" Name="nonwetting mobility" NumberOfComponents="1" format="ascii">
          0.145262 1.64865 4.1946 1.12943 0.603931 2.8193 6.04284 2.18341 7.37224 24.9683 38.3673 12.3203
          9.06919 28.0134 43.9313 14.5318 22.2622 93.8164 637.287 49.0644 25.633 131.351 792.497 63.7026
          11.7249 6.42178 13.2489 35.3447 58.8988 18.1077 16.314 47.4867 104.41 21.398 32.918 290.074
          959.674 133.495 48.1515 674.728 999.613 506.741 10.7181 15.1117 31.6026 20.2474 14.0697 18.9332
          54.7939 30.8784 49.0759 408.092 901.736 120.001 66.795 699.075 984.623 236.101 998.234 999.991
          999.991 999.991 999.955 999.991 999.991 999.991 1000 756.325 999.97 999.984 999.83 906.492
          999.984 999.984 999.976 135.747 943.097 999.713 571.906 456.477 998.973 999.982 893.726 1000
          1000 991.131 999.989 999.989 999.989 999.915 999.989 999.989 999.989 27.7372 52.6417 626.811
          154.891 35.411 76.01 835.357 328.651 444.334 999.228 999.984 998.964 679.43 999.949 999.984
          999.946 1000 957.96 999.892 999.989 999.989 995.73 999.988 999.989 999.989 60.433 221.502
          986.767 731.196 208.88 726.688 999.976 985.067 945.132 999.994 999.994 999.994 999.569 999.994
          999.994 999.994 1000 999.998 1000 1000 1000 1000 1000 1000 1000 1000
          13.5332 17.8201 21.8331 17.0274 38.2556 62.2409 105.776 52.3519 37.0031 252.834 668.715 56.0112
          340.188 990.34 999.929 704.138 300.414 995.254 999.988 993.324 996.024 999.988 999.988 999.988
          29.0434 44.5216 363.593 85.4243 144.37 551.384 997.618 828.376 438.993 794.566 932.167 665.441
          999.18 999.987 999.991 999.948 997.782 999.995 999.995 999.972 999.995 999.995 999.995 999.995
          1000 960.939 999.736 999.993 999.992 999.993 999.993 999.993 999.993 986.686 999.99 999.99
          999.915 999.99 999.99 999.99 999.99 1000 1000 1000 1000 1000 1000 1000
          851.568 997.608 999.992 999.991 999.99 999.992 999.992 999.992 1000 1000 1000 1000
          1000 1000 1000 1000 1000 1000 1000 1000 1000 1000 1000 1000
          1000 1000 1000 1000 1000 1000
        </DataArray>
        <DataArray type="Float32" Name="wetting-velocity" NumberOfComponents="3" format="ascii">
          1.55102e-05 1.99023e-05 2.08823e-05 2.18137e-05 3.66115e-06 2.84946e-06 8.49932e-06 5.94098e-06 1.34226e-06 4.83897e-06 2.49636e-05 5.63485e-06
          6.42144e-06 8.91998e-06 3.3207e-05 1.19071e-05 2.51094e-06 5.84896e-06 6.12482e-06 4.40628e-06 2.73023e-06 2.76728e-06 1.30366e-05 1.11315e-05
          8.06142e-06 1.11453e-06 8.47621e-07 3.74766e-06 4.04314e-07 2.40709e-07 2.77084e-06 9.49236e-07 2.02164e-07 5.34572e-06 2.57047e-06 5.76448e-07
          6.4794e-06 9.09466e-07 2.42337e-06 3.25156e-06 3.78259e-07 6.98788e-07 2.51303e-06 8.75703e-07 5.79827e-07 4.66893e-06 2.16101e-06 1.65049e-06
          1.8966e-06 2.33216e-06 3.15881e-07 1.58221e-06 9.54148e-07 1.19924e-07 7.91161e-07 3.82098e-07 1.94992e-08 2.11361e-06 1.68742e-06 1.82002e-07
          1.96679e-06 2.03365e-06 9.36874e-07 1.34724e-06 7.6735e-07 3.22541e-07 6.779e-07 2.54127e-07 3.85865e-08 2.12366e-06 1.50976e-06 6.04642e-07
          1.11125e-06 5.55387e-06 1.45374e-06 1.31694e-06 2.33848e-06 8.25097e-06 2.59191e-06 5.95937e-07 2.69211e-06 2.43448e-06 3.32474e-07 9.73135e-07
          2.06541e-06 7.86966e-07 7.95111e-07 2.983e-06 1.5691e-06 2.00955e-06 3.10579e-06 4.81317e-07 2.28726e-06 2.08696e-06 2.75735e-07 1.05409e-06
          1.56938e-06 5.67946e-07 8.08541e-07 3.33445e-06 1.40212e-06 2.15934e-06 1.93483e-06 1.71964e-06 1.38768e-06 1.0264e-06 4.98049e-07 3.06135e-07
          2.85606e-07 5.18161e-08 1.30118e-08 9.84804e-07 1.0346e-06 7.77601e-07 1.64242e-06 1.65496e-06 1.64894e-06 8.04922e-07 2.91026e-07 1.47971e-07
          6.72889e-09 6.73333e-10 2.3572e-10 5.47407e-07 7.1063e-07 4.95546e-07 2.07086e-07 2.94998e-06 2.02348e-06 1.18732e-06 3.05798e-06 2.32179e-06
          8.16484e-07 2.16495e-06 2.69691e-06 1.79113e-07 2.32694e-06 2.49656e-06 2.54149e-07 3.20278e-06 2.97718e-06 1.13941e-06 3.42355e-06 3.05083e-06
          7.46743e-07 1.93089e-06 1.99512e-06 2.46121e-07 2.14361e-06 2.20565e-06 2.20836e-06 2.21736e-07 1.3533e-07 9.33666e-07 7.93061e-09 8.56139e-09
          3.94155e-07 6.87549e-09 3.45074e-10 1.35977e-06 4.25919e-07 1.05379e-07 1.83124e-06 2.20314e-07 3.58929e-07 7.10883e-07 2.138e-10 7.82677e-09
          1.13712e-07 1.85294e-10 2.89812e-11 1.0185e-06 2.64501e-07 1.76891e-07 1.66136e-08 9.76186e-20 1.51789e-19 1.7815e-19 5.06513e-29 8.09552e-29
          9.98136e-29 1.5715e-28 6.92717e-29 3.8978e-12 8.46028e-20 4.23014e-21 5.04861e-10 3.66303e-26 1.34133e-19 5.92007e-26 4.5165e-29 2.03885e-28
          6.903e-29 1.27883e-28 1.75981e-28 2.01297e-15 3.18696e-26 5.00577e-27 8.998e-27 1.02125e-28 1.02125e-29 5.00018e-07 2.06379e-07 1.03773e-08
          2.14726e-10 2.02913e-12 1.01457e-13 2.65465e-23 1.56509e-26 1.34019e-27 1.38318e-09 1.17655e-10 5.88274e-12 3.28344e-07 6.49102e-08 9.79145e-09
          3.43362e-12 1.06747e-15 1.6012e-16 1.02295e-26 2.40536e-27 2.64503e-27 1.11433e-10 2.01493e-12 3.0224e-13 1.20911e-06 1.41808e-07 4.1783e-07
          2.90833e-07 1.30858e-13 3.12922e-10 3.33057e-09 1.1341e-13 2.93033e-14 7.97334e-07 1.25203e-07 8.9e-08 8.66368e-07 5.89676e-09 1.82928e-07
          1.13492e-08 1.24558e-20 2.28941e-13 5.99736e-12 1.0795e-20 3.89936e-21 4.35585e-07 5.11522e-09 3.72886e-09 1.04891e-13 0 2.70089e-26
          4.70077e-28 0 0 6.71608e-08 2.03171e-09 5.09469e-10 2.64182e-16 1.63754e-22 4.09403e-23 6.44459e-28 8.38773e-28 2.06425e-27
          1.32344e-13 1.72582e-16 4.31455e-17 1.01755e-09 4.13944e-12 1.44893e-12 1.80379e-24 2.88134e-27 1.58395e-27 5.61686e-28 7.73429e-28 6.41855e-28
          1.09273e-21 1.3459e-24 4.71751e-25 1.93525e-07 2.44819e-06 2.9214e-07 7.78989e-07 2.54278e-06 2.28109e-07 1.07348e-07 8.54296e-07 4.32714e-08
          1.04385e-07 1.156e-06 1.27846e-07 1.49871e-07 2.49784e-06 9.19478e-07 6.27669e-07 2.37857e-06 7.61698e-07 1.98886e-08 6.43284e-07 9.70983e-08
          1.73686e-08 9.75736e-07 2.436e-07 6.00196e-07 7.98345e-07 4.51182e-08 1.16697e-08 1.03824e-09 5.1912e-11 3.58634e-20 6.84765e-21 3.42383e-22
          1.17972e-09 1.22929e-08 6.14645e-10 4.96846e-07 7.01056e-07 1.11148e-07 7.63086e-10 7.7765e-11 1.16647e-11 2.6081e-25 1.26421e-25 2.0983e-26
          3.06374e-11 7.20697e-10 1.08105e-10 1.12798e-24 9.30853e-21 9.30853e-22 3.95616e-14 1.97634e-07 9.88176e-09 4.04745e-14 1.3717e-09 6.85851e-11
          5.04564e-28 2.10887e-24 1.05542e-25 1.58461e-28 5.27829e-14 2.63915e-15 -9.51466e-16 3.5102e-08 5.26534e-09 3.46314e-18 3.31978e-11 4.97967e-12
          3.76296e-28 3.17638e-28 3.60202e-28 1.16464e-28 5.08501e-18 7.62752e-19 1.81377e-07 1.83236e-06 1.21197e-06 2.73301e-07 1.16722e-06 7.10435e-07
          1.37887e-10 1.21189e-07 3.03219e-08 -5.21921e-10 6.50907e-07 1.88093e-07 5.83418e-08 1.00242e-06 8.53424e-07 6.35498e-08 7.24539e-07 3.64151e-07
          5.37279e-16 3.16348e-10 1.10723e-10 -6.29325e-12 1.11485e-07 3.9261e-08 1.06185e-07 2.95859e-07 7.45418e-08 4.26014e-13 9.39727e-14 2.34932e-14
          -1.91883e-28 6.19819e-29 1.70014e-27 1.10324e-15 3.6247e-13 9.06175e-14 3.25336e-10 6.78134e-09 2.37378e-09 1.21843e-21 7.5116e-22 2.62906e-22
          7.50322e-29 5.02801e-29 4.73839e-29 1.11057e-26 1.08601e-21 3.80105e-22 6.07556e-31 3.53386e-29 1.06016e-29 -1.14088e-19 5.9411e-11 1.78233e-11
          4.32556e-21 6.50242e-24 6.50242e-25 0 0 0 0 0 0 0 0 0
          6.90256e-29 5.23772e-28 1.57132e-28 0 0 0 0 0 0 0 0 0
          1.25487e-07 4.03891e-07 3.9855e-06 8.14022e-07 3.91711e-07 4.42417e-06 7.11586e-07 1.3328e-06 4.50053e-06 1.20077e-07 1.35521e-06 4.1574e-06
          1.45286e-07 1.78065e-07 2.52585e-06 4.93863e-07 1.49131e-07 2.1068e-06 3.33253e-07 4.35999e-07 1.83991e-06 1.26066e-07 5.56252e-07 2.35653e-06
          1.63004e-06 2.75492e-07 2.03784e-06 8.72399e-07 5.00241e-08 5.96911e-07 7.12769e-07 5.47303e-08 3.43822e-07 1.44204e-06 7.68653e-07 1.91097e-06
          3.40031e-07 1.79358e-08 9.39402e-07 1.55389e-08 6.68096e-17 6.89839e-08 3.2913e-10 7.21543e-17 7.14227e-10 1.67428e-07 1.972e-08 7.44152e-07
          5.25947e-07 5.66264e-07 8.25304e-07 6.47655e-08 7.65401e-10 8.66419e-10 9.28344e-17 1.61897e-17 5.66677e-18 2.61462e-08 5.93346e-08 2.6908e-08
          -1.32437e-08 3.79742e-10 5.60174e-08 6.30511e-18 4.85772e-25 1.12882e-17 9.28731e-28 8.74308e-28 6.58988e-28 -2.17419e-17 8.64756e-18 7.04647e-17
          2.04691e-07 1.7901e-06 2.67755e-06 6.29311e-07 1.70849e-06 2.52566e-06 1.23691e-07 8.18172e-07 9.2033e-07 1.44331e-07 1.31689e-06 1.63032e-06
          7.89808e-08 6.07438e-07 1.41959e-06 -1.19154e-08 3.02297e-07 1.0166e-06 -6.42786e-09 3.78065e-09 3.31708e-08 -3.49185e-08 2.32062e-07 5.82052e-07
          -4.56118e-08 3.54708e-09 9.9992e-07 -9.65837e-08 2.61244e-11 6.61267e-07 -6.55064e-08 2.86591e-11 3.92416e-07 -4.62644e-08 4.25994e-09 8.34256e-07
          -4.16499e-10 1.90253e-21 8.03248e-09 -9.75126e-12 1.33755e-28 6.26867e-11 -1.00033e-13 2.26863e-28 5.95435e-13 -3.36325e-11 2.05481e-21 6.00581e-10
          -8.09082e-09 2.10185e-19 3.14821e-08 -9.05765e-17 4.31589e-30 2.51956e-16 -2.72437e-25 1.46159e-29 7.45969e-25 -1.50904e-10 2.27e-19 5.41325e-10
          -1.2168e-19 4.08161e-30 4.69336e-19 3.51631e-29 3.09277e-30 7.20118e-30 3.20762e-29 9.92851e-30 6.94579e-30 -2.91202e-27 1.67533e-29 1.10343e-26
          -1.29592e-18 5.04491e-27 3.3942e-18 -1.56908e-08 4.66456e-10 2.57848e-07 -8.44911e-10 4.83489e-13 4.62718e-09 -2.82404e-19 9.5581e-23 1.41204e-18
          -3.1704e-12 5.48222e-14 4.75642e-11 -3.69413e-15 8.57867e-26 6.06893e-14 -1.81482e-23 1.12029e-28 9.93834e-23 3.6693e-29 6.07818e-29 3.22313e-29
          9.09468e-30 7.11371e-29 1.04676e-28 1.02904e-07 3.97878e-16 6.92567e-09 1.34928e-15 8.1689e-29 2.68072e-20 2.01438e-24 2.6707e-28 2.68079e-27
          1.2316e-09 4.29708e-16 3.30049e-12 1.80167e-16 8.62131e-29 6.37849e-16 3.8015e-28 5.58745e-29 2.65955e-28 3.1165e-28 1.90712e-28 2.6897e-28
          8.8593e-25 3.36585e-28 9.94699e-25 2.49475e-28 0 0 0 0 0 9.45025e-18 5.69172e-25 6.06886e-25
          -2.55058e-29 0 1.53689e-28 0 0 0 0 0 0 0 0 0
          -9.24319e-09 4.97787e-07 2.99823e-07 -6.73243e-11 3.31598e-08 1.19619e-08 -2.34354e-27 1.11886e-18 3.91602e-19 -1.34161e-16 2.22772e-11 7.79865e-12
          -1.7455e-12 4.03936e-11 3.37873e-11 -2.40824e-19 1.28456e-18 1.41058e-18 7.75164e-29 1.62203e-28 1.94856e-28 1.33912e-29 4.29994e-28 3.84618e-28
          4.65434e-19 3.13458e-17 9.40422e-18 0 0 0 -1.37727e-31 1.36949e-28 4.17734e-29 -3.66566e-29 8.3806e-29 2.4403e-28
          0 0 0 0 0 0 0 0 0 0 0 0
          0 0 0 0 0 0 0 0 0 0 0 0
          0 0 0 0 0 0 0 0 0 0 0 0
          0 0 0 0 0 0 0 0 0 0 0 0
          0 0 0 0 0 0
        </DataArray>
        <DataArray type="Float32" Name="nonwetting-velocity" NumberOfComponents="3" format="ascii">
          2.67512e-09 3.43264e-09 3.60167e-09 1.60875e-08 9.01011e-09 7.01255e-09 3.36632e-08 2.81615e-08 9.09346e-09 7.75778e-09 1.53435e-08 7.79984e-09
          5.73929e-09 7.13571e-09 1.35139e-08 2.55299e-08 1.1506e-08 2.08865e-08 4.55474e-08 3.55862e-08 2.45876e-08 9.73938e-09 2.42261e-08 2.65908e-08
          4.81219e-08 1.64089e-08 1.24793e-08 1.31911e-07 3.06085e-08 1.82228e-08 1.88337e-07 1.12779e-07 2.79213e-08 7.60922e-08 6.00309e-08 1.57898e-08
          5.54151e-08 1.74224e-08 4.27517e-08 1.34902e-07 3.38721e-08 5.93827e-08 2.07608e-07 1.26999e-07 9.34455e-08 8.87576e-08 6.39578e-08 5.35006e-08
          9.0634e-08 9.92682e-08 1.77602e-08 3.91907e-07 3.59893e-07 6.61292e-08 8.39121e-07 8.47974e-07 2.46544e-07 2.00731e-07 2.37385e-07 3.26595e-08
          1.02883e-07 1.07783e-07 6.285e-08 4.61496e-07 4.60332e-07 2.93233e-07 8.27457e-07 8.98534e-07 7.09548e-07 2.46082e-07 3.13196e-07 1.59798e-07
          2.9719e-08 6.40485e-08 3.04301e-08 2.07148e-08 2.89657e-08 5.08394e-08 5.72759e-08 1.87381e-08 6.58647e-08 1.53764e-07 4.21979e-08 1.07395e-07
          2.63033e-07 1.80468e-07 1.84606e-07 7.84091e-08 6.68294e-08 8.32225e-08 7.00514e-08 2.00414e-08 8.43755e-08 1.95414e-07 5.56819e-08 1.76708e-07
          3.43734e-07 3.18369e-07 4.4541e-07 9.00966e-08 7.71663e-08 1.18765e-07 1.3915e-07 1.34723e-07 1.2713e-07 6.5098e-07 7.23703e-07 8.10075e-07
          1.00844e-06 1.13604e-06 9.55933e-07 4.08886e-07 5.26829e-07 5.40498e-07 1.90171e-07 2.15074e-07 2.46199e-07 8.19506e-07 8.92771e-07 1.25872e-06
          1.37774e-06 1.1799e-06 9.77277e-07 7.21269e-07 9.47458e-07 1.2628e-06 4.87021e-09 5.04066e-08 4.46936e-08 4.19502e-08 6.65762e-08 6.68596e-08
          8.61279e-08 1.60813e-07 1.56342e-07 1.11276e-08 9.54025e-08 9.7534e-08 8.95648e-09 6.80495e-08 7.86847e-08 5.40081e-08 9.13549e-08 1.15333e-07
          1.57115e-07 2.62283e-07 3.15455e-07 2.66641e-08 1.40561e-07 1.61812e-07 2.87863e-07 4.7236e-08 2.8829e-08 7.37155e-07 2.91499e-07 3.14684e-07
          9.86851e-07 6.05145e-07 2.29377e-07 5.46029e-07 2.95466e-07 1.06331e-07 3.32352e-07 7.89186e-08 1.12103e-07 7.24358e-07 2.66966e-07 7.38393e-07
          1.1016e-06 5.72141e-07 5.58696e-07 6.80222e-07 4.7542e-07 4.89355e-07 8.69758e-07 1.6028e-07 2.49221e-07 2.82694e-07 1.37284e-07 2.19419e-07
          2.51589e-07 4.25935e-07 1.87753e-07 8.32234e-07 5.55223e-07 2.23563e-07 7.71266e-07 1.48201e-07 7.35034e-07 2.14898e-07 1.22414e-07 5.52605e-07
          1.87094e-07 3.46612e-07 4.76974e-07 6.99383e-07 4.62739e-07 6.67041e-07 3.74086e-07 6.51772e-07 5.05336e-07 9.82119e-07 6.50592e-07 2.21438e-07
          1.26477e-06 6.07277e-07 1.78634e-07 8.40185e-07 6.31649e-07 1.67305e-07 1.19483e-06 9.57021e-07 1.79125e-07 9.58152e-07 7.82718e-07 6.04774e-07
          1.00847e-06 5.96551e-07 6.01827e-07 5.92264e-07 5.75447e-07 6.42265e-07 1.09354e-06 8.91209e-07 6.09227e-07 4.35771e-07 2.00656e-07 3.84678e-07
          8.42893e-07 1.87741e-07 7.92061e-07 1.15626e-06 5.98639e-07 7.24669e-07 7.70866e-07 6.96666e-07 9.56263e-07 6.50417e-07 3.63781e-07 8.52237e-07
          9.62559e-07 1.78637e-07 8.22909e-07 8.09965e-07 5.97108e-07 9.1328e-07 7.84914e-07 8.35408e-07 1.14274e-06 3.9234e-07 4.16302e-07 9.17267e-07
          4.37317e-07 1.0313e-06 1.28004e-06 1.20968e-06 9.55705e-07 8.84772e-07 1.29253e-06 7.61903e-07 8.32164e-07 9.00067e-07 8.95784e-07 8.57957e-07
          1.14658e-06 1.23774e-06 9.42594e-07 1.20397e-06 9.28631e-07 1.31388e-06 9.91948e-07 7.32426e-07 8.70948e-07 5.99864e-07 8.25999e-07 6.85481e-07
          1.02007e-06 1.13635e-06 1.13152e-06 1.70789e-08 1.28877e-07 2.14229e-08 1.56286e-07 2.66276e-07 3.74478e-08 7.13954e-07 8.76015e-07 2.94733e-07
          1.9827e-07 4.91093e-07 1.57602e-07 1.92743e-08 1.70045e-07 8.79234e-08 2.31271e-07 3.62247e-07 2.14459e-07 8.02749e-07 9.29124e-07 8.18564e-07
          2.99676e-07 7.19582e-07 6.24417e-07 7.32324e-07 8.95939e-07 3.26327e-07 1.39258e-06 8.75618e-07 1.48115e-07 1.03807e-06 4.89043e-07 1.22628e-07
          1.01268e-06 1.25049e-06 1.98058e-07 8.19122e-07 9.65903e-07 9.51752e-07 1.25453e-06 8.48235e-07 5.86369e-07 8.10741e-07 4.35096e-07 5.48864e-07
          9.62752e-07 1.17392e-06 7.01307e-07 8.80908e-07 3.08428e-07 3.4907e-07 1.93794e-07 6.54633e-07 2.19059e-07 7.14472e-07 8.84162e-07 1.87237e-07
          5.90078e-07 2.46074e-07 1.27641e-07 1.85224e-07 2.58559e-07 1.75894e-07 1.50761e-07 8.15515e-07 7.5866e-07 5.61045e-07 8.26996e-07 6.08047e-07
          4.40175e-07 2.21187e-07 3.98793e-07 1.36237e-07 2.4379e-07 5.54291e-07 5.65762e-08 2.77641e-07 2.29596e-07 4.99811e-07 7.25919e-07 8.09172e-07
          7.93469e-07 1.04538e-06 1.11016e-06 2.69196e-07 7.57177e-07 1.06447e-06 2.7148e-07 5.74494e-07 7.73258e-07 8.20314e-07 8.56309e-07 1.44233e-06
          6.70104e-07 8.9502e-07 1.2134e-06 1.65621e-07 8.60882e-07 1.27806e-06 1.05497e-06 1.06415e-06 1.28943e-06 1.59208e-06 9.48447e-07 8.66463e-07
          1.19182e-06 6.95287e-07 7.6749e-07 9.81443e-07 1.28838e-06 1.0819e-06 1.01559e-06 1.27859e-06 1.71502e-06 1.2351e-06 8.78282e-07 8.75236e-07
          8.44746e-07 5.66076e-07 5.33469e-07 8.15678e-07 1.03258e-06 1.24855e-06 1.12313e-06 3.97e-07 9.40824e-07 3.97192e-07 3.86238e-07 8.93556e-07
          9.05169e-07 6.70305e-07 5.15068e-07 3.45177e-07 5.82183e-07 7.41649e-07 3.09218e-07 2.28614e-07 1.01975e-06 7.74967e-07 2.44658e-07 6.36509e-07
          1.2349e-06 1.12282e-06 1.30409e-06 5.18728e-07 1.3503e-06 2.22108e-06 6.88543e-07 6.52751e-07 4.18595e-06 1.46315e-06 4.76988e-07 1.68415e-06
          6.56303e-09 1.30647e-08 8.06301e-08 4.95245e-08 1.84137e-08 1.04983e-07 6.21745e-08 7.6715e-08 1.37764e-07 9.51694e-09 5.46865e-08 1.06488e-07
          3.02442e-08 2.55314e-08 1.80632e-07 1.72216e-07 4.72693e-08 2.61296e-07 3.12199e-07 2.82695e-07 4.39794e-07 4.61222e-08 1.13774e-07 2.63232e-07
          1.47079e-07 3.75176e-08 1.68797e-07 6.58705e-07 3.37309e-07 6.28331e-07 9.0698e-07 9.26111e-07 1.08685e-06 2.23963e-07 1.65381e-07 2.89122e-07
          7.38668e-07 3.19565e-07 6.81818e-07 1.16124e-06 1.21542e-07 8.86357e-07 1.24826e-06 4.13799e-07 1.07569e-06 9.07979e-07 8.16793e-07 1.02312e-06
          6.6229e-07 7.61797e-07 9.49351e-07 1.57686e-06 1.07444e-06 1.20522e-06 1.41763e-06 9.51252e-07 8.10778e-07 1.0103e-06 1.54555e-06 1.67451e-06
          9.79242e-07 1.01604e-06 1.57451e-06 1.15669e-06 6.35862e-07 8.17877e-07 8.26212e-07 7.77797e-07 5.86245e-07 6.77282e-07 1.19237e-06 1.30241e-06
          2.35141e-08 1.18833e-07 1.66625e-07 1.12262e-07 1.92783e-07 2.72964e-07 6.0997e-07 8.30304e-07 1.08836e-06 1.02194e-07 3.33287e-07 4.45371e-07
          2.25307e-07 4.3696e-07 5.6435e-07 7.66077e-07 8.66552e-07 1.08986e-06 4.97914e-07 1.2496e-06 1.6471e-06 1.96651e-07 9.18483e-07 1.1241e-06
          2.92353e-07 1.81314e-07 5.09164e-07 7.17296e-07 1.78968e-07 5.91644e-07 6.72376e-07 5.05212e-07 7.51786e-07 2.86205e-07 5.22642e-07 6.54095e-07
          1.41417e-07 6.72458e-08 4.13954e-07 4.1843e-07 7.96172e-08 4.33423e-07 4.57125e-07 2.6295e-07 4.30701e-07 1.56594e-07 2.39726e-07 4.69424e-07
          8.53125e-07 1.38746e-07 8.38002e-07 1.05526e-06 9.84358e-08 6.0607e-07 9.50789e-07 3.33357e-07 6.43626e-07 7.22509e-07 6.18246e-07 1.06468e-06
          6.56116e-07 9.30925e-08 3.1447e-07 8.01994e-07 7.05393e-08 1.64243e-07 7.31588e-07 2.26448e-07 1.58418e-07 6.43464e-07 3.82107e-07 3.10606e-07
          9.49306e-07 7.90587e-07 5.92994e-07 2.17753e-07 6.8534e-07 8.51538e-07 7.63194e-07 6.25468e-07 1.18768e-06 5.01524e-07 7.40945e-07 1.0226e-06
          1.33991e-07 8.88085e-07 1.1135e-06 1.73518e-07 4.15944e-07 4.21025e-07 5.23445e-07 3.8886e-07 3.45618e-07 3.21103e-07 5.31905e-07 2.82058e-07
          1.16471e-07 6.22281e-07 3.62771e-07 1.09936e-06 1.99873e-07 8.66929e-07 1.12322e-06 1.4938e-07 7.10975e-07 1.01607e-06 4.88379e-07 7.91629e-07
          1.3251e-06 8.36411e-07 1.01412e-06 9.11865e-07 1.57654e-07 8.44963e-07 6.95165e-07 1.02176e-07 4.8634e-07 5.69902e-07 3.48747e-07 4.91855e-07
          9.08779e-07 6.15499e-07 9.12113e-07 3.75215e-07 4.45797e-07 8.85777e-07 4.72935e-07 1.58819e-06 1.52081e-06 1.16827e-06 1.13469e-06 1.0344e-06
          8.69351e-07 3.2927e-07 3.13972e-07 3.76751e-07 5.5809e-07 3.58933e-07 5.6085e-07 2.21066e-06 6.63021e-07 1.20573e-06 1.0927e-06 3.87316e-07
          2.33876e-07 8.2549e-07 1.35329e-06 9.62288e-07 1.24707e-06 1.58903e-06 5.99895e-07 9.48998e-07 1.16791e-06 1.30072e-07 1.14152e-06 1.34025e-06
          1.277e-07 1.00428e-06 1.51696e-06 5.75041e-07 9.83223e-07 1.23275e-06 3.29186e-07 6.88822e-07 8.2749e-07 7.97496e-08 8.31009e-07 1.10674e-06
          1.25604e-06 1.1705e-06 1.15894e-06 1.70045e-06 6.19198e-07 1.09076e-06 4.64811e-07 4.89877e-07 1.03451e-06 5.07965e-07 7.85711e-07 6.44947e-07
          1.42731e-06 1.04026e-06 5.37657e-07 2.40023e-06 5.98381e-07 5.28787e-07 7.62172e-07 3.96649e-07 5.86425e-07 1.70592e-06 1.61316e-06 1.38394e-06
          7.36722e-07 3.33398e-06 3.31156e-06 9.85079e-07 2.61872e-06 9.58882e-06 3.43208e-06 1.01921e-06 1.83037e-06 2.28233e-06 1.79791e-06 5.157e-07
          1.24503e-06 6.02493e-06 1.63403e-06 5.82368e-06 5.78481e-06 3.4038e-06 2.60772e-06 1.40411e-05 1.22513e-05 5.23369e-06 9.6982e-06 3.51378e-05
          1.15365e-05 3.15203e-06 6.53115e-06 8.81363e-06 7.00676e-06 1.43045e-06 4.86393e-06 2.57175e-05 5.89762e-06 2.43198e-05 3.56528e-05 4.79846e-05
          2.23936e-05 4.23442e-06 2.80536e-06 5.85711e-06 1.206e-06 6.73009e-07
        </DataArray>
        <DataArray type="Float32" Name="wetting saturation" NumberOfComponents="1" format="ascii">
          0.77486 0.743002 0.721688 0.749858 0.759415 0.731604 0.71115 0.737307 0.705063 0.65538 0.632086 0.68675
          0.69808 0.64949 0.624025 0.680117 0.660854 0.570552 0.318766 0.617369 0.653944 0.541798 0.268061 0.600479
          0.688502 0.70941 0.683744 0.63677 0.60521 0.67057 0.675138 0.619239 0.56271 0.663043 0.640797 0.454073
          0.213975 0.541166 0.618681 0.306996 0.200158 0.366906 0.691652 0.678369 0.64341 0.665381 0.681289 0.668695
          0.610381 0.644205 0.617276 0.404194 0.233774 0.550983 0.596747 0.299254 0.205716 0.481659 0.200706 0.200003
          0.200003 0.200003 0.200018 0.200003 0.200003 0.200003 0.2 0.280839 0.200011 0.200005 0.200066 0.231725
          0.200005 0.200005 0.200008 0.53975 0.219678 0.200116 0.342887 0.385073 0.200402 0.200005 0.235618 0.2
          0.2 0.203272 0.200003 0.200003 0.200003 0.200034 0.200003 0.200003 0.200003 0.649783 0.61299 0.322055
          0.524556 0.636669 0.588068 0.254121 0.4343 0.388535 0.200295 0.200005 0.200399 0.305849 0.20002 0.200005
          0.200021 0.2 0.213938 0.200042 0.200003 0.200003 0.201515 0.200004 0.200003 0.200003 0.603246 0.488412
          0.204781 0.28656 0.493949 0.289439 0.200009 0.205226 0.21902 0.200002 0.200002 0.200002 0.200176 0.200002
          0.200002 0.200002 0.2 0.200001 0.2 0.2 0.2 0.2 0.2 0.2 0.2 0.2
          0.682782 0.671313 0.662124 0.673241 0.632008 0.601189 0.561195 0.612753 0.63422 0.471307 0.309307 0.60892