<?xml version="1.0"?>
<VTKFile type="UnstructuredGrid" version="0.1" byte_order="LittleEndian">
  <UnstructuredGrid>
    <Piece NumberOfCells="590" NumberOfPoints="336">
      <CellData Scalars="waterDepth">
        <DataArray type="Float32" Name="waterDepth" NumberOfComponents="1" format="ascii">
          9.74346 9.62605 9.70685 9.86494 9.82515 9.8281 9.82759 9.82709 9.82553 9.83082 9.82992 9.83045
          9.83187 9.83099 9.83438 9.83197 9.83249 9.83503 9.83436 9.83651 9.83411 9.83468 9.8369 9.83638
          9.83805 9.83646 9.83712 9.83855 9.83799 9.84131 9.83974 9.84047 9.84224 9.84205 9.85185 9.96331
          9.84371 9.97517 9.84588 9.84166 9.85058 9.85264 9.84983 9.84897 9.95087 9.95238 9.98672 9.84707
          9.94557 9.84102 9.83853 9.83934 9.83775 9.83583 9.83747 9.83525 9.83356 9.83569 9.83303 9.83149
          9.83282 9.83099 9.82939 9.82823 9.82876 9.81979 9.81415 9.79907 10.0781 9.86711 9.61836 9.78763
          9.70835 10.0077 9.97249 9.88631 9.82366 9.69234 9.8135 9.82565 9.78633 10.006 9.82444 9.81961
          9.82134 9.81733 9.82295 9.8211 9.82641 9.82862 9.82286 9.8284 9.82911 9.82966 9.83079 9.83049
          9.82989 9.82997 9.83074 9.83096 9.8305 9.83281 9.83352 9.83364 9.83444 9.83251 9.83367 9.83199
          9.83283 9.83302 9.83397 9.83559 9.83615 9.83608 9.83667 9.83467 9.83597 9.83411 9.83494 9.83525
          9.83614 9.83727 9.83807 9.83764 9.83828 9.83707 9.83754 9.83644 9.83731 9.83786 9.83792 9.8392
          9.84163 9.84012 9.841 9.84056 9.84042 9.83946 9.84104 9.84096 9.84142 9.84633 9.85983 9.8415
          9.85352 9.97143 9.92444 9.97113 9.94448 9.96302 9.98145 9.84513 9.87414 9.84294 9.84003 9.85557
          9.90065 9.84004 9.86779 9.98649 9.97497 9.97694 9.85304 9.85549 9.94609 9.97684 9.87153 9.8907
          9.84111 9.84491 9.83872 9.8402 9.83857 9.83937 9.83801 9.83882 9.83585 9.83743 9.83677 9.83714
          9.8355 9.83608 9.83356 9.83569 9.83497 9.8355 9.83335 9.83387 9.83146 9.83325 9.83199 9.83288
          9.83128 9.83179 9.82933 9.82933 9.82727 9.82866 9.82843 9.82945 9.82562 9.82719 9.81922 9.81822
          9.79633 9.83012 9.79787 9.72007 9.79012 9.97406 9.80233 9.74642 9.88759 9.76397 10.0584 10.0773
          9.82221 9.81678 9.81041 9.81534 9.76072 9.78635 9.84184 9.83771 9.84064 9.83665 9.90402 9.95342
          9.96427 9.86322 9.83876 9.83706 9.83708 9.83462 9.8351 9.8325 9.83186 9.8303 9.82651 9.82418
          9.82419 9.8227 9.82078 9.89631 9.78411 9.92553 9.82092 9.82035 9.71785 9.6176 9.81549 9.79248
          9.81902 9.82747 9.82712 9.8167 9.83167 9.83016 9.8291 9.8296 9.82865 9.83088 9.83264 9.82984
          9.83316 9.83231 9.83319 9.83368 9.83404 9.83302 9.8356 9.83257 9.83624 9.8344 9.83571 9.83621
          9.83634 9.83518 9.83758 9.83489 9.83923 9.83667 9.83778 9.83787 9.83887 9.83783 9.84027 9.83744
          9.8415 9.8398 9.84265 9.84006 9.84948 9.84009 9.85218 9.84284 9.89246 9.87745 9.92326 9.86248
          9.85934 9.9647 9.84418 9.95048 9.94398 9.96395 9.9189 9.94714 9.90634 9.873 9.84369 9.9196
          9.84138 9.84283 9.8385 9.83924 9.83726 9.83939 9.83993 9.83876 9.83657 9.83699 9.834 9.8367
          9.83638 9.83576 9.83461 9.83518 9.83238 9.83457 9.83408 9.83354 9.83152 9.83244 9.83062 9.83145
          9.83197 9.83143 9.82602 9.82794 9.79435 9.82455 9.82964 9.82881 9.81703 9.79541 9.77795 9.81899
          9.81994 9.77623 9.62675 9.69448 9.78729 9.77956 9.82722 9.89866 9.82197 9.81617 9.82925 9.83024
          9.83225 9.83281 9.83449 9.83507 9.83686 9.83753 9.8404 9.84193 9.82477 9.82123 9.76768 9.81574
          9.82875 9.82732 9.75703 9.82871 9.81615 9.82404 9.81907 9.82344 9.81741 9.8238 9.83197 9.83238
          9.82867 9.83051 9.83166 9.83165 9.83038 9.83136 9.83069 9.83102 9.83431 9.83517 9.83248 9.83429
          9.83332 9.83498 9.83391 9.83347 9.83299 9.83337 9.83671 9.83721 9.8349 9.83665 9.83538 9.83712
          9.83621 9.83607 9.83547 9.83565 9.8409 9.84072 9.83743 9.83862 9.84082 9.83932 9.83847 9.83944
          9.83832 9.8383 9.84963 9.84351 9.85737 9.84617 9.84546 9.84564 9.86122 9.84178 9.94577 9.86591
          9.92635 9.85179 9.88441 9.94755 9.92714 9.94499 9.89881 9.91862 9.85001 9.86866 9.84893 9.87397
          9.85048 9.86068 9.83814 9.83925 9.84336 9.83964 9.83535 9.83593 9.8375 9.83625 9.83373 9.83393
          9.83521 9.83404 9.83007 9.8307 9.83265 9.83096 9.82718 9.82765 9.8283 9.82679 9.80056 9.77423
          9.80155 9.81074 9.76674 9.8096 9.8123 9.80632 9.79441 9.79382 9.81602 9.82468 9.82994 9.82986
          9.83334 9.83288 9.83584 9.83518 9.83808 9.83779 9.84454 9.84313 9.94765 9.88245 9.85484 9.87327
          9.85482 9.90832 9.83825 9.83702 9.83575 9.83461 9.8333 9.83226 9.82933 9.82256 9.82251 9.80389
          9.80371 9.81435 9.77325 9.79284 9.82755 9.8263 9.82405 9.81787 9.82872 9.82693 9.82973 9.83087
          9.83257 9.83094 9.83362 9.83461 9.83529 9.83469 9.83362 9.83303 9.83478 9.8342 9.83684 9.83574
          9.83744 9.83594 9.8381 9.83877 9.84183 9.83931 9.8471 9.84738 9.84442 9.8446 9.88468 9.8951
          9.87511 9.85936 9.85688 9.84833 9.86718 9.85769 9.84151 9.83836 9.84085 9.84003 9.84095 9.84368
          9.83924 9.84003 9.83686 9.83549 9.83656 9.83635 9.83654 9.83725 9.83625 9.83686 9.83421 9.83482
          9.83455 9.83396 9.83183 9.82967 9.83169 9.8316 9.83155 9.83233 9.83088 9.83181 9.82611 9.82822
          9.82211 9.82601 9.8052 9.81429 9.77895 9.82152 9.79123 9.75982 9.78631 9.79212 9.92363 9.8919
          9.88668 9.91897
        </DataArray>
        <DataArray type="Float32" Name="velocityX" NumberOfComponents="1" format="ascii">
          0.901781 0.820561 2.93974 4.6255 1.1916 1.19214 1.20371 1.20666 1.20564 1.23502 1.21805 1.22006
          1.24299 1.24435 1.26365 1.22541 1.22747 1.26944 1.27161 1.28395 1.23517 1.23831 1.28811 1.2909
          1.30091 1.24983 1.25467 1.30628 1.30862 1.33385 1.27697 1.28729 1.34958 3.51097 1.46322 5.00302
          1.36569 5.36687 5.08486 1.29754 1.33784 1.37138 1.3487 1.39355 3.29507 2.07857 4.0785 1.44811
          5.39594 1.28736 1.25849 3.48675 1.25231 1.23884 3.4837 1.23526 1.22639 3.48323 1.224 1.21817
          3.48164 1.21647 1.20891 3.48035 1.20335 3.46876 1.20879 4.70214 5.98857 4.63404 1.49418 3.81719
          2.94884 5.73999 5.28342 6.11029 3.48028 2.99858 1.16905 1.18983 1.12019 5.73413 5.33132 1.16778
          1.16971 1.1886 1.18807 1.16647 3.48419 1.21117 3.48599 1.21724 5.13929 1.22649 3.48074 1.21463
          1.23617 1.21231 3.4701 1.22181 3.48525 1.25042 5.12751 1.25731 3.48257 1.22187 1.26562 1.21993
          3.46053 1.22977 3.48678 1.27471 5.11791 1.27952 3.48357 1.232 1.28664 1.22905 3.45324 1.24177
          3.48744 1.29218 5.10848 1.29636 3.48413 1.24721 1.30356 1.24278 3.44941 1.26045 3.48858 1.31299
          5.09613 1.32187 3.49826 1.2766 1.33374 1.26633 3.44926 1.29792 3.51188 1.36563 1.41833 1.34776
          1.40554 5.4615 4.68228 5.46771 5.22052 5.01562 5.60406 1.30845 3.68801 1.31003 3.58333 1.34548
          3.37452 3.61679 3.73307 4.07671 5.37332 4.62213 1.41622 1.44352 5.21763 4.61959 3.7665 5.1032
          3.45421 3.66482 1.26765 3.50005 1.31485 1.32293 3.44892 3.44868 1.24558 3.48788 1.295 1.29914
          3.45199 3.45095 1.23232 3.48737 1.27708 1.28206 3.45837 3.45643 1.22354 3.48644 1.25198 1.25907
          3.46761 3.46522 1.21533 3.48494 1.21769 1.22738 3.47875 3.47547 1.18648 3.48283 1.1816 3.44933
          3.59239 1.20971 5.21491 0.892627 1.13808 5.28259 4.70963 0.915322 6.11747 3.61086 6.09848 5.989
          5.11449 1.15372 1.18872 1.16525 3.59452 3.81769 3.44981 3.55077 3.45738 3.50139 3.40388 3.32572
          5.62114 3.81553 3.48493 3.45315 3.48364 3.45633 3.48294 3.463 3.48116 3.47235 3.48067 3.48493
          5.16307 3.4565 3.46747 5.84205 3.52856 6.22995 5.16862 3.48339 0.881252 1.49428 3.4707 3.57577
          5.83243 3.48049 5.14364 5.17539 5.14179 3.47273 5.13997 3.48045 5.83908 3.46994 5.13011 5.14903
          5.13339 3.46285 5.12859 3.48212 5.80694 3.46099 5.12024 5.13634 5.11794 3.45472 5.11901 3.48344
          5.80147 3.45524 5.11093 5.12457 5.10538 3.45009 5.10948 3.48381 5.795 3.45294 5.09979 5.11269
          3.45561 3.44878 5.09735 3.49067 5.77134 3.48005 5.08435 5.09783 5.11478 3.72172 4.68673 5.05052
          3.77899 5.63578 1.37931 2.02669 5.40404 5.63916 5.24087 5.64761 5.66534 5.72538 5.09214 5.72283
          3.52974 3.63649 3.49012 3.49343 5.81554 5.10391 3.45381 3.4531 3.4875 3.48761 5.807 5.11435
          3.45364 3.45434 3.48705 3.48725 5.8292 5.12371 3.45765 3.4592 3.48564 3.48604 5.81386 5.13386
          3.46523 3.46758 3.48505 3.48482 5.88532 5.14906 3.47486 3.47755 3.46693 5.19418 5.91106 3.48747
          3.47999 5.38558 0.827178 3.00786 3.54532 5.93223 5.34733 5.84697 5.15705 5.84335 5.15245 5.14859
          5.13865 5.13561 5.12678 5.12384 5.11498 5.11197 5.10158 5.09724 5.12725 5.1449 5.93434 5.16221
          5.15269 5.14381 6.08059 5.17074 5.14281 5.1498 5.15759 5.84904 5.97736 5.16563 5.13935 5.13116
          5.96294 5.13589 5.81185 5.13288 5.13676 5.14245 5.14565 5.14506 5.12751 5.12134 5.95875 5.12503
          5.8085 5.12261 5.12613 5.82555 5.95831 5.13265 5.11573 5.11196 5.95666 5.11561 5.95641 5.1133
          5.1167 5.11868 5.12162 5.12089 5.10203 5.10066 5.95426 5.1059 5.79128 5.10305 5.10683 5.10596
          5.10946 5.10881 5.93174 5.09244 5.75665 5.08999 5.09525 5.09282 5.05795 5.80459 5.69703 5.0634
          5.66661 5.066 5.11669 5.65257 5.67369 5.65788 5.78936 5.24259 5.08086 5.75634 5.78841 5.89549
          5.09783 5.07324 5.81343 5.9522 5.78645 5.95111 5.82054 5.95579 5.7986 5.95547 5.13045 5.12972
          5.8042 5.82382 5.83561 5.96078 5.81002 5.96032 5.15694 5.15734 5.81843 5.84299 5.1663 5.36909
          5.18647 6.19274 5.91269 6.18566 5.84168 6.01664 5.8115 6.21203 5.86186 5.824 5.83597 5.96153
          5.80847 5.82736 5.80275 5.82055 5.79696 5.81376 5.78233 5.80273 5.65568 5.10431 5.78254 5.71064
          5.76543 5.67592 5.79684 5.8157 5.81899 5.82215 5.95796 5.8293 5.81625 5.97039 5.97255 5.85215
          5.88014 5.83305 6.23241 5.83599 5.8193 5.96573 5.84671 5.8561 5.83843 5.84188 5.8158 5.83353
          5.81005 5.83333 5.9577 5.80557 5.80407 5.80549 5.82552 5.8273 5.82213 5.8238 5.80016 5.8029
          5.79859 5.81897 5.95371 5.8114 5.78815 5.81084 5.77875 5.79509 5.94232 5.79815 5.70686 5.84275
          5.86357 5.91172 5.92312 5.93779 5.74654 5.76039 5.9479 5.95304 5.80755 5.80851 5.94972 5.9455
          5.79457 5.79224 5.95491 5.95614 5.81733 5.81741 5.95527 5.9547 5.80159 5.80009 5.95719 5.9569
          5.95692 5.95738 5.95943 5.96209 5.83121 5.83134 5.95981 5.95913 5.81361 5.81172 5.96702 5.96382
          5.82826 5.8222 5.99623 5.98266 6.04436 5.87196 6.06726 6.09646 6.05579 5.84236 5.76444 5.687
          5.76147 5.72989
        </DataArray>
        <DataArray type="Float32" Name="velocityY" NumberOfComponents="1" format="ascii">
          0.00406902 -0.026145 -0.0521836 -0.028192 0.00103029 -0.00132243 -0.00860127 0.000665624 0.0120314 0.000340731 -0.00176143 -0.0013798
          0.000311584 0.00636902 0.000224016 -0.00147575 -0.00163705 0.000193648 0.00456026 0.000118633 -0.00229944 -0.00254599 0.00010375 0.00322732
          0.000128279 -0.00349574 -0.00404859 0.00017582 0.00422577 0.000569491 -0.00829011 -0.00852903 0.000801249 0.017416 0.00264318 0.210784
          0.0129615 0.0628509 -0.0243386 -0.000461221 -0.03066 -0.0378556 0.00195 -0.0027678 -0.0318914 0.521167 0.324542 -0.0399877
          0.116711 -0.000493777 -0.000220709 0.00541609 -0.000159264 -7.36164e-05 0.00326223 -5.60519e-05 -8.61056e-06 0.00438812 4.879e-06 2.90256e-05
          0.00632019 2.21966e-05 -0.00016887 0.0088989 -0.000446107 0.0154902 0.0244845 -0.165242 0.080381 0.0181965 0.70257 0.455849
          0.0454398 0.0164357 -0.258892 0.0213341 0.0174621 -0.256789 -0.00176922 0.0144199 0.235091 -0.0266708 0.089072 0.0139253
          0.000765211 0.00185091 0.0179656 0.00126146 -0.022704 -0.00429808 0.0148652 0.000439901 0.00813393 0.000376776 0.00724158 -2.86182e-06
          0.00683432 -5.86687e-05 -0.00161521 -0.00127451 0.00746037 0.00028313 0.00634369 0.000254053 0.005354 1.56361e-05 0.0050167 2.53635e-05
          -0.00114685 -0.00183929 0.0054256 0.000165014 0.00416089 0.000139535 0.00362506 -3.94316e-05 0.00344764 -2.35523e-05 -0.00213169 -0.00280485
          0.00357602 9.87415e-05 0.00310538 0.000105681 0.00365366 -0.000120973 0.00355799 -9.40172e-05 -0.00350449 -0.00493353 0.00454155 0.00025505
          0.00816869 0.000382594 0.0104666 -0.000456288 0.00967397 -0.000315613 -0.00906868 -0.00803764 0.0218686 0.000808728 0.00324781 0.0126599
          0.0436898 0.0664608 0.324522 -0.0728566 -0.0909899 -0.218676 -0.00345687 -0.00049822 -0.0729801 -0.00879179 -0.083284 -0.00214831
          -0.280149 -0.0192836 -0.198449 -0.335906 -0.0706392 -0.145105 -0.00218033 0.0346152 0.081727 0.137297 0.195107 -0.0831897
          -0.0111979 0.0271042 -0.00629009 0.0137634 0.00533617 0.00711592 -0.00412377 -0.00507774 -0.00310339 0.0037339 0.00315009 0.00324326
          -0.00242483 -0.00272797 -0.00206278 0.00392182 0.00413356 0.00375619 -0.00133971 -0.00158163 -0.00132843 0.00598952 0.00592207 0.00547343
          -0.00110446 -0.000956895 -0.00261086 0.007942 0.0084243 0.00741344 -0.00945572 -0.00479855 -0.0224054 -0.0286369 0.0174558 0.000203801
          -0.0860594 -0.0151094 -0.087873 -0.102705 -0.240707 0.248759 0.158516 -0.00440816 -0.0289235 -0.13175 -0.00508841 -0.0908416
          0.0327376 -0.00088747 -0.0238534 -0.0118451 0.125187 -0.464837 -0.0124787 0.0041864 -0.0112413 -0.00177183 0.277446 0.0319934
          -0.002766 0.160507 0.00430766 -0.00363506 0.00337433 -0.00163388 0.00485697 -3.95004e-05 0.00677204 6.84247e-05 0.0116641 -0.0123432
          -0.00530646 0.00281766 0.0210818 -0.0802626 -0.0194662 -0.00476264 -0.0520544 0.0239226 0.0969653 -0.707795 -0.00528032 0.0815865
          0.00691877 -0.0051391 0.0091758 -0.0115239 0.00106636 -0.00272464 0.00656339 0.00784245 0.00163709 0.000337012 0.00680288 0.00197493
          0.00185039 -0.00100402 0.00502443 0.00584447 0.00410338 -0.000393624 0.00468708 0.00220602 -0.00152117 -0.00184892 0.00285876 0.00397005
          0.00208426 -0.00205618 0.00310992 0.000541701 -0.00410995 -0.00306878 0.00201507 0.00333979 0.00187331 -0.00458825 0.00557293 -0.00137281
          -0.0172452 -0.00655353 0.0088597 0.00723206 0.012336 -0.0362827 0.0474885 -0.00782186 0.0797379 0.0693164 -0.335674 -0.0521567
          -0.166206 0.0139384 0.0385469 -0.535732 -0.124719 -0.0197251 0.147726 0.0320522 -0.0554629 0.0541588 -0.0127671 0.00358069
          0.038387 0.0874428 0.00609653 0.00892739 0.000207014 0.00332297 -0.00828619 -0.00604266 0.00338028 0.00340373 0.00329707 0.00208151
          -0.00298887 -0.00249064 0.00487244 0.00436161 0.00373413 0.00390217 -0.00120638 -0.000788519 0.00700674 0.00651755 0.0056444 0.00587435
          0.000230573 0.000365668 0.0102547 0.00865811 -0.0681158 0.00815019 -0.000653026 -0.00215853 -0.0136225 0.084847 0.117397 0.00376065
          0.0201154 -0.00846839 0.0262011 0.253292 0.0165639 -0.121584 -0.0962783 0.0710168 0.0195297 0.0163529 -0.00180452 -6.36397e-05
          0.00110082 0.000952595 -0.000148714 -0.000601114 -0.00198517 -0.00250259 -0.00557119 -0.00782344 -0.0315157 0.0255519 -0.0619152 0.026427
          0.000812476 0.00709118 0.0709066 -0.0297181 0.0432728 0.0113556 0.0110673 -0.00421632 -0.000179624 -0.0109941 0.00246596 0.00548186
          0.00411095 0.00761907 0.00540271 0.00720894 0.00620899 0.00256591 0.00243908 0.000766713 0.00100194 0.00335083 0.0039864 0.00582574
          0.0038247 0.00525201 0.00447062 0.00242035 0.00359736 0.000666694 -0.000847865 0.00192422 0.0020639 0.00370687 0.00181694 0.0033401
          0.00242222 -0.000378402 8.10386e-05 -0.00106464 -0.00477286 0.00521725 0.00048038 0.00341389 0.00168555 0.00414174 0.0024169 -0.00311837
          -0.00206813 -0.00316387 0.000903256 0.0125874 0.0208873 0.0206523 0.0159129 -0.0146865 -0.0443477 -0.00376912 -0.000368033 0.0481007
          0.045983 -0.0414956 0.100581 0.0217586 -0.0617432 -0.025506 -0.0445108 -0.15891 -0.0235367 0.0248874 -0.0133342 0.00512073
          0.0301125 0.0434704 -0.000170627 -0.000320445 0.00338715 0.000386051 0.00144735 0.00119293 0.000882236 0.00119355 0.00144192 0.00027931
          0.00225675 0.00199669 0.00382833 0.00432737 0.0043354 0.00457317 -0.00141847 -0.00506584 0.00512674 -0.000486941 0.0303758 0.00190975
          -0.0274971 -0.00336222 0.0570598 -0.00407667 0.00544436 0.00821904 0.0721955 -0.00219785 -0.0117298 0.0063098 0.00275395 0.00454798
          0.00465518 0.00280738 0.00252435 0.00106747 0.00156839 -0.000790536 0.00718043 -0.00247475 -0.041505 -0.106632 -0.0110201 -0.0522785
          0.0117098 0.0496131 0.000921911 -0.000314727 0.000595646 0.00154514 0.00363402 0.00309081 0.0058577 0.00257535 0.000256083 0.0273364
          -0.0104 0.0354753 -0.00014513 -0.0737886 0.0059933 0.0037343 -0.000708568 -0.00478965 0.00331665 0.00183847 0.00502459 0.0031189
          0.00505906 0.00403043 0.00317871 0.00273761 0.00300109 0.00355049 0.00290895 0.00334111 0.00194372 0.00244717 0.000999748 0.00179066
          0.00151878 0.000990091 0.000707826 -0.00139563 0.00409736 -0.000759521 0.00524995 -0.00583701 -0.00017997 -0.00643972 0.0397807 -0.0130043
          -0.0203576 -0.00133381 0.0076261 -0.00367295 -0.0221126 -0.0304655 0.000468238 0.000263097 -0.00154305 -0.00233029 -0.000748357 0.00221192
          0.00109469 0.00256627 0.000840801 0.00157202 0.000578117 0.000136541 0.000804097 0.00081057 0.00133013 0.00171308 0.0027011 0.0023089
          0.00262385 0.00314966 0.00438849 0.00409509 0.00397739 0.00321908 0.00426583 0.00427718 0.00489404 0.00462991 0.00254184 0.00449785
          0.00502694 0.00501424 -0.00894555 0.0010244 0.00885586 -0.0345551 -0.0280374 -0.0696894 0.0402509 0.0684907 -0.0300377 -0.0442906
          0.0358828 0.0228889
        </DataArray>
        <DataArray type="Float32" Name="bedSurface" NumberOfComponents="1" format="ascii">
          -9.98093 -9.98034 -9.9803 -9.98035 -9.98406 -9.98344 -9.98375 -9.98469 -9.98438 -9.98656 -9.98563 -9.98625
          -9.98719 -9.98687 -9.98906 -9.98812 -9.98875 -9.98969 -9.98938 -9.99156 -9.99063 -9.99125 -9.99219 -9.99187
          -9.99406 -9.99312 -9.99375 -9.99469 -9.99438 -9.99656 -9.99563 -9.99625 -9.99719 -9.99687 -9.99907 -9.99982
          -9.9975 -9.99964 -9.99657 -9.99719 -9.99813 -9.99876 -9.99966 -9.99907 -9.9997 -9.99986 -9.99983 -9.99935
          -9.99928 -9.99656 -9.99469 -9.995 -9.99406 -9.99219 -9.9925 -9.99156 -9.98969 -9.99 -9.98906 -9.98719
          -9.9875 -9.98656 -9.98469 -9.985 -9.98406 -9.98312 -9.98187 -9.98074 -9.98018 -9.98035 -9.98014 -9.98017
          -9.9803 -9.98036 -9.98018 -9.98089 -9.98375 -9.98061 -9.98219 -9.98156 -9.98124 -9.98036 -9.98093 -9.98312
          -9.98344 -9.98219 -9.98375 -9.98281 -9.98313 -9.98438 -9.98406 -9.98531 -9.98531 -9.98594 -9.98625 -9.98594
          -9.98625 -9.98531 -9.98563 -9.98687 -9.98656 -9.98781 -9.98781 -9.98844 -9.98875 -9.98844 -9.98875 -9.98781
          -9.98812 -9.98938 -9.98906 -9.99031 -9.99031 -9.99094 -9.99125 -9.99094 -9.99125 -9.99031 -9.99063 -9.99187
          -9.99156 -9.99281 -9.99281 -9.99344 -9.99375 -9.99344 -9.99375 -9.99281 -9.99312 -9.99438 -9.99406 -9.99531
          -9.99531 -9.99594 -9.99625 -9.99594 -9.99625 -9.99531 -9.99563 -9.99688 -9.99656 -9.99781 -9.99844 -9.99687
          -9.99813 -9.99982 -9.99926 -9.99982 -9.99907 -9.99982 -9.99964 -9.99782 -9.99914 -9.9975 -9.99782 -9.99844
          -9.99939 -9.99814 -9.9988 -9.99983 -9.99964 -9.99965 -9.99965 -9.99876 -9.99907 -9.99965 -9.99879 -9.99845
          -9.99594 -9.99813 -9.995 -9.99594 -9.995 -9.99562 -9.99375 -9.99438 -9.9925 -9.99344 -9.9925 -9.99312
          -9.99125 -9.99187 -9.99 -9.99094 -9.99 -9.99063 -9.98875 -9.98938 -9.9875 -9.98844 -9.9875 -9.98812
          -9.98625 -9.98687 -9.985 -9.98594 -9.985 -9.98563 -9.98375 -9.98438 -9.98313 -9.98281 -9.9825 -9.9825
          -9.98121 -9.98156 -9.98156 -9.98065 -9.98124 -9.98018 -9.98074 -9.98093 -9.9809 -9.98086 -9.98036 -9.98018
          -9.98219 -9.98281 -9.98187 -9.9825 -9.98086 -9.98017 -9.99625 -9.9975 -9.99688 -9.99751 -9.99939 -9.99969
          -9.99929 -9.99847 -9.99438 -9.99344 -9.99187 -9.99094 -9.98938 -9.98844 -9.98687 -9.98594 -9.98438 -9.98344
          -9.98375 -9.9825 -9.98281 -9.98072 -9.98152 -9.98071 -9.98251 -9.98343 -9.98065 -9.98014 -9.98187 -9.9812
          -9.98374 -9.98406 -9.98469 -9.98313 -9.98656 -9.985 -9.98563 -9.98563 -9.985 -9.98656 -9.98719 -9.98563
          -9.98875 -9.9875 -9.98812 -9.98812 -9.98875 -9.98906 -9.98969 -9.98812 -9.99156 -9.99 -9.99063 -9.99063
          -9.99125 -9.99156 -9.99219 -9.99063 -9.99406 -9.9925 -9.99312 -9.99312 -9.99375 -9.99406 -9.99469 -9.99312
          -9.99657 -9.995 -9.99562 -9.99562 -9.99625 -9.9972 -9.99718 -9.99562 -9.99844 -9.99914 -9.99926 -9.99782
          -9.99848 -9.99911 -9.99935 -9.99986 -9.99928 -9.99911 -9.9987 -9.99857 -9.99806 -9.99748 -9.99594 -9.9983
          -9.99718 -9.99781 -9.99469 -9.99531 -9.99281 -9.99438 -9.99531 -9.99469 -9.99219 -9.99281 -9.98906 -9.99187
          -9.99281 -9.99219 -9.98969 -9.99031 -9.98781 -9.98938 -9.99031 -9.98969 -9.98719 -9.98781 -9.98625 -9.98687
          -9.98781 -9.98719 -9.98469 -9.98531 -9.98224 -9.98438 -9.98531 -9.98469 -9.98218 -9.98156 -9.98143 -9.98187
          -9.98219 -9.9813 -9.98034 -9.98061 -9.98153 -9.98143 -9.98093 -9.98072 -9.98343 -9.98309 -9.98469 -9.98531
          -9.98719 -9.98781 -9.98969 -9.99031 -9.99219 -9.99281 -9.99469 -9.99531 -9.9822 -9.9828 -9.98173 -9.98311
          -9.985 -9.985 -9.98185 -9.98282 -9.9825 -9.98406 -9.98374 -9.98375 -9.98354 -9.98344 -9.9875 -9.9875
          -9.98542 -9.98594 -9.98687 -9.98656 -9.98625 -9.98687 -9.98625 -9.98594 -9.99 -9.99 -9.98792 -9.98844
          -9.98844 -9.98906 -9.98875 -9.98875 -9.98833 -9.98844 -9.9925 -9.9925 -9.99042 -9.99094 -9.99083 -9.99156
          -9.99125 -9.99187 -9.99125 -9.99094 -9.995 -9.995 -9.99292 -9.99344 -9.99469 -9.99406 -9.99375 -9.99438
          -9.99375 -9.99344 -9.99604 -9.99594 -9.99687 -9.99656 -9.99625 -9.99626 -9.99751 -9.995 -9.99861 -9.9978
          -9.99827 -9.9972 -9.99808 -9.99877 -9.99828 -9.99877 -9.99787 -9.99871 -9.99689 -9.99718 -9.99626 -9.9971
          -9.99687 -9.99748 -9.99344 -9.99396 -9.99531 -9.99417 -9.99094 -9.99146 -9.99281 -9.99167 -9.98938 -9.98906
          -9.99031 -9.98938 -9.98594 -9.98646 -9.98781 -9.98667 -9.98438 -9.98406 -9.98531 -9.98438 -9.98191 -9.9813
          -9.98191 -9.98124 -9.98173 -9.98123 -9.98341 -9.98268 -9.98194 -9.98139 -9.98313 -9.98438 -9.98563 -9.98604
          -9.98812 -9.98812 -9.99063 -9.99063 -9.99312 -9.99312 -9.99562 -9.99531 -9.99858 -9.9981 -9.99659 -9.99753
          -9.99656 -9.99804 -9.99344 -9.9925 -9.99125 -9.99 -9.98854 -9.9875 -9.98563 -9.98417 -9.98396 -9.98277
          -9.98282 -9.98248 -9.98171 -9.98195 -9.985 -9.98479 -9.98406 -9.98344 -9.98531 -9.98469 -9.98594 -9.98625
          -9.9875 -9.98656 -9.98896 -9.98969 -9.99 -9.98938 -9.98906 -9.98844 -9.99031 -9.98969 -9.99219 -9.99094
          -9.9925 -9.99156 -9.99333 -9.99375 -9.995 -9.99406 -9.99594 -9.99594 -9.99542 -9.99562 -9.99775 -9.99768
          -9.99733 -9.99669 -9.99646 -9.99583 -9.99724 -9.99691 -9.99479 -9.99354 -9.99469 -9.99438 -9.99458 -9.99521
          -9.99406 -9.99438 -9.99229 -9.99104 -9.99219 -9.99187 -9.99208 -9.99271 -9.99156 -9.99187 -9.98958 -9.99021
          -9.98979 -9.98917 -9.98729 -9.98583 -9.98719 -9.98687 -9.98708 -9.98771 -9.98656 -9.98719 -9.98458 -9.98521
          -9.98406 -9.98469 -9.9829 -9.98331 -9.98233 -9.98252 -9.98218 -9.98185 -9.98215 -9.98221 -9.99816 -9.9978
          -9.99783 -9.99815
        </DataArray>
        <DataArray type="Float32" Name="freeSurface" NumberOfComponents="1" format="ascii">
          -0.237468 -0.354291 -0.273456 -0.115407 -0.158913 -0.155343 -0.156162 -0.157593 -0.158843 -0.155744 -0.155707 -0.155799
          -0.155322 -0.155882 -0.154681 -0.156152 -0.15626 -0.15466 -0.155011 -0.155048 -0.156513 -0.156573 -0.155284 -0.155491
          -0.156012 -0.15666 -0.156628 -0.156139 -0.156381 -0.155255 -0.155886 -0.155785 -0.154943 -0.154826 -0.147217 -0.0365091
          -0.153792 -0.0244624 -0.150693 -0.155529 -0.14755 -0.146122 -0.149823 -0.150097 -0.0488234 -0.0474867 -0.0131145 -0.152277
          -0.0537106 -0.155543 -0.156155 -0.155661 -0.15631 -0.156354 -0.155027 -0.156315 -0.156125 -0.154307 -0.156035 -0.155699
          -0.154679 -0.155569 -0.155295 -0.156772 -0.155304 -0.163326 -0.167722 -0.181664 0.097891 -0.113239 -0.361776 -0.192536
          -0.271957 0.0273388 -0.00769457 -0.0945852 -0.160087 -0.288267 -0.168682 -0.155904 -0.194902 0.0256635 -0.15649 -0.163511
          -0.162101 -0.164856 -0.160796 -0.16171 -0.156719 -0.155758 -0.161197 -0.156916 -0.156199 -0.156276 -0.155456 -0.155445
          -0.156365 -0.155343 -0.154884 -0.155915 -0.156066 -0.155007 -0.154295 -0.154795 -0.154314 -0.155933 -0.15508 -0.155823
          -0.15529 -0.156357 -0.15509 -0.154722 -0.154158 -0.154855 -0.154583 -0.156264 -0.155281 -0.156201 -0.155682 -0.15662
          -0.155418 -0.15554 -0.154746 -0.155793 -0.15547 -0.156367 -0.156213 -0.156375 -0.155812 -0.156519 -0.156147 -0.156109
          -0.153687 -0.155818 -0.155253 -0.155378 -0.155827 -0.155848 -0.154582 -0.155916 -0.155137 -0.15148 -0.138609 -0.155376
          -0.144615 -0.028393 -0.0748243 -0.0286923 -0.0545942 -0.0368 -0.0181963 -0.152683 -0.125003 -0.154564 -0.157789 -0.14287
          -0.0987394 -0.158097 -0.131002 -0.0133406 -0.0246729 -0.0227064 -0.146613 -0.14327 -0.0529788 -0.0228041 -0.12726 -0.107742
          -0.15483 -0.15322 -0.156284 -0.15574 -0.156425 -0.156259 -0.155739 -0.155556 -0.156653 -0.156011 -0.155732 -0.155982
          -0.155749 -0.155799 -0.156441 -0.155248 -0.155028 -0.155122 -0.155404 -0.155509 -0.156037 -0.155187 -0.155511 -0.155245
          -0.154974 -0.15508 -0.155669 -0.156608 -0.157728 -0.156969 -0.155323 -0.154929 -0.157509 -0.155625 -0.163284 -0.164277
          -0.184873 -0.151433 -0.183692 -0.260579 -0.191117 -0.00612225 -0.178408 -0.234509 -0.0933089 -0.216887 0.0780051 0.0971648
          -0.159988 -0.166027 -0.171461 -0.167159 -0.220144 -0.193823 -0.154415 -0.159793 -0.156241 -0.160854 -0.095372 -0.0462772
          -0.035022 -0.135251 -0.155615 -0.156383 -0.154794 -0.156314 -0.15427 -0.155935 -0.155012 -0.155641 -0.157865 -0.15926
          -0.15956 -0.159798 -0.162033 -0.0844105 -0.197412 -0.0551847 -0.161598 -0.16308 -0.262804 -0.362534 -0.166373 -0.188722
          -0.164723 -0.156588 -0.157567 -0.166435 -0.154896 -0.154839 -0.156529 -0.156024 -0.156355 -0.155683 -0.154543 -0.155783
          -0.155594 -0.155185 -0.154934 -0.154448 -0.15471 -0.156042 -0.154087 -0.155559 -0.155324 -0.155602 -0.154912 -0.154415
          -0.154908 -0.156381 -0.154607 -0.155737 -0.154831 -0.155825 -0.15534 -0.155259 -0.154878 -0.156234 -0.154415 -0.155684
          -0.155067 -0.155203 -0.152975 -0.15556 -0.146765 -0.157111 -0.144999 -0.152785 -0.10598 -0.121694 -0.076006 -0.13533
          -0.139138 -0.0344024 -0.15517 -0.0493835 -0.0552972 -0.0351552 -0.0797999 -0.0514258 -0.0917204 -0.124476 -0.152247 -0.0786915
          -0.15581 -0.154982 -0.156185 -0.156067 -0.155549 -0.154988 -0.155387 -0.155931 -0.155617 -0.155822 -0.155065 -0.155176
          -0.156433 -0.156425 -0.155073 -0.155129 -0.155435 -0.154806 -0.156234 -0.156143 -0.155665 -0.155376 -0.155633 -0.155421
          -0.155842 -0.155758 -0.158671 -0.157376 -0.187891 -0.159828 -0.155669 -0.155876 -0.165157 -0.186149 -0.203482 -0.162874
          -0.162246 -0.205066 -0.35359 -0.286127 -0.194234 -0.201866 -0.153707 -0.0820654 -0.161461 -0.16692 -0.155434 -0.155077
          -0.154937 -0.155002 -0.155194 -0.155245 -0.155332 -0.155283 -0.154284 -0.153381 -0.157432 -0.161566 -0.214051 -0.167372
          -0.15625 -0.157678 -0.224823 -0.154105 -0.166351 -0.160016 -0.164677 -0.160309 -0.166135 -0.159637 -0.155528 -0.155124
          -0.15675 -0.155431 -0.155211 -0.15491 -0.155868 -0.155518 -0.155565 -0.154921 -0.155694 -0.154834 -0.155438 -0.154147
          -0.155119 -0.154081 -0.154842 -0.155278 -0.155343 -0.155071 -0.155787 -0.155285 -0.155515 -0.154284 -0.155451 -0.154444
          -0.155039 -0.155803 -0.155777 -0.155289 -0.154104 -0.154277 -0.155488 -0.15482 -0.153867 -0.154746 -0.155283 -0.154939
          -0.15543 -0.155137 -0.146416 -0.152422 -0.139501 -0.150394 -0.150792 -0.150615 -0.13629 -0.153223 -0.0528371 -0.131886
          -0.07192 -0.145411 -0.113677 -0.0512146 -0.0711389 -0.0537827 -0.099052 -0.0800853 -0.146888 -0.128513 -0.147328 -0.123133
          -0.146392 -0.136799 -0.155302 -0.154704 -0.151947 -0.15453 -0.155585 -0.155528 -0.155311 -0.155419 -0.155646 -0.155135
          -0.155099 -0.155335 -0.155871 -0.155754 -0.155165 -0.155711 -0.157194 -0.156414 -0.157015 -0.15759 -0.181353 -0.207066
          -0.180367 -0.170497 -0.214988 -0.171631 -0.171106 -0.176354 -0.187536 -0.187569 -0.167109 -0.159694 -0.155686 -0.156185
          -0.154786 -0.155244 -0.154788 -0.155448 -0.155046 -0.155334 -0.151086 -0.152184 -0.0509264 -0.115655 -0.141756 -0.12426
          -0.141739 -0.0897213 -0.155187 -0.155483 -0.155501 -0.15539 -0.155242 -0.155241 -0.156292 -0.161606 -0.161443 -0.178872
          -0.179112 -0.168133 -0.208457 -0.189114 -0.157453 -0.158489 -0.160009 -0.165566 -0.156589 -0.157756 -0.156206 -0.155384
          -0.154934 -0.155627 -0.155333 -0.155074 -0.15471 -0.154686 -0.155447 -0.155411 -0.155531 -0.155492 -0.15535 -0.155197
          -0.155062 -0.155626 -0.155235 -0.154984 -0.153172 -0.154754 -0.148836 -0.14856 -0.150999 -0.151021 -0.113074 -0.102583
          -0.122218 -0.137329 -0.139582 -0.147508 -0.130063 -0.139229 -0.15328 -0.155181 -0.153842 -0.154347 -0.153631 -0.151533
          -0.154819 -0.154347 -0.155431 -0.155552 -0.155628 -0.155522 -0.155545 -0.155458 -0.15531 -0.155011 -0.155372 -0.155391