<?xml version="1.0"?>
<VTKFile type="UnstructuredGrid" version="0.1" byte_order="LittleEndian">
  <UnstructuredGrid>
    <Piece NumberOfCells="324" NumberOfPoints="1296">
      <PointData Scalars="S_aq">
        <DataArray type="Float32" Name="S_aq" NumberOfComponents="1" format="ascii">
          0.926553 0.5 0.926558 0.5 0.999898 0.926553 0.999898 0.926558 0.926535 0.5 0.926553 0.5
          0.999898 0.926535 0.999898 0.926553 1 0.999898 1 0.999898 1 1 1 1
          1 1 1 1 1 0.999898 1 0.999898 1 1 1 1
          1 1 1 1 0.926499 0.5 0.926535 0.5 0.999897 0.926499 0.999898 0.926535
          0.926431 0.5 0.926499 0.5 0.9263 0.5 0.926431 0.5 0.999897 0.926431 0.999897 0.926499
          0.999896 0.9263 0.999897 0.926431 1 0.999897 1 0.999898 1 1 1 1
          1 1 1 1 1 0.999897 1 0.999897 1 0.999896 1 0.999897
          1 1 1 1 1 1 1 1 1 1 1 1
          1 1 1 1 1 1 1 1 1 1 1 1
          1 1 1 1 1 1 1 1 1 1 1 1
          1 1 1 1 1 1 1 1 1 1 1 1
          1 1 1 1 1 1 1 1 1 1 1 1
          1 1 1 1 1 1 1 1 1 1 1 1
          1 1 1 1 1 1 1 1 1 1 1 1
          1 1 1 1 1 1 1 1 1 1 1 1
          0.926015 0.5 0.9263 0.5 0.999895 0.926015 0.999896 0.9263 0.925175 0.5 0.926015 0.5
          0.999892 0.925175 0.999895 0.926015 1 0.999895 1 0.999896 1 1 1 1
          1 1 1 1 1 0.999892 1 0.999895 1 1 1 1
          1 1 1 1 0.927787 0.5 0.925175 0.5 0.99991 0.927787 0.999892 0.925175
          1 1 0.927787 0.5 1 1 0.99991 0.927787 1 0.99991 1 0.999892
          1 1 1 1 1 1 1 1 1 1 1 0.99991
          1 1 1 1 1 1 1 1 1 1 1 1
          1 1 1 1 1 1 1 1 1 1 1 1
          1 1 1 1 1 1 1 1 1 1 1 1
          1 1 1 1 1 1 1 1 1 1 1 1
          1 1 1 1 1 1 1 1 1 1 1 1
          1 1 1 1 1 1 1 1 1 1 1 1
          1 1 1 1 1 1 1 1 1 1 1 1
          1 1 1 1 1 1 1 1 1 1 1 1
          1 1 1 1 1 1 1 1 1 1 1 1
          1 1 1 1 1 1 1 1 1 1 1 1
          1 1 1 1 1 1 1 1 1 1 1 1
          1 1 1 1 1 1 1 1 1 1 1 1
          1 1 1 1 1 1 1 1 1 1 1 1
          1 1 1 1 1 1 1 1 1 1 1 1
          1 1 1 1 1 1 1 1 1 1 1 1
          1 1 1 1 1 1 1 1 1 1 1 1
          1 1 1 1 1 1 1 1 1 1 1 1
          1 1 1 1 1 1 1 1 1 1 1 1
          1 1 1 1 1 1 1 1 1 1 1 1
          1 1 1 1 1 1 1 1 1 1 1 1
          1 1 1 1 1 1 1 1 1 1 1 1
          1 1 1 1 1 1 1 1 1 1 1 1
          1 1 1 1 1 1 1 1 1 1 1 1
          1 1 1 1 1 1 1 1 1 1 1 1
          1 1 1 1 1 1 1 1 1 1 1 1
          1 1 1 1 1 1 1 1 1 1 1 1
          1 1 1 1 1 1 1 1 1 1 1 1
          1 1 1 1 1 1 1 1 1 1 1 1
          1 1 1 1 1 1 1 1 1 1 1 1
          1 1 1 1 1 1 1 1 1 1 1 1
          1 1 1 1 1 1 1 1 1 1 1 1
          1 1 1 1 1 1 1 1 1 1 1 1
          1 1 1 1 1 1 1 1 1 1 1 1
          0.5 1 0.927787 1 0.927787 1 0.99991 1 0.5 0.5 0.925175 0.927787
          0.925175 0.927787 0.999892 0.99991 0.99991 1 1 1 1 1 1 1
          1 1 1 1 0.999892 0.99991 1 1 1 1 1 1
          1 1 1 1 0.5 0.5 0.926015 0.925175 0.926015 0.925175 0.999895 0.999892
          0.5 0.5 0.9263 0.926015 0.9263 0.926015 0.999896 0.999895 0.999895 0.999892 1 1
          1 1 1 1 1 1 1 1 0.999896 0.999895 1 1
          1 1 1 1 1 1 1 1 1 1 1 1
          1 1 1 1 1 1 1 1 1 1 1 1
          1 1 1 1 1 1 1 1 1 1 1 1
          1 1 1 1 1 1 1 1 1 1 1 1
          1 1 1 1 1 1 1 1 1 1 1 1
          1 1 1 1 1 1 1 1 1 1 1 1
          0.5 0.5 0.926431 0.9263 0.5 0.5 0.926499 0.926431 0.926431 0.9263 0.999897 0.999896
          0.926499 0.926431 0.999897 0.999897 0.5 0.5 0.926535 0.926499 0.926535 0.926499 0.999898 0.999897
          0.999897 0.999896 1 1 0.999897 0.999897 1 1 1 1 1 1
          1 1 1 1 1 1 1 1 1 1 1 1
          0.999898 0.999897 1 1 1 1 1 1 1 1 1 1
          0.5 0.5 0.926553 0.926535 0.926553 0.926535 0.999898 0.999898 0.5 0.5 0.926558 0.926553
          0.926558 0.926553 0.999898 0.999898 0.999898 0.999898 1 1 1 1 1 1
          1 1 1 1 0.999898 0.999898 1 1 1 1 1 1
          1 1 1 1 1 1 1 1 1 1 1 1
          1 1 1 1 1 1 1 1 1 1 1 1
          1 1 1 1 1 1 1 1 1 1 1 1
          1 1 1 1 1 1 1 1 1 1 1 1
          1 1 1 1 1 1 1 1 1 1 1 1
          1 1 1 1 1 1 1 1 1 1 1 1
          1 1 1 1 1 1 1 1 1 1 1 1
          1 1 1 1 1 1 1 1 1 1 1 1
          1 1 1 1 1 1 1 1 1 1 1 1
          1 1 1 1 1 1 1 1 1 1 1 1
          1 1 1 1 1 1 1 1 1 1 1 1
          1 1 1 1 1 1 1 1 1 1 1 1
          1 1 1 1 1 1 1 1 1 1 1 1
          1 1 1 1 1 1 1 1 1 1 1 1
          1 1 1 1 1 1 1 1 1 1 1 1
          1 1 1 1 1 1 1 1 1 1 1 1
          1 1 1 1 1 1 1 1 1 1 1 1
          1 1 1 1 1 1 1 1 1 1 1 1
          1 1 1 1 1 1 1 1 1 1 1 1
          1 1 1 1 1 1 1 1 1 1 1 1
          1 1 1 1 1 1 1 1 1 1 1 1
          1 1 1 1 1 1 1 1 1 1 1 1
          1 1 1 1 1 1 1 1 1 1 1 1
          1 1 1 1 1 1 1 1 1 1 1 1
          1 1 1 1 1 1 1 1 1 1 1 1
          1 1 1 1 1 1 1 1 1 1 1 1
          1 1 1 1 1 1 1 1 1 1 1 1
          1 1 1 1 1 1 1 1 1 1 1 1
          1 1 1 1 1 1 1 1 1 1 1 1
          1 1 1 1 1 1 1 1 1 1 1 1
          1 1 1 1 1 1 1 1 1 1 1 1
          1 1 1 1 1 1 1 1 1 1 1 1
          1 1 1 1 1 1 1 1 1 1 1 1
          1 1 1 1 1 1 1 1 1 1 1 1
        </DataArray>
        <DataArray type="Float32" Name="p_aq" NumberOfComponents="1" format="ascii">
          195819 200000 195819 200000 187893 195819 187893 195819 195820 200000 195819 200000
          187895 195820 187893 195819 182424 187893 182423 187893 176956 182424 176954 182423
          171485 176956 171483 176954 182427 187895 182424 187893 176960 182427 176956 182424
          171490 176960 171485 176956 195822 200000 195820 200000 187897 195822 187895 195820
          195823 200000 195822 200000 195821 200000 195823 200000 187898 195823 187897 195822
          187897 195821 187898 195823 182431 187897 182427 187895 176966 182431 176960 182427
          171499 176966 171490 176960 182436 187898 182431 187897 182442 187897 182436 187898
          176976 182436 176966 182431 171513 176976 171499 176966 176990 182442 176976 182436
          171531 176990 171513 176976 166010 171485 166008 171483 160531 166010 160529 166008
          166016 171490 166010 171485 160538 166016 160531 166010 155047 160531 155045 160529
          149559 155047 149556 155045 155055 160538 155047 160531 149566 155055 149559 155047
          166027 171499 166016 171490 160551 166027 160538 166016 166044 171513 166027 171499
          166066 171531 166044 171513 160569 166044 160551 166027 160594 166066 160569 166044
          155068 160551 155055 160538 149579 155068 149566 155055 155088 160569 155068 160551
          155114 160594 155088 160569 149599 155088 149579 155068 149625 155114 149599 155088
          195810 200000 195821 200000 187887 195810 187897 195821 195750 200000 195810 200000
          187861 195750 187887 195810 182451 187887 182442 187897 177010 182451 176990 182442
          171557 177010 171531 176990 182475 187861 182451 187887 177044 182475 177010 182451
          171591 177044 171557 177010 195382 200000 195750 200000 187898 195382 187861 195750
          194375 200000 195382 200000 188460 194375 187898 195382 182555 187898 182475 187861
          177090 182555 177044 182475 171630 177090 171591 177044 182628 188460 182555 187898
          177127 182628 177090 182555 171672 177127 171630 177090 166095 171557 166066 171531
          160627 166095 160594 166066 166130 171591 166095 171557 160667 166130 160627 166095
          155151 160627 155114 160594 149663 155151 149625 155114 155199 160667 155151 160627
          149716 155199 149663 155151 166169 171630 166130 171591 160706 166169 160667 166130
          166217 171672 166169 171630 160736 166217 160706 166169 155262 160706 155199 160667
          149805 155262 149716 155199 155253 160736 155262 160706 150094 155253 149805 155262
          149559 149556 144065 144063 144065 144063 138567 138565 149566 149559 144072 144065
          144072 144065 138573 138567 138567 138565 133065 133063 133065 133063 127559 127557
          138573 138567 133070 133065 133070 133065 127563 127559 149579 149566 144084 144072
          144084 144072 138584 138573 149599 149579 144102 144084 149625 149599 144127 144102
          144102 144084 138599 138584 144127 144102 138620 138599 138584 138573 133079 133070
          133079 133070 127570 127563 138599 138584 133091 133079 138620 138599 133107 133091
          133091 133079 127579 127570 133107 133091 127591 127579 127559 127557 122050 122049
          122050 122049 116539 116538 116539 116538 111027 111026 127563 127559 122053 122050
          122053 122050 116541 116539 116541 116539 111028 111027 111027 111026 105514 105513
          105514 105513 100000 100000 111028 111027 105514 105514 105514 105514 100000 100000
          127570 127563 122058 122053 122058 122053 116545 116541 116545 116541 111031 111028
          127579 127570 122065 122058 122065 122058 116550 116545 127591 127579 122073 122065
          122073 122065 116555 116550 116550 116545 111033 111031 116555 116550 111037 111033
          111031 111028 105515 105514 105515 105514 100000 100000 111033 111031 105517 105515
          111037 111033 105518 105517 105517 105515 100000 100000 105518 105517 100000 100000
          149663 149625 144160 144127 144160 144127 138646 138620 149716 149663 144206 144160
          144206 144160 138678 138646 138646 138620 133126 133107 133126 133107 127604 127591
          138678 138646 133145 133126 133145 133126 127616 127604 149805 149716 144273 144206
          144273 144206 138708 138678 150094 149805 144312 144273 144312 144273 138722 138708
          138708 138678 133161 133145 133161 133145 127625 127616 138722 138708 133168 133161
          133168 133161 127629 127625 127604 127591 122082 122073 122082 122073 116561 116555
          116561 116555 111040 111037 127616 127604 122090 122082 122090 122082 116565 116561
          116565 116561 111043 111040 111040 111037 105520 105518 105520 105518 100000 100000
          111043 111040 105521 105520 105521 105520 100000 100000 127625 127616 122095 122090
          122095 122090 116569 116565 116569 116565 111045 111043 127629 127625 122097 122095
          122097 122095 116570 116569 116570 116569 111045 111045 111045 111043 105522 105521
          105522 105521 100000 100000 111045 111045 105522 105522 105522 105522 100000 100000
          200000 200000 195382 194375 195382 194375 187898 188460 200000 200000 195750 195382
          195750 195382 187861 187898 187898 188460 182555 182628 182555 182628 177090 177127
          177090 177127 171630 171672 187861 187898 182475 182555 182475 182555 177044 177090
          177044 177090 171591 171630 200000 200000 195810 195750 195810 195750 187887 187861
          200000 200000 195821 195810 195821 195810 187897 187887 187887 187861 182451 182475
          182451 182475 177010 177044 177010 177044 171557 171591 187897 187887 182442 182451
          182442 182451 176990 177010 176990 177010 171531 171557 171630 171672 166169 166217
          166169 166217 160706 160736 171591 171630 166130 166169 166130 166169 160667 160706
          160706 160736 155262 155253 155262 155253 149805 150094 160667 160706 155199 155262
          155199 155262 149716 149805 171557 171591 166095 166130 166095 166130 160627 160667
          171531 171557 166066 166095 166066 166095 160594 160627 160627 160667 155151 155199
          155151 155199 149663 149716 160594 160627 155114 155151 155114 155151 149625 149663
          200000 200000 195823 195821 200000 200000 195822 195823 195823 195821 187898 187897
          195822 195823 187897 187898 200000 200000 195820 195822 195820 195822 187895 187897
          187898 187897 182436 182442 187897 187898 182431 182436 182436 182442 176976 176990
          176976 176990 171513 171531 182431 182436 176966 176976 176966 176976 171499 171513
          187895 187897 182427 182431 182427 182431 176960 176966 176960 176966 171490 171499
          200000 200000 195819 195820 195819 195820 187893 187895 200000 200000 195819 195819
          195819 195819 187893 187893 187893 187895 182424 182427 182424 182427 176956 176960
          176956 176960 171485 171490 187893 187893 182423 182424 182423 182424 176954 176956
          176954 176956 171483 171485 171513 171531 166044 166066 171499 171513 166027 166044
          166044 166066 160569 160594 166027 166044 160551 160569 171490 171499 166016 166027
          166016 166027 160538 160551 160569 160594 155088 155114 160551 160569 155068 155088
          155088 155114 149599 149625 155068 155088 149579 149599 160538 160551 155055 155068
          155055 155068 149566 149579 171485 171490 166010 166016 166010 166016 160531 160538
          171483 171485 166008 166010 166008 166010 160529 160531 160531 160538 155047 155055
          155047 155055 149559 149566 160529 160531 155045 155047 155045 155047 149556 149559
          149805 150094 144273 144312 144273 144312 138708 138722 149716 149805 144206 144273
          144206 144273 138678 138708 138708 138722 133161 133168 133161 133168 127625 127629
          138678 138708 133145 133161 133145 133161 127616 127625 149663 149716 144160 144206
          144160 144206 138646 138678 149625 149663 144127 144160 144127 144160 138620 138646
          138646 138678 133126 133145 133126 133145 127604 127616 138620 138646 133107 133126
          133107 133126 127591 127604 127625 127629 122095 122097 122095 122097 116569 116570
          116569 116570 111045 111045 127616 127625 122090 122095 122090 122095 116565 116569
          116565 116569 111043 111045 111045 111045 105522 105522 105522 105522 100000 100000
          111043 111045 105521 105522 105521 105522 100000 100000 127604 127616 122082 122090
          122082 122090 116561 116565 116561 116565 111040 111043 127591 127604 122073 122082
          122073 122082 116555 116561 116555 116561 111037 111040 111040 111043 105520 105521
          105520 105521 100000 100000 111037 111040 105518 105520 105518 105520 100000 100000
          149599 149625 144102 144127 149579 149599 144084 144102 144102 144127 138599 138620
          144084 144102 138584 138599 149566 149579 144072 144084 144072 144084 138573 138584
          138599 138620 133091 133107 138584 138599 133079 133091 133091 133107 127579 127591
          133079 133091 127570 127579 138573 138584 133070 133079 133070 133079 127563 127570
          127563 127570 122053 122058 149559 149566 144065 144072 144065 144072 138567 138573
          149556 149559 144063 144065 144063 144065 138565 138567 138567 138573 133065 133070
          133065 133070 127559 127563 127559 127563 122050 122053 138565 138567 133063 133065
          133063 133065 127557 127559 127557 127559 122049 122050 127579 127591 122065 122073
          122065 122073 116550 116555 127570 127579 122058 122065 122058 122065 116545 116550
          116550 116555 111033 111037 116545 116550 111031 111033 122053 122058 116541 116545
          116541 116545 111028 111031 111033 111037 105517 105518 111031 111033 105515 105517
          105517 105518 100000 100000 105515 105517 100000 100000 111028 111031 105514 105515
          105514 105515 100000 100000 122050 122053 116539 116541 116539 116541 111027 111028
          122049 122050 116538 116539 116538 116539 111026 111027 111027 111028 105514 105514
          105514 105514 100000 100000 111026 111027 105513 105514 105513 105514 100000 100000
        </DataArray>
        <DataArray type="Float32" Name="rho_aq" NumberOfComponents="1" format="ascii">
          1000 1000 1000 1000 1000 1000 1000 1000 1000 1000 1000 1000
          1000 1000 1000 1000 1000 1000 1000 1000 1000 1000 1000 1000
          1000 1000 1000 1000 1000 1000 1000 1000 1000 1000 1000 1000
          1000 1000 1000 1000 1000 1000 1000 1000 1000 1000 1000 1000
          1000 1000 1000 1000 1000 1000 1000 1000 1000 1000 1000 1000
          1000 1000 1000 1000 1000 1000 1000 1000 1000 1000 1000 1000
          1000 1000 1000 1000 1000 1000 1000 1000 1000 1000 1000 1000
          1000 1000 1000 1000 1000 1000 1000 1000 1000 1000 1000 1000
          1000 1000 1000 1000 1000 1000 1000 1000 1000 1000 1000 1000
          1000 1000 1000 1000 1000 1000 1000 1000 1000 1000 1000 1000
          1000 1000 1000 1000 1000 1000 1000 1000 1000 1000 1000 1000
          1000 1000 1000 1000 1000 1000 1000 1000 1000 1000 1000 1000
          1000 1000 1000 1000 1000 1000 1000 1000 1000 1000 1000 1000
          1000 1000 1000 1000 1000 1000 1000 1000 1000 1000 1000 1000
          1000 1000 1000 1000 1000 1000 1000 1000 1000 1000 1000 1000
          1000 1000 1000 1000 1000 1000 1000 1000 1000 1000 1000 1000
          1000 1000 1000 1000 1000 1000 1000 1000 1000 1000 1000 1000
          1000 1000 1000 1000 1000 1000 1000 1000 1000 1000 1000 1000
          1000 1000 1000 1000 1000 1000 1000 1000 1000 1000 1000 1000
          1000 1000 1000 1000 1000 1000 1000 1000 1000 1000 1000 1000
          1000 1000 1000 1000 1000 1000 1000 1000 1000 1000 1000 1000
          1000 1000 1000 1000 1000 1000 1000 1000 1000 1000 1000 1000
          1000 1000 1000 1000 1000 1000 1000 1000 1000 1000 1000 1000
          1000 1000 1000 1000 1000 1000 1000 1000 1000 1000 1000 1000
          1000 1000 1000 1000 1000 1000 1000 1000 1000 1000 1000 1000
          1000 1000 1000 1000 1000 1000 1000 1000 1000 1000 1000 1000
          1000 1000 1000 1000 1000 1000 1000 1000 1000 1000 1000 1000
          1000 1000 1000 1000 1000 1000 1000 1000 1000 1000 1000 1000
          1000 1000 1000 1000 1000 1000 1000 1000 1000 1000 1000 1000
          1000 1000 1000 1000 1000 1000 1000 1000 1000 1000 1000 1000
          1000 1000 1000 1000 1000 1000 1000 1000 1000 1000 1000 1000
          1000 1000 1000 1000 1000 1000 1000 1000 1000 1000 1000 1000
          1000 1000 1000 1000 1000 1000 1000 1000 1000 1000 1000 1000
          1000 1000 1000 1000 1000 1000 1000 1000 1000 1000 1000 1000
          1000 1000 1000 1000 1000 1000 1000 1000 1000 1000 1000 1000
          1000 1000 1000 1000 1000 1000 1000 1000 1000 1000 1000 1000
          1000 1000 1000 1000 1000 1000 1000 1000 1000 1000 1000 1000
          1000 1000 1000 1000 1000 1000 1000 1000 1000 1000 1000 1000
          1000 1000 1000 1000 1000 1000 1000 1000 1000 1000 1000 1000
          1000 1000 1000 1000 1000 1000 1000 1000 1000 1000 1000 1000
          1000 1000 1000 1000 1000 1000 1000 1000 1000 1000 1000 1000
          1000 1000 1000 1000 1000 1000 1000 1000 1000 1000 1000 1000
          1000 1000 1000 1000 1000 1000 1000 1000 1000 1000 1000 1000
          1000 1000 1000 1000 1000 1000 1000 1000 1000 1000 1000 1000
          1000 1000 1000 1000 1000 1000 1000 1000 1000 1000 1000 1000
          1000 1000 1000 1000 1000 1000 1000 1000 1000 1000 1000 1000
          1000 1000 1000 1000 1000 1000 1000 1000 1000 1000 1000 1000
          1000 1000 1000 1000 1000 1000 1000 1000 1000 1000 1000 1000
          1000 1000 1000 1000 1000 1000 1000 1000 1000 1000 1000 1000
          1000 1000 1000 1000 1000 1000 1000 1000 1000 1000 1000 1000
          1000 1000 1000 1000 1000 1000 1000 1000 1000 1000 1000 1000
          1000 1000 1000 1000 1000 1000 1000 1000 1000 1000 1000 1000
          1000 1000 1000 1000 1000 1000 1000 1000 1000 1000 1000 1000
          1000 1000 1000 1000 1000 1000 1000 1000 1000 1000 1000 1000
          1000 1000 1000 1000 1000 1000 1000 1000 1000 1000 1000 1000
          1000 1000 1000 1000 1000 1000 1000 1000 1000 1000 1000 1000
          1000 1000 1000 1000 1000 1000 1000 1000 1000 1000 1000 1000
          1000 1000 1000 1000 1000 1000 1000 1000 1000 1000 1000 1000
          1000 1000 1000 1000 1000 1000 1000 1000 1000 1000 1000 1000
          1000 1000 1000 1000 1000 1000 1000 1000 1000 1000 1000 1000
          1000 1000 1000 1000 1000 1000 1000 1000 1000 1000 1000 1000
          1000 1000 1000 1000 1000 1000 1000 1000 1000 1000 1000 1000
          1000 1000 1000 1000 1000 1000 1000 1000 1000 1000 1000 1000
          1000 1000 1000 1000 1000 1000 1000 1000 1000 1000 1000 1000
          1000 1000 1000 1000 1000 1000 1000 1000 1000 1000 1000 1000
          1000 1000 1000 1000 1000 1000 1000 1000 1000 1000 1000 1000
          1000 1000 1000 1000 1000 1000 1000 1000 1000 1000 1000 1000
          1000 1000 1000 1000 1000 1000 1000 1000 1000 1000 1000 1000
          1000 1000 1000 1000 1000 1000 1000 1000 1000 1000 1000 1000
          1000 1000 1000 1000 1000 1000 1000 1000 1000 1000 1000 1000
          1000 1000 1000 1000 1000 1000 1000 1000 1000 1000 1000 1000
          1000 1000 1000 1000 1000 1000 1000 1000 1000 1000 1000 1000
          1000 1000 1000 1000 1000 1000 1000 1000 1000 1000 1000 1000
          1000 1000 1000 1000 1000 1000 1000 1000 1000 1000 1000 1000
          1000 1000 1000 1000 1000 1000 1000 1000 1000 1000 1000 1000
          1000 1000 1000 1000 1000 1000 1000 1000 1000 1000 1000 1000
          1000 1000 1000 1000 1000 1000 1000 1000 1000 1000 1000 1000
          1000 1000 1000 1000 1000 1000 1000 1000 1000 1000 1000 1000
          1000 1000 1000 1000 1000 1000 1000 1000 1000 1000 1000 1000
          1000 1000 1000 1000 1000 1000 1000 1000 1000 1000 1000 1000
          1000 1000 1000 1000 1000 1000 1000 1000 1000 1000 1000 1000
          1000 1000 1000 1000 1000 1000 1000 1000 1000 1000 1000 1000
          1000 1000 1000 1000 1000 1000 1000 1000 1000 1000 1000 1000
          1000 1000 1000 1000 1000 1000 1000 1000 1000 1000 1000 1000
          1000 1000 1000 1000 1000 1000 1000 1000 1000 1000 1000 1000
          1000 1000 1000 1000 1000 1000 1000 1000 1000 1000 1000 1000
          1000 1000 1000 1000 1000 1000 1000 1000 1000 1000 1000 1000
          1000 1000 1000 1000 1000 1000 1000 1000 1000 1000 1000 1000
          1000 1000 1000 1000 1000 1000 1000 1000 1000 1000 1000 1000
          1000 1000 1000 1000 1000 1000 1000 1000 1000 1000 1000 1000
          1000 1000 1000 1000 1000 1000 1000 1000 1000 1000 1000 1000
          1000 1000 1000 1000 1000 1000 1000 1000 1000 1000 1000 1000
          1000 1000 1000 1000 1000 1000 1000 1000 1000 1000 1000 1000
          1000 1000 1000 1000 1000 1000 1000 1000 1000 1000 1000 1000
          1000 1000 1000 1000 1000 1000 1000 1000 1000 1000 1000 1000
          1000 1000 1000 1000 1000 1000 1000 1000 1000 1000 1000 1000
          1000 1000 1000 1000 1000 1000 1000 1000 1000 1000 1000 1000
          1000 1000 1000 1000 1000 1000 1000 1000 1000 1000 1000 1000
          1000 1000 1000 1000 1000 1000 1000 1000 1000 1000 1000 1000
          1000 1000 1000 1000 1000 1000 1000 1000 1000 1000 1000 1000
          1000 1000 1000 1000 1000 1000 1000 1000 1000 1000 1000 1000
          1000 1000 1000 1000 1000 1000 1000 1000 1000 1000 1000 1000
          1000 1000 1000 1000 1000 1000 1000 1000 1000 1000 1000 1000
          1000 1000 1000 1000 1000 1000 1000 1000 1000 1000 1000 1000
          1000 1000 1000 1000 1000 1000 1000 1000 1000 1000 1000 1000
          1000 1000 1000 1000 1000 1000 1000 1000 1000 1000 1000 1000
          1000 1000 1000 1000 1000 1000 1000 1000 1000 1000 1000 1000
          1000 1000 1000 1000 1000 1000 1000 1000 1000 1000 1000 1000
        </DataArray>
        <DataArray type="Float32" Name="mob_aq" NumberOfComponents="1" format="ascii">
          687.048 23.1923 687.068 23.1923 999.501 687.048 999.501 687.068 686.984 23.1923 687.048 23.1923
          999.5 686.984 999.501 687.048 1000 999.501 1000 999.501 1000 1000 1000 1000
          1000 1000 1000 1000 1000 999.5 1000 999.501 1000 1000 1000 1000
          1000 1000 1000 1000 686.851 23.1923 686.984 23.1923 999.499 686.851 999.5 686.984
          686.6 23.1923 686.851 23.1923 686.116 23.1923 686.6 23.1923 999.498 686.6 999.499 686.851
          999.495 686.116 999.498 686.6 1000 999.499 1000 999.5 1000 1000 1000 1000
          1000 1000 1000 1000 1000 999.498 1000 999.499 1000 999.495 1000 999.498
          1000 1000 1000 1000 1000 1000 1000 1000 1000 1000 1000 1000
          1000 1000 1000 1000 1000 1000 1000 1000 1000 1000 1000 1000
          1000 1000 1000 1000 1000 1000 1000 1000 1000 1000 1000 1000
          1000 1000 1000 1000 1000 1000 1000 1000 1000 1000 1000 1000
          1000 1000 1000 1000 1000 1000 1000 1000 1000 1000 1000 1000
          1000 1000 1000 1000 1000 1000 1000 1000 1000 1000 1000 1000
          1000 1000 1000 1000 1000 1000 1000 1000 1000 1000 1000 1000
          1000 1000 1000 1000 1000 1000 1000 1000 1000 1000 1000 1000
          685.069 23.1923 686.116 23.1923 999.488 685.069 999.495 686.116 681.989 23.1923 685.069 23.1923
          999.475 681.989 999.488 685.069 1000 999.488 1000 999.495 1000 1000 1000 1000
          1000 1000 1000 1000 1000 999.475 1000 999.488 1000 1000 1000 1000
          1000 1000 1000 1000 691.603 23.1923 681.989 23.1923 999.56 691.603 999.475 681.989
          1000 1000 691.603 23.1923 1000 1000 999.56 691.603 1000 999.56 1000 999.475
          1000 1000 1000 1000 1000 1000 1000 1000 1000 1000 1000 999.56
          1000 1000 1000 1000 1000 1000 1000 1000 1000 1000 1000 1000
          1000 1000 1000 1000 1000 1000 1000 1000 1000 1000 1000 1000
          1000 1000 1000 1000 1000 1000 1000 1000 1000 1000 1000 1000
          1000 1000 1000 1000 1000 1000 1000 1000 1000 1000 1000 1000
          1000 1000 1000 1000 1000 1000 1000 1000 1000 1000 1000 1000
          1000 1000 1000 1000 1000 1000 1000 1000 1000 1000 1000 1000
          1000 1000 1000 1000 1000 1000 1000 1000 1000 1000 1000 1000
          1000 1000 1000 1000 1000 1000 1000 1000 1000 1000 1000 1000
          1000 1000 1000 1000 1000 1000 1000 1000 1000 1000 1000 1000
          1000 1000 1000 1000 1000 1000 1000 1000 1000 1000 1000 1000
          1000 1000 1000 1000 1000 1000 1000 1000 1000 1000 1000 1000
          1000 1000 1000 1000 1000 1000 1000 1000 1000 1000 1000 1000
          1000 1000 1000 1000 1000 1000 1000 1000 1000 1000 1000 1000
          1000 1000 1000 1000 1000 1000 1000 1000 1000 1000 1000 1000
          1000 1000 1000 1000 1000 1000 1000 1000 1000 1000 1000 1000
          1000 1000 1000 1000 1000 1000 1000 1000 1000 1000 1000 1000
          1000 1000 1000 1000 1000 1000 1000 1000 1000 1000 1000 1000
          1000 1000 1000 1000 1000 1000 1000 1000 1000 1000 1000 1000
          1000 1000 1000 1000 1000 1000 1000 1000 1000 1000 1000 1000
          1000 1000 1000 1000 1000 1000 1000 1000 1000 1000 1000 1000
          1000 1000 1000 1000 1000 1000 1000 1000 1000 1000 1000 1000
          1000 1000 1000 1000 1000 1000 1000 1000 1000 1000 1000 1000
          1000 1000 1000 1000 1000 1000 1000 1000 1000 1000 1000 1000
          1000 1000 1000 1000 1000 1000 1000 1000 1000 1000 1000 1000
          1000 1000 1000 1000 1000 1000 1000 1000 1000 1000 1000 1000
          1000 1000 1000 1000 1000 1000 1000 1000 1000 1000 1000 1000
          1000 1000 1000 1000 1000 1000 1000 1000 1000 1000 1000 1000
          1000 1000 1000 1000 1000 1000 1000 1000 1000 1000 1000 1000
          1000 1000 1000 1000 1000 1000 1000 1000 1000 1000 1000 1000
          1000 1000 1000 1000 1000 1000 1000 1000 1000 1000 1000 1000
          1000 1000 1000 1000 1000 1000 1000 1000 1000 1000 1000 1000
          1000 1000 1000 1000 1000 1000 1000 1000 1000 1000 1000 1000
          1000 1000 1000 1000 1000 1000 1000 1000 1000 1000 1000 1000
          23.1923 1000 691.603 1000 691.603 1000 999.56 1000 23.1923 23.1923 681.989 691.603
          681.989 691.603 999.475 999.56 999.56 1000 1000 1000 1000 1000 1000 1000
          1000 1000 1000 1000 999.475 999.56 1000 1000 1000 1000 1000 1000
          1000 1000 1000 1000 23.1923 23.1923 685.069 681.989 685.069 681.989 999.488 999.475
          23.1923 23.1923 686.116 685.069 686.116 685.069 999.495 999.488 999.488 999.475 1000 1000
          1000 1000 1000 1000 1000 1000 1000 1000 999.495 999.488 1000 1000
          1000 1000 1000 1000 1000 1000 1000 1000 1000 1000 1000 1000
          1000 1000 1000 1000 1000 1000 1000 1000 1000 1000 1000 1000
          1000 1000 1000 1000 1000 1000 1000 1000 1000 1000 1000 1000
          1000 1000 1000 1000 1000 1000 1000 1000 1000 1000 1000 1000
          1000 1000 1000 1000 1000 1000 1000 1000 1000 1000 1000 1000
          1000 1000 1000 1000 1000 1000 1000 1000 1000 1000 1000 1000
          23.1923 23.1923 686.6 686.116 23.1923 23.1923 686.851 686.6 686.6 686.116 999.498 999.495
          686.851 686.6 999.499 999.498 23.1923 23.1923 686.984 686.851 686.984 686.851 999.5 999.499
          999.498 999.495 1000 1000 999.499 999.498 1000 1000 1000 1000 1000 1000
          1000 1000 1000 1000 1000 1000 1000 1000 1000 1000 1000 1000
          999.5 999.499 1000 1000 1000 1000 1000 1000 1000 1000 1000 1000
          23.1923 23.1923 687.048 686.984 687.048 686.984 999.501 999.5 23.1923 23.1923 687.068 687.048
          687.068 687.048 999.501 999.501 999.501 999.5 1000 1000 1000 1000 1000 1000
          1000 1000 1000 1000 999.501 999.501 1000 1000 1000 1000 1000 1000
          1000 1000 1000 1000 1000 1000 1000 1000 1000 1000 1000 1000
          1000 1000 1000 1000 1000 1000 1000 1000 1000 1000 1000 1000
          1000 1000 1000 1000 1000 1000 1000 1000 1000 1000 1000 1000
          1000 1000 1000 1000 1000 1000 1000 1000 1000 1000 1000 1000
          1000 1000 1000 1000 1000 1000 1000 1000 1000 1000 1000 1000
          1000 1000 1000 1000 1000 1000 1000 1000 1000 1000 1000 1000
          1000 1000 1000 1000 1000 1000 1000 1000 1000 1000 1000 1000
          1000 1000 1000 1000 1000 1000 1000 1000 1000 1000 1000 1000
          1000 1000 1000 1000 1000 1000 1000 1000 1000 1000 1000 1000
          1000 1000 1000 1000 1000 1000 1000 1000 1000 1000 1000 1000
          1000 1000 1000 1000 1000 1000 1000 1000 1000 1000 1000 1000
          1000 1000 1000 1000 1000 1000 1000 1000 1000 1000 1000 1000
          1000 1000 1000 1000 1000 1000 1000 1000 1000 1000 1000 1000
          1000 1000 1000 1000 1000 1000 1000 1000 1000 1000 1000 1000
          1000 1000 1000 1000 1000 1000 1000 1000 1000 1000 1000 1000
          1000 1000 1000 1000 1000 1000 1000 1000 1000 1000 1000 1000
          1000 1000 1000 1000 1000 1000 1000 1000 1000 1000 1000 1000
          1000 1000 1000 1000 1000 1000 1000 1000 1000 1000 1000 1000
          1000 1000 1000 1000 1000 1000 1000 1000 1000 1000 1000 1000