<?xml version="1.0"?>
<VTKFile type="UnstructuredGrid" version="0.1" byte_order="LittleEndian">
  <UnstructuredGrid>
    <Piece NumberOfCells="64" NumberOfPoints="125">
      <PointData Vectors="d">
        <DataArray type="Float64" Name="d" NumberOfComponents="3" format="ascii">
          -3.64068147316688 -3.64068147316687 0 -3.86972984066414 -3.8661878698444 0 -3.8661878698444 -3.86972984066414 0 -4.01059203167599 -4.01059203167599 0
          -3.39237483484307 -3.39237483484307 0.609497799604288 -3.64267641652771 -3.64469150081922 0.12528516675636 -3.64469150081922 -3.64267641652772 0.12528516675636 -3.8137216467544 -3.8137216467544 -0.42368181274826
          -3.35925000678414 -4.66125411982647 0 -3.41907805555035 -4.91603874500704 0 -3.18572464908503 -4.46993379372487 -0.346066105887171 -3.28422733531984 -4.7575143135214 -1.02029660240192
          -4.66125411982647 -3.35925000678414 0 -4.91603874500704 -3.41907805555035 0 -4.46993379372487 -3.18572464908503 -0.346066105887171 -4.7575143135214 -3.28422733531984 -1.02029660240192
          -4.2989216434558 -4.2989216434558 0 -4.23571210138292 -4.23571210138292 -1.93837832394839 -2.62964904164435 -2.62964904164435 1.21940110517077 -2.90747498224505 -2.9185228689443 0.303482383556303
          -2.9185228689443 -2.90747498224505 0.303482383556305 -3.13877295353826 -3.13877295353825 -0.737427513825399 -2.60143110086611 -3.757514149121 -0.544164484055248 -2.79447155729348 -4.121192472352 -1.84244195415293
          -3.757514149121 -2.60143110086611 -0.544164484055247 -4.121192472352 -2.79447155729348 -1.84244195415293 -3.90644395378775 -3.90644395378775 -3.66415380132819 -1.9860942506394 -5.46782629744525 0
          -2.00393456777827 -5.89732654665165 0 -1.88997383287994 -5.29652386832445 -0.712808002264852 -1.93433701770722 -5.77223045367303 -1.51620213158739 0 -5.79908833185786 0
          0 -6.31015094295484 0 0 -5.63207546268528 -0.849597088573696 0 -6.19328596981361 -1.70101610064322 -2.58206452955162 -5.34068360414302 0
          -2.56921754876109 -5.35901738469333 -2.80724471477258 0 -5.80352625390977 0 0 -5.84788360163243 -3.13097025200815 -1.55553757817762 -4.57888995209501 -1.19554116614307
          -1.66447682152888 -5.1660566873003 -2.76894584663217 0 -4.90018447304856 -1.43314306252608 0 -5.58051555506569 -3.10234339058377 -2.4304432496582 -5.22899688199921 -5.43787762273229
          0 -5.76041028629827 -6.032748873408 -5.46782629744525 -1.98609425063939 0 -5.89732654665165 -2.00393456777827 0 -5.29652386832445 -1.88997383287994 -0.712808002264852
          -5.77223045367303 -1.93433701770722 -1.51620213158739 -5.34068360414302 -2.58206452955162 0 -5.35901738469333 -2.56921754876109 -2.80724471477258 -5.79908833185786 0 0
          -6.31015094295484 0 0 -5.63207546268528 0 -0.849597088573698 -6.19328596981362 0 -1.70101610064322 -5.80352625390977 0 0
          -5.84788360163243 0 -3.13097025200814 -4.57888995209501 -1.55553757817762 -1.19554116614307 -5.1660566873003 -1.66447682152888 -2.76894584663217 -5.22899688199921 -2.4304432496582 -5.43787762273229
          -4.90018447304856 0 -1.43314306252608 -5.58051555506569 0 -3.10234339058377 -5.76041028629827 0 -6.032748873408 -3.32845770021291 -3.32845770021291 0
          -3.39785877830898 -3.39785877830898 -4.19504997452449 0 -3.68595663405872 0 0 -3.78822244091074 -4.7353141440419 -3.68595663405873 0 0
          -3.78822244091074 0 -4.7353141440419 0 0 0 0 0 -5.38477733318553 -3.49266328967387 -3.49266328967387 -8.48704737479912
          0 -3.96183744525226 -9.55568324917226 -3.96183744525226 0 -9.55568324917225 0 0 -10.8582754612926 -1.41802355962105 -1.41802355962105 1.7062204100682
          -1.61342599550799 -1.64603552417282 0.487852371631803 -1.64603552417282 -1.61342599550799 0.487852371631803 -1.82931182619159 -1.82931182619159 -0.921453990534978 -1.49543784724825 -2.26259631136177 -0.577928519969151
          -1.73550642426384 -2.62114775245737 -2.3882321614679 -2.26259631136177 -1.49543784724825 -0.577928519969149 -2.62114775245737 -1.73550642426385 -2.3882321614679 -2.86264140662966 -2.86264140662966 -5.1577144819255
          0 0 1.53914854435637 0 0 0.216158106425533 0 0 0.216158106425533 0 0 -1.41060006968096
          0 0 -1.04470359851853 0 0 -3.3064398621706 0 0 -1.04470359851853 0 0 -3.3064398621706
          0 0 -6.42792309114156 -0.896642861917296 -2.86744683865188 -1.37360234757626 -1.03568938299509 -3.48262568343241 -3.61374554199417 0 -3.0875001667337 -1.64930723048462
          0 -3.78390589831036 -4.03672535503825 -1.79187965724737 -4.25188350591854 -7.8388681941241 0 -4.69556654926907 -8.61441392046543 0 0 -2.02298143970399
          0 0 -4.99916381742073 0 0 -2.3575369448066 0 0 -5.51923414644143 0 0 -9.7535212608662
          0 0 -10.8312814375939 -2.86744683865189 -0.896642861917298 -1.37360234757626 -3.48262568343241 -1.03568938299509 -3.61374554199417 -4.25188350591854 -1.79187965724737 -7.8388681941241
          -3.0875001667337 0 -1.64930723048462 -3.78390589831036 0 -4.03672535503825 -4.69556654926907 0 -8.61441392046543 0 0 -2.02298143970399
          0 0 -4.99916381742073 0 0 -9.75352126086619 0 0 -2.3575369448066 0 0 -5.51923414644143
          0 0 -10.8312814375939 -3.04203350850919 -3.04203350850918 -12.8894259066503 0 -3.49510418616999 -14.2773167056682 -3.49510418616999 0 -14.2773167056682
          0 0 -15.9952689748917 0 0 -16.086484435743 0 0 -17.9814971603103 0 0 -17.9814971603103
          0 0 -20.095157898137
        </DataArray>
      </PointData>
      <Points>
        <DataArray type="Float64" Name="Coordinates" NumberOfComponents="3" format="ascii">
          0 0 0 12.5 0 0 0 12.5 0 12.5 12.5 0
          0 0 12.5 12.5 0 12.5 0 12.5 12.5 12.5 12.5 12.5
          25 0 0 25 12.5 0 25 0 12.5 25 12.5 12.5
          0 25 0 12.5 25 0 0 25 12.5 12.5 25 12.5
          25 25 0 25 25 12.5 0 0 25 12.5 0 25
          0 12.5 25 12.5 12.5 25 25 0 25 25 12.5 25
          0 25 25 12.5 25 25 25 25 25 37.5 0 0
          37.5 12.5 0 37.5 0 12.5 37.5 12.5 12.5 50 0 0
          50 12.5 0 50 0 12.5 50 12.5 12.5 37.5 25 0
          37.5 25 12.5 50 25 0 50 25 12.5 37.5 0 25
          37.5 12.5 25 50 0 25 50 12.5 25 37.5 25 25
          50 25 25 0 37.5 0 12.5 37.5 0 0 37.5 12.5
          12.5 37.5 12.5 25 37.5 0 25 37.5 12.5 0 50 0
          12.5 50 0 0 50 12.5 12.5 50 12.5 25 50 0
          25 50 12.5 0 37.5 25 12.5 37.5 25 25 37.5 25
          0 50 25 12.5 50 25 25 50 25 37.5 37.5 0
          37.5 37.5 12.5 50 37.5 0 50 37.5 12.5 37.5 50 0
          37.5 50 12.5 50 50 0 50 50 12.5 37.5 37.5 25
          50 37.5 25 37.5 50 25 50 50 25 0 0 37.5
          12.5 0 37.5 0 12.5 37.5 12.5 12.5 37.5 25 0 37.5
          25 12.5 37.5 0 25 37.5 12.5 25 37.5 25 25 37.5
          0 0 50 12.5 0 50 0 12.5 50 12.5 12.5 50
          25 0 50 25 12.5 50 0 25 50 12.5 25 50
          25 25 50 37.5 0 37.5 37.5 12.5 37.5 50 0 37.5
          50 12.5 37.5 37.5 25 37.5 50 25 37.5 37.5 0 50
          37.5 12.5 50 50 0 50 50 12.5 50 37.5 25 50
          50 25 50 0 37.5 37.5 12.5 37.5 37.5 25 37.5 37.5
          0 50 37.5 12.5 50 37.5 25 50 37.5 0 37.5 50
          12.5 37.5 50 25 37.5 50 0 50 50 12.5 50 50
          25 50 50 37.5 37.5 37.5 50 37.5 37.5 37.5 50 37.5
          50 50 37.5 37.5 37.5 50 50 37.5 50 37.5 50 50
          50 50 50
        </DataArray>
      </Points>
      <Cells>
        <DataArray type="Int32" Name="connectivity" NumberOfComponents="1" format="ascii">
          0 1 3 2 4 5 7 6 1 8 9 3
          5 10 11 7 2 3 13 12 6 7 15 14
          3 9 16 13 7 11 17 15 4 5 7 6
          18 19 21 20 5 10 11 7 19 22 23 21
          6 7 15 14 20 21 25 24 7 11 17 15
          21 23 26 25 8 27 28 9 10 29 30 11
          27 31 32 28 29 33 34 30 9 28 35 16
          11 30 36 17 28 32 37 35 30 34 38 36
          10 29 30 11 22 39 40 23 29 33 34 30
          39 41 42 40 11 30 36 17 23 40 43 26
          30 34 38 36 40 42 44 43 12 13 46 45
          14 15 48 47 13 16 49 46 15 17 50 48
          45 46 52 51 47 48 54 53 46 49 55 52
          48 50 56 54 14 15 48 47 24 25 58 57
          15 17 50 48 25 26 59 58 47 48 54 53
          57 58 61 60 48 50 56 54 58 59 62 61
          16 35 63 49 17 36 64 50 35 37 65 63
          36 38 66 64 49 63 67 55 50 64 68 56
          63 65 69 67 64 66 70 68 17 36 64 50
          26 43 71 59 36 38 66 64 43 44 72 71
          50 64 68 56 59 71 73 62 64 66 70 68
          71 72 74 73 18 19 21 20 75 76 78 77
          19 22 23 21 76 79 80 78 20 21 25 24
          77 78 82 81 21 23 26 25 78 80 83 82
          75 76 78 77 84 85 87 86 76 79 80 78
          85 88 89 87 77 78 82 81 86 87 91 90
          78 80 83 82 87 89 92 91 22 39 40 23
          79 93 94 80 39 41 42 40 93 95 96 94
          23 40 43 26 80 94 97 83 40 42 44 43
          94 96 98 97 79 93 94 80 88 99 100 89
          93 95 96 94 99 101 102 100 80 94 97 83
          89 100 103 92 94 96 98 97 100 102 104 103
          24 25 58 57 81 82 106 105 25 26 59 58
          82 83 107 106 57 58 61 60 105 106 109 108
          58 59 62 61 106 107 110 109 81 82 106 105
          90 91 112 111 82 83 107 106 91 92 113 112
          105 106 109 108 111 112 115 114 106 107 110 109
          112 113 116 115 26 43 71 59 83 97 117 107
          43 44 72 71 97 98 118 117 59 71 73 62
          107 117 119 110 71 72 74 73 117 118 120 119
          83 97 117 107 92 103 121 113 97 98 118 117
          103 104 122 121 107 117 119 110 113 121 123 116
          117 118 120 119 121 122 124 123
        </DataArray>
        <DataArray type="Int32" Name="offsets" NumberOfComponents="1" format="ascii">
          8 16 24 32 40 48 56 64 72 80 88 96
          104 112 120 128 136 144 152 160 168 176 184 192
          200 208 216 224 232 240 248 256 264 272 280 288
          296 304 312 320 328 336 344 352 360 368 376 384
          392 400 408 416 424 432 440 448 456 464 472 480
          488 496 504 512
        </DataArray>
        <DataArray type="UInt8" Name="types" NumberOfComponents="1" format="ascii">
          12 12 12 12 12 12 12 12 12 12 12 12
          12 12 12 12 12 12 12 12 12 12 12 12
          12 12 12 12 12 12 12 12 12 12 12 12
          12 12 12 12 12 12 12 12 12 12 12 12
          12 12 12 12 12 12 12 12 12 12 12 12
          12 12 12 12
        </DataArray>
      </Cells>
    </Piece>
  </UnstructuredGrid>
</VTKFile>
