<?xml version="1.0"?>
<VTKFile type="UnstructuredGrid" version="0.1" byte_order="LittleEndian">
  <UnstructuredGrid>
    <Piece NumberOfCells="1670" NumberOfPoints="911">
      <CellData Scalars="S_aq">
        <DataArray type="Float32" Name="S_aq" NumberOfComponents="1" format="ascii">
          0.212971 0.160814 0.164946 0.278694 0.269984 0.269977 0.161042 0.278671 0.165181 0.217736 0.194167 0.230889
          0.213901 0.202883 0.185028 0.236125 0.205094 0.211644 0.198036 0.224898 0.243751 0.179352 0.227655 0.236662
          0.184173 0.243433 0.224683 0.193529 0.221311 0.160712 0.204025 0.278047 0.212801 0.163275 0.271544 0.217777
          0.199462 0.179959 0.226539 0.236379 0.227445 0.191289 0.202936 0.199749 0.220514 0.196988 0.187283 0.218738
          0.16935 0.260088 0.219405 0.198096 0.236066 0.184664 0.279005 0.159604 0.159932 0.278864 0.23598 0.184974
          0.205104 0.209404 0.270678 0.207285 0.163622 0.18818 0.252106 0.230071 0.189263 0.20877 0.250421 0.207232
          0.175227 0.203932 0.219157 0.190098 0.191579 0.227236 0.238765 0.174413 0.251414 0.174491 0.224443 0.229895
          0.185482 0.189167 0.218077 0.22172 0.158755 0.214009 0.280212 0.202793 0.241329 0.214331 0.202484 0.241945
          0.180537 0.271853 0.162784 0.16308 0.271736 0.241892 0.180842 0.230399 0.252642 0.17371 0.173598 0.250901
          0.182439 0.238433 0.18316 0.175166 0.158731 0.280404 0.250881 0.158983 0.280416 0.250806 0.175424 0.211278
          0.258612 0.204816 0.169941 0.171455 0.16325 0.271709 0.257233 0.163498 0.271727 0.257184 0.171707 0.180395
          0.241521 0.24158 0.1809 0.198046 0.202642 0.214154 0.230049 0.204654 0.249141 0.200367 0.211913 0.252922
          0.216696 0.17617 0.17355 0.229535 0.227096 0.260743 0.191873 0.226813 0.272339 0.189961 0.229215 0.168862
          0.272962 0.189377 0.162734 0.190905 0.261317 0.168284 0.162095 0.19577 0.188658 0.189189 0.178832 0.211786
          0.193732 0.205053 0.236096 0.197539 0.210526 0.205931 0.206207 0.210322 0.183831 0.243557 0.179421 0.169675
          0.259096 0.259181 0.243533 0.169961 0.179729 0.218435 0.213504 0.202748 0.242315 0.24594 0.22834 0.230173
          0.219074 0.19797 0.224302 0.193615 0.235475 0.184644 0.235524 0.185019 0.194633 0.192867 0.181254 0.178791
          0.193369 0.190751 0.173824 0.252575 0.169895 0.259203 0.259158 0.252517 0.170158 0.174088 0.21046 0.212876
          0.219128 0.220674 0.197955 0.196214 0.274163 0.26248 0.167671 0.161455 0.177308 0.224041 0.193897 0.28165
          0.157452 0.158214 0.281106 0.223631 0.194432 0.244914 0.219081 0.198088 0.202889 0.19869 0.217191 0.198729
          0.255804 0.171435 0.189021 0.210492 0.206033 0.212959 0.390375 0.399913 0.361368 0.355187 0.318575 0.305971
          0.308685 0.691396 0.301523 0.3422 0.313914 0.342389 0.647736 0.387295 0.311124 0.344672 0.564446 0.568181
          0.59277 0.473596 0.493187 0.434621 0.375475 0.365331 0.440859 0.451276 0.337861 0.429495 0.341078 0.380471
          0.373369 0.912726 0.291595 0.351904 0.811615 0.428157 0.495017 0.503639 0.426774 0.589956 0.332159 0.348232
          0.293885 0.304928 0.318441 0.504731 0.420173 0.399453 0.386606 0.519189 0.333893 0.339801 0.654136 0.302664
          0.69589 0.36914 0.290908 0.313952 0.330839 0.326774 0.571535 0.291062 0.642063 0.354889 0.389192 0.383097
          0.294193 0.37345 0.376545 0.333168 0.365184 0.327094 0.38577 0.713093 0.803028 0.912311 0.912622 0.337907
          0.590837 0.326441 0.465413 0.478081 0.51805 0.509466 0.401145 0.446912 0.443607 0.331479 0.442988 0.528641
          0.418362 0.470679 0.414729 0.351859 0.345902 0.344985 0.596798 0.294266 0.356574 0.310992 0.414283 0.697518
          0.347942 0.44927 0.311056 0.388869 0.430857 0.430808 0.581718 0.392538 0.508994 0.46176 0.470438 0.568132
          0.524513 0.652789 0.650135 0.324496 0.527763 0.339067 0.293829 0.661015 0.66079 0.607459 0.321893 0.36378
          0.531995 0.524695 0.378126 0.320667 0.356805 0.411556 0.338915 0.401158 0.303375 0.484469 0.371223 0.381674
          0.290761 0.335393 0.913439 0.531282 0.302581 0.474831 0.321772 0.299326 0.558938 0.401941 0.401012 0.293214
          0.364837 0.459473 0.362882 0.322159 0.390067 0.324739 0.475483 0.347626 0.502297 0.808832 0.810799 0.414778
          0.298122 0.828525 0.824541 0.314879 0.297548 0.389556 0.599852 0.293794 0.322267 0.521844 0.342484 0.338688
          0.514922 0.302433 0.31667 0.293049 0.309344 0.31258 0.332166 0.290692 0.554812 0.414513 0.637323 0.360298
          0.319451 0.413949 0.297892 0.662482 0.324926 0.299335 0.389701 0.297944 0.917279 0.916288 0.588819 0.465823
          0.312533 0.378425 0.719671 0.723018 0.569209 0.4192 0.293574 0.331962 0.707343 0.70972 0.308596 0.480829
          0.417211 0.820277 0.823532 0.325778 0.301328 0.412248 0.411146 0.388505 0.381582 0.315947 0.306711 0.299462
          0.306363 0.654658 0.542824 0.345554 0.317625 0.399983 0.402438 0.388324 0.44097 0.400211 0.309513 0.316848
          0.556329 0.462884 0.587243 0.442615 0.442486 0.302425 0.307138 0.301719 0.462664 0.311029 0.437741 0.510208
          0.659683 0.480683 0.347542 0.714746 0.712568 0.335359 0.426089 0.317711 0.334321 0.331681 0.440478 0.45207
          0.374375 0.508401 0.342763 0.346349 0.381961 0.298934 0.309818 0.37339 0.501989 0.32642 0.44829 0.385279
          0.305625 0.341292 0.33617 0.358061 0.372608 0.290226 0.48576 0.325562 0.302867 0.368492 0.350878 0.346215
          0.365779 0.306485 0.732726 0.412984 0.624624 0.308179 0.290312 0.401228 0.357547 0.443955 0.46087 0.316866
          0.833608 0.488234 0.412181 0.328613 0.546573 0.313084 0.317493 0.320998 0.360166 0.319514 0.300007 0.469479
          0.774285 0.772467 0.290134 0.321079 0.574811 0.326272 0.352639 0.353945 0.334151 0.295658 0.371075 0.320927
          0.328654 0.914934 0.913469 0.293063 0.678056 0.296526 0.314084 0.866537 0.86509 0.400488 0.304035 0.290152
          0.311015 0.400117 0.602508 0.328206 0.333654 0.359989 0.29274 0.615549 0.932723 0.289683 0.93249 0.329486
          0.481019 0.301174 0.353426 0.353443 0.434687 0.422068 0.297146 0.366905 0.29266 0.31389 0.413242 0.509425
          0.613821 0.362493 0.42925 0.349164 0.323363 0.334511 0.869278 0.870081 0.292675 0.330405 0.315081 0.424572
          0.297745 0.547092 0.318081 0.323246 0.519238 0.366374 0.309553 0.33924 0.368099 0.359995 0.298957 0.413531
          0.350652 0.534251 0.558951 0.358151 0.355145 0.305828 0.324544 0.434573 0.442659 0.292186 0.344947 0.306678
          0.306662 0.58157 0.590075 0.311297 0.685491 0.628142 0.531911 0.533304 0.332312 0.327101 0.30159 0.29375
          0.304243 0.573598 0.492438 0.573615 0.515954 0.428587 0.342528 0.293569 0.493801 0.315746 0.337046 0.350852
          0.337046 0.291569 0.458706 0.290604 0.291346 0.367911 0.473209 0.446885 0.500423 0.455682 0.412117 0.484742
          0.506935 0.524483 0.56019 0.37111 0.424093 0.320404 0.316208 0.567109 0.298445 0.413558 0.347377 0.315162
          0.560644 0.422508 0.614302 0.341099 0.546758 0.64365 0.305853 0.334865 0.303672 0.47749 0.31314 0.302632
          0.30946 0.307067 0.791228 0.445315 0.577231 0.59718 0.44525 0.455166 0.445665 0.505291 0.33222 0.414344
          0.585245 0.633107 0.353716 0.911741 0.467311 0.33959 0.303271 0.342898 0.298244 0.315761 0.294001 0.32033
          0.543279 0.316668 0.314506 0.308312 0.338547 0.340455 0.37663 0.316904 0.326471 0.577671 0.418798 0.29353
          0.357512 0.435566 0.317007 0.329534 0.69426 0.690748 0.650617 0.307573 0.33428 0.328734 0.371151 0.539104
          0.59005 0.654829 0.344002 0.364283 0.497942 0.499247 0.337727 0.294819 0.301571 0.914472 0.91387 0.29117
          0.911023 0.395612 0.712678 0.707992 0.444426 0.511295 0.477053 0.637644 0.341098 0.313022 0.802983 0.748434
          0.748317 0.561407 0.527206 0.595358 0.441232 0.310944 0.398083 0.321321 0.385487 0.427554 0.705261 0.53604
          0.478976 0.366229 0.394467 0.324684 0.407066 0.367564 0.439066 0.366988 0.310571 0.326882 0.377077 0.483502
          0.3802 0.391047 0.844555 0.843119 0.390118 0.417312 0.451642 0.397856 0.444508 0.477956 0.561116 0.358385
          0.455614 0.449327 0.499892 0.291401 0.316985 0.38295 0.305372 0.392562 0.323259 0.293603 0.34361 0.537789
          0.470596 0.338812 0.290634 0.378618 0.402147 0.331961 0.350044 0.326654 0.409178 0.717993 0.718939 0.312418
          0.465927 0.376795 0.309616 0.391623 0.817914 0.821432 0.372427 0.333708 0.359504 0.401219 0.351686 0.368175
          0.349825 0.297617 0.601488 0.293287 0.343766 0.316245 0.301944 0.293214 0.416805 0.311278 0.324435 0.415436
          0.464281 0.30689 0.332304 0.350994 0.290806 0.389201 0.423425 0.381714 0.325744 0.386848 0.385137 0.315852
          0.319073 0.349545 0.606084 0.338305 0.386138 0.814772 0.81411 0.510629 0.317681 0.643742 0.485842 0.290475
          0.293482 0.306425 0.658491 0.380967 0.91653 0.916779 0.301785 0.442848 0.725823 0.345221 0.668007 0.29296
          0.506001 0.827492 0.357209 0.298239 0.373614 0.388552 0.380221 0.52321 0.351127 0.529492 0.364276 0.373833
          0.487923 0.47297 0.417487 0.339802 0.305545 0.361147 0.353144 0.430833 0.334208 0.345577 0.321014 0.328625
          0.42667 0.508108 0.352537 0.33669 0.669899 0.560095 0.338507 0.315291 0.356363 0.367016 0.414592 0.306881
          0.325956 0.620866 0.365148 0.411376 0.31973 0.359341 0.305094 0.30023 0.315262 0.366077 0.415582 0.448802
          0.376983 0.552301 0.326607 0.309728 0.397146 0.290349 0.401924 0.591943 0.309542 0.453688 0.348566 0.922264
          0.922143 0.327263 0.298309 0.914222 0.911911 0.32388 0.326815 0.341401 0.391252 0.483481 0.379131 0.842893
          0.841786 0.353104 0.389843 0.616426 0.297864 0.290195 0.301776 0.376582 0.360848 0.616537 0.330271 0.293446
          0.297709 0.357284 0.301645 0.511857 0.423689 0.320788 0.533111 0.298288 0.401663 0.402798 0.319765 0.394741
          0.317867 0.344816 0.674122 0.673459 0.405013 0.301272 0.349082 0.406033 0.353191 0.396063 0.351874 0.299296
          0.367055 0.36133 0.306235 0.310928 0.362878 0.445533 0.309523 0.323984 0.319355 0.422414 0.326445 0.358732
          0.425868 0.351999 0.544322 0.359881 0.369866 0.298131 0.629518 0.653327 0.305353 0.311343 0.313031 0.321104
          0.389824 0.300318 0.737236 0.737098 0.712726 0.712155 0.428603 0.410179 0.37249 0.381944 0.499251 0.508521
          0.470111 0.463721 0.424384 0.41059 0.413567 0.760726 0.405735 0.450037 0.419262 0.450241 0.72514 0.496197
          0.416219 0.452681 0.655652 0.658845 0.679701 0.576662 0.594076 0.541275 0.484467 0.474183 0.547019 0.556555
          0.445399 0.536518 0.448836 0.489452 0.482347 0.934327 0.395097 0.460313 0.856065 0.535255 0.595705 0.60331
          0.533966 0.677339 0.439201 0.456441 0.397544 0.409414 0.424254 0.604249 0.527803 0.508056 0.495519 0.616901
          0.441104 0.447481 0.730363 0.406962 0.764392 0.4781 0.394413 0.419334 0.437784 0.433362 0.661713 0.394545
          0.720658 0.463411 0.498083 0.492077 0.397861 0.482444 0.485533 0.440308 0.47405 0.433688 0.494729 0.778151
          0.849629 0.933931 0.934187 0.445446 0.678029 0.432975 0.569351 0.580716 0.615874 0.608359 0.509685 0.552576
          0.549558 0.438494 0.548962 0.625008 0.5261 0.574047 0.522668 0.460262 0.453982 0.453016 0.683051 0.397865
          0.465171 0.416016 0.522247 0.765812 0.456117 0.554728 0.416131 0.497768 0.537787 0.537743 0.670303 0.501349
          0.607964 0.566035 0.57385 0.658821 0.621464 0.727078 0.729283 0.430855 0.624329 0.446694 0.397432 0.736077
          0.735882 0.691891 0.428021 0.472613 0.627971 0.621627 0.487137 0.426678 0.465436 0.519662 0.446498 0.509696
          0.40773 0.586355 0.480198 0.490676 0.394225 0.442709 0.934664 0.62733 0.406907 0.577821 0.427907 0.403393
          0.651005 0.510471 0.509555 0.396827 0.4737 0.563999 0.47169 0.428314 0.498938 0.431143 0.578386 0.455808
          0.602097 0.85375 0.85545 0.522715 0.402031 0.869532 0.866446 0.420309 0.401441 0.498433 0.685585 0.39736
          0.428422 0.619172 0.450334 0.446257 0.613146 0.406702 0.422325 0.39664 0.414228 0.417803 0.439231 0.394103
          0.6475 0.522444 0.716678 0.469051 0.425354 0.521911 0.401831 0.737292 0.431348 0.40337 0.498583 0.401864
          0.937551 0.936748 0.676359 0.569724 0.417738 0.487411 0.783458 0.786148 0.659742 0.526868 0.3972 0.439024
          0.773615 0.7756 0.413445 0.583101 0.525011 0.865427 0.862872 0.432268 0.405521 0.520313 0.519271 0.497403
          0.490581 0.421468 0.411398 0.40344 0.410973 0.73085 0.637211 0.453588 0.423306 0.508585 0.510947 0.49723
          0.547111 0.508783 0.414465 0.422491 0.648763 0.567044 0.675012 0.548624 0.548527 0.406645 0.411808 0.405911
          0.566855 0.416098 0.544133 0.609059 0.734927 0.583001 0.455727 0.779844 0.778077 0.44267 0.533328 0.423436
          0.441566 0.438699 0.546658 0.557258 0.483374 0.607441 0.450624 0.454427 0.490963 0.402926 0.414777 0.482396
          0.601796 0.432998 0.553837 0.494232 0.410183 0.44903 0.443582 0.466703 0.481601 0.39359 0.587532 0.432063
          0.407171 0.477431 0.459232 0.454305 0.474669 0.411119 0.794031 0.521001 0.706155 0.412979 0.393779 0.50978
          0.466201 0.54985 0.565262 0.422528 0.873305 0.589727 0.520244 0.435373 0.640435 0.418354 0.423201 0.427038
          0.468905 0.425406 0.404069 0.573009 0.826887 0.825455 0.39356 0.427155 0.664531 0.432814 0.461061 0.462421
          0.441383 0.39934 0.480047 0.426936 0.435407 0.935557 0.934428 0.396682 0.749969 0.400333 0.419471 0.899119
          0.898035 0.509068 0.408456 0.393586 0.416096 0.508706 0.687731 0.434945 0.440857 0.468696 0.396242 0.698607
          0.949058 0.949231 0.393018 0.436335 0.583304 0.405377 0.461898 0.461923 0.541331 0.529573 0.401 0.475793
          0.396202 0.419268 0.521244 0.608313 0.697276 0.471281 0.536272 0.457413 0.429652 0.441771 0.901191 0.901789
          0.396136 0.437335 0.420548 0.53191 0.401685 0.640911 0.423825 0.4295 0.616871 0.475279 0.414501 0.446868
          0.477039 0.468733 0.402939 0.521516 0.458975 0.629844 0.651045 0.466822 0.463705 0.410422 0.430931 0.54123
          0.54869 0.395693 0.452946 0.41133 0.411318 0.670178 0.677366 0.416398 0.353937 0.335334 0.388459 0.292883
          0.297199 0.385283 0.297162 0.385217 0.292838 0.388382 0.34952 0.340081 0.352974 0.336475 0.363462 0.324709
          0.367584 0.319838 0.355149 0.334135 0.313479 0.35993 0.328825 0.318837 0.362013 0.326455 0.3138 0.372505
          0.349256 0.340405 0.388123 0.29332 0.353789 0.335576 0.296397 0.385807 0.319121 0.368177 0.353449 0.335962
          0.353772 0.335565 0.346873 0.332185 0.356879 0.342788 0.355105 0.334166 0.302739 0.381091 0.388495 0.292775
          0.368001 0.31933 0.319366 0.367987 0.292861 0.388445 0.349004 0.340647 0.385516 0.343795 0.296894 0.345929
          0.377919 0.324202 0.307744 0.377262 0.376088 0.308887 0.344288 0.345416 0.354335 0.334964 0.327626 0.338512
          0.333661 0.351046 0.355557 0.36974 0.308105 0.317232 0.369733 0.341058 0.329051 0.348603 0.359709 0.339279
          0.350296 0.388973 0.292141 0.371276 0.315284 0.385935 0.296205 0.37168 0.314776 0.314813 0.371654 0.296281
          0.385878 0.307321 0.363974 0.363977 0.324146 0.377031 0.317298 0.308499 0.376676 0.325242 0.291977 0.389057
          0.376617 0.308567 0.308548 0.376578 0.291979 0.389024 0.380193 0.34193 0.303623 0.347753 0.296309 0.385917
          0.379722 0.304554 0.30453 0.379675 0.296295 0.385871 0.371717 0.314986 0.315184 0.371404 0.361312 0.362908
          0.32693 0.325074 0.375715 0.377669 0.309681 0.307178 0.352789 0.348356 0.336649 0.341254 0.386386 0.381961
          0.381393 0.361349 0.302307 0.363187 0.327115 0.386118 0.295943 0.326934 0.361541 0.325003 0.295609 0.30196
          0.324806 0.363377 0.375075 0.360819 0.35628 0.328095 0.332797 0.360966 0.363763 0.367349 0.324518 0.319834
          0.371394 0.358398 0.358725 0.330476 0.330115 0.363384 0.380657 0.372615 0.303293 0.313664 0.313702 0.372584
          0.303358 0.380592 0.371395 0.312077 0.314539 0.339532 0.334719 0.35006 0.354562 0.362162 0.326225 0.363929
          0.324171 0.368288 0.319583 0.319758 0.36762 0.34801 0.3433 0.346404 0.341637 0.368003 0.374301 0.380641
          0.377526 0.30337 0.307408 0.307393 0.303357 0.377486 0.380599 0.386889 0.382482 0.294985 0.301352 0.332807
          0.35629 0.334211 0.354995 0.389481 0.291331 0.358868 0.329945 0.329713 0.359078 0.291588 0.389241 0.373269
          0.312848 0.344251 0.345463 0.341801 0.34787 0.3792 0.305298 0.336028 0.353327 0.370053 0.356123 0.332966
          0.349588 0.340012
        </DataArray>
        <DataArray type="Float32" Name="p_aq" NumberOfComponents="1" format="ascii">
          100098 100145 100144 100050 100053 100053 100145 100050 100144 100092 100121 100078
          100097 100110 100130 100073 100108 100099 100116 100084 100067 100135 100081 100073
          100131 100067 100084 100122 100088 100145 100109 100050 100098 100144 100053 100092
          100115 100135 100082 100073 100082 100124 100110 100114 100089 100117 100128 100091
          100142 100057 100090 100116 100073 100131 100050 100145 100145 100050 100073 100131
          100108 100102 100053 100105 100144 100127 100062 100079 100126 100103 100063 100105
          100138 100109 100090 100125 100124 100082 100071 100139 100062 100139 100084 100079
          100130 100126 100091 100087 100145 100097 100050 100111 100069 100096 100111 100069
          100135 100052 100144 100144 100052 100068 100135 100079 100061 100140 100139 100062
          100133 100071 100133 100139 100145 100049 100063 100145 100049 100063 100139 100100
          100058 100108 100141 100141 100144 100052 100059 100144 100052 100059 100141 100135
          100069 100069 100134 100116 100110 100096 100079 100108 100064 100114 100099 100061
          100093 100138 100139 100079 100082 100057 100124 100082 100052 100126 100079 100142
          100052 100126 100144 100125 100057 100142 100144 100119 100127 100126 100136 100099
          100121 100108 100073 100117 100101 100106 100106 100101 100131 100067 100135 100142
          100058 100058 100067 100142 100135 100091 100097 100111 100068 100066 100080 100079
          100090 100116 100085 100122 100074 100131 100074 100131 100120 100122 100134 100136
          100122 100125 100139 100061 100142 100058 100058 100061 100142 100139 100101 100098
          100090 100089 100116 100118 100051 100056 100142 100145 100137 100085 100121 100049
          100145 100145 100049 100085 100121 100067 100090 100116 100110 100115 100093 100116
          100060 100141 100126 100100 100106 100098 100011 100009 100016 100018 100032 100038
          100036 100000 100040 100022 100034 100022 100001 100011 100035 100021 100001 100001
          100001 100004 100003 100006 100013 100015 100006 100005 100023 100007 100022 100012
          100014 100000 100046 100019 100000 100007 100003 100003 100007 100001 100026 100020
          100044 100038 100032 100003 100007 100010 100011 100002 100025 100023 100001 100040
          100000 100015 100046 100034 100026 100028 100001 100046 100001 100018 100011 100012
          100044 100014 100013 100025 100015 100028 100011 100000 100000 100000 100000 100023
          100001 100028 100004 100004 100002 100003 100009 100005 100006 100026 100006 100002
          100008 100004 100008 100019 100021 100021 100001 100044 100018 100035 100008 100000
          100020 100005 100035 100011 100006 100006 100001 100010 100003 100004 100004 100001
          100002 100001 100001 100029 100002 100023 100044 100001 100001 100001 100030 100016
          100002 100002 100013 100031 100018 100008 100023 100009 100039 100003 100014 100012
          100046 100024 100000 100002 100040 100004 100030 100041 100002 100009 100009 100045
          100016 100005 100016 100030 100011 100029 100004 100020 100003 100000 100000 100008
          100042 100000 100000 100033 100042 100011 100001 100044 100030 100002 100022 100023
          100002 100040 100032 100045 100036 100034 100026 100046 100002 100008 100001 100017
          100031 100008 100042 100001 100029 100041 100011 100042 100000 100000 100001 100004
          100034 100013 100000 100000 100001 100007 100044 100026 100000 100000 100037 100004
          100008 100000 100000 100028 100040 100008 100008 100011 100012 100033 100037 100041
          100038 100001 100002 100021 100032 100009 100009 100011 100006 100009 100036 100032
          100002 100004 100001 100006 100006 100040 100037 100040 100004 100035 100006 100003
          100001 100004 100020 100000 100000 100024 100007 100032 100025 100026 100006 100005
          100014 100003 100022 100021 100012 100042 100036 100014 100003 100028 100005 100012
          100038 100022 100024 100017 100014 100046 100003 100028 100039 100015 100019 100021
          100015 100038 100000 100008 100001 100037 100046 100009 100017 100005 100004 100032
          100000 100003 100008 100027 100002 100034 100032 100030 100017 100031 100041 100004
          100000 100000 100046 100030 100001 100028 100019 100018 100025 100043 100014 100030
          100027 100000 100000 100045 100000 100043 100034 100000 100000 100009 100039 100046
          100035 100009 100001 100027 100025 100017 100045 100001 100000 100046 100000 100027
          100004 100040 100018 100018 100006 100007 100043 100015 100045 100034 100008 100003
          100001 100016 100007 100020 100029 100025 100000 100000 100045 100026 100033 100007
          100042 100002 100032 100029 100002 100015 100036 100023 100015 100017 100042 100008
          100019 100002 100002 100017 100018 100038 100029 100006 100006 100045 100021 100037
          100038 100001 100001 100035 100000 100001 100002 100002 100025 100028 100040 100044
          100039 100001 100003 100001 100002 100007 100022 100044 100003 100033 100024 100019
          100024 100046 100005 100046 100046 100015 100004 100005 100003 100005 100008 100003
          100003 100002 100001 100014 100007 100031 100033 100001 100042 100008 100020 100033
          100002 100007 100001 100022 100002 100001 100038 100025 100039 100004 100034 100040
          100036 100037 100000 100005 100001 100001 100005 100005 100005 100003 100026 100008
          100001 100001 100018 100000 100004 100023 100039 100022 100042 100033 100044 100031
          100002 100032 100033 100037 100023 100022 100013 100032 100028 100001 100007 100044
          100017 100006 100032 100027 100000 100000 100001 100037 100025 100027 100014 100002
          100001 100001 100021 100016 100003 100003 100024 100044 100040 100000 100000 100046
          100000 100010 100000 100000 100005 100003 100004 100001 100022 100034 100000 100000
          100000 100002 100002 100001 100006 100035 100010 100030 100012 100007 100000 100002
          100004 100015 100010 100029 100009 100015 100006 100015 100035 100028 100013 100003
          100012 100011 100000 100000 100011 100008 100005 100010 100005 100004 100002 100017
          100005 100005 100003 100046 100032 100012 100038 100010 100029 100044 100021 100002
          100004 100023 100046 100013 100009 100026 100019 100028 100008 100000 100000 100034
          100004 100013 100036 100011 100000 100000 100014 100025 100017 100009 100019 100015
          100020 100042 100001 100045 100021 100033 100040 100045 100008 100035 100029 100008
          100004 100037 100025 100019 100046 100011 100007 100012 100028 100011 100012 100033
          100031 100020 100001 100023 100011 100000 100000 100003 100032 100001 100003 100046
          100044 100038 100001 100012 100000 100000 100040 100006 100000 100021 100001 100045
          100003 100000 100017 100042 100014 100011 100013 100002 100019 100002 100016 100014
          100003 100004 100008 100023 100038 100016 100018 100006 100025 100021 100030 100027
          100007 100003 100019 100024 100001 100002 100023 100033 100018 100015 100008 100037
          100028 100001 100015 100008 100031 100017 100038 100041 100033 100015 100008 100005
          100013 100002 100028 100036 100010 100046 100009 100001 100036 100005 100020 100000
          100000 100028 100042 100000 100000 100029 100028 100022 100011 100003 100013 100000
          100000 100019 100011 100001 100042 100046 100040 100013 100016 100001 100026 100045
          100042 100017 100040 100003 100007 100030 100002 100042 100009 100009 100031 100010
          100032 100021 100001 100001 100009 100040 100020 100009 100019 100010 100019 100041
          100015 100016 100038 100035 100016 100005 100036 100029 100031 100007 100028 100017
          100007 100019 100002 100017 100014 100042 100001 100001 100038 100035 100034 100030
          100011 100041 100000 100000 100000 100000 100007 100008 100014 100012 100009 100008
          100013 100014 100022 100026 100025 100001 100028 100016 100024 100016 100001 100009
          100025 100016 100002 100002 100001 100004 100003 100006 100011 100012 100005 100005
          100017 100006 100016 100010 100011 100000 100031 100014 100000 100006 100003 100003
          100006 100001 100019 100015 100031 100027 100022 100003 100006 100008 100009 100003
          100018 100017 100001 100027 100001 100011 100032 100024 100019 100020 100002 100032
          100001 100014 100009 100010 100030 100011 100010 100018 100012 100020 100009 100000
          100000 100000 100000 100017 100001 100020 100004 100004 100003 100003 100008 100005
          100005 100019 100005 100002 100007 100004 100007 100014 100015 100016 100001 100030
          100013 100025 100007 100001 100015 100005 100025 100009 100006 100006 100001 100009
          100003 100004 100004 100002 100002 100001 100001 100021 100002 100017 100031 100001
          100001 100001 100021 100012 100002 100002 100010 100022 100013 100007 100017 100008
          100027 100003 100011 100010 100032 100018 100000 100002 100028 100004 100021 100029
          100002 100008 100008 100031 100012 100004 100012 100021 100009 100021 100004 100015
          100003 100000 100000 100007 100029 100000 100000 100023 100029 100009 100001 100031
          100021 100002 100016 100017 100003 100028 100023 100031 100025 100024 100019 100032
          100002 100007 100001 100013 100022 100007 100029 100001 100020 100029 100009 100029
          100000 100000 100001 100004 100024 100010 100000 100000 100002 100007 100031 100019
          100001 100000 100026 100003 100007 100000 100000 100020 100028 100007 100007 100009
          100010 100023 100026 100029 100026 100001 100002 100016 100023 100008 100008 100009
          100005 100008 100025 100023 100002 100004 100001 100005 100005 100028 100026 100028
          100004 100025 100005 100003 100001 100004 100015 100001 100001 100018 100006 100023
          100018 100019 100005 100005 100011 100003 100016 100015 100010 100029 100025 100011
          100003 100020 100005 100009 100026 100016 100018 100013 100011 100032 100003 100020
          100027 100012 100014 100015 100012 100026 100000 100007 100001 100026 100032 100008
          100013 100005 100004 100023 100000 100003 100007 100019 100002 100024 100023 100022
          100013 100022 100028 100004 100000 100000 100032 100022 100002 100020 100014 100014
          100018 100030 100011 100022 100019 100000 100000 100031 100001 100030 100024 100000
          100000 100008 100027 100032 100025 100008 100001 100020 100018 100013 100031 100001
          100000 100000 100032 100019 100004 100028 100014 100014 100006 100006 100029 100012
          100031 100024 100007 100003 100001 100012 100006 100015 100021 100018 100000 100000
          100031 100019 100023 100006 100029 100002 100022 100021 100002 100012 100025 100017
          100012 100013 100029 100007 100015 100002 100002 100013 100014 100026 100021 100006
          100005 100031 100016 100026 100026 100001 100001 100025 100044 100047 100034 100048
          100048 100035 100048 100035 100048 100034 100045 100047 100044 100047 100041 100049
          100040 100049 100044 100048 100049 100042 100048 100049 100042 100048 100049 100039
          100045 100047 100034 100048 100044 100047 100048 100034 100049 100040 100044 100047
          100044 100047 100045 100048 100043 100046 100044 100048 100049 100036 100034 100048
          100040 100049 100049 100040 100048 100034 100045 100047 100035 100046 100048 100046
          100037 100049 100049 100037 100038 100049 100046 100046 100044 100047 100048 100047
          100048 100045 100044 100040 100049 100049 100040 100047 100048 100045 100042 100047
          100045 100033 100048 100039 100049 100034 100048 100039 100049 100049 100039 100048
          100034 100049 100041 100041 100049 100037 100049 100049 100037 100048 100048 100033
          100037 100049 100049 100037 100048 100033 100036 100046 100049 100045 100048 100034
          100036 100049 100049 100036 100048 100034 100039 100049 100049 100039 100042 100042
          100048 100048 100038 100037 100049 100049 100044 100045 100047 100046 100034 100036
          100036 100042 100049 100042 100048 100034 100048 100048 100042 100048 100048 100049
          100048 100041 100038 100042 100043 100048 100048 100042 100041 100040 100049 100049
          100039 100043 100043 100048 100048 100041 100036 100039 100049 100049 100049 100039
          100049 100036 100039 100049 100049 100047 100047 100045 100044 100042 100048 100041
          100049 100040 100049 100049 100040 100045 100046 100046 100046 100040 100038 100036
          100037 100049 100049 100049 100049 100037 100036 100034 100036 100048 100049 100048
          100043 100048 100044 100033 100048 100043 100048 100048 100043 100048 100033 100039
          100049 100046 100046 100046 100045 100037 100049 100047 100044 100040 100043 100048
          100045 100047
        </DataArray>
        <DataArray type="Float32" Name="rho_aq" NumberOfComponents="1" format="ascii">
          1000 1000 1000 1000 1000 1000 1000 1000 1000 1000 1000 1000