<?xml version="1.0"?>
<VTKFile type="UnstructuredGrid" version="0.1" byte_order="LittleEndian">
  <UnstructuredGrid>
    <Piece NumberOfCells="3200" NumberOfPoints="1681">
      <PointData Scalars="p">
        <DataArray type="Float32" Name="p" NumberOfComponents="1" format="ascii">
          0.0245225 0.0251568 0.000258355 -0.000448375 0.0479395 0.0242125 0.0489491 0.0699915 0.0713772 0.0476376 0.0696535 -0.00116547
          0.0240294 -0.00173124 0.0474934 0.0695105 0.0907242 0.0924173 0.110157 0.112084 0.0903637 0.109788 0.128301 0.130395
          0.145165 0.127935 0.0902226 0.109654 0.127812 0.14481 0.144699 -0.00214943 0.0239194 0.0474059 0.0238608 -0.00244237
          0.0473549 0.0694219 0.0693643 0.0238413 -0.00262858 0.0473323 0.0238524 0.0693313 0.0473324 0.0693185 0.0901345 0.10957
          0.0900736 0.109509 0.127734 0.14463 0.127676 0.144577 0.0900341 0.109467 0.0900128 0.10944 0.127634 0.144537
          0.127605 0.147364 0.160754 0.163002 0.160417 0.175075 0.177318 0.188132 0.190323 0.17476 0.187843 0.16032
          0.174678 0.187777 0.199928 0.202023 0.210465 0.199669 0.212426 0.219748 0.221539 0.21024 0.219558 0.199618
          0.210203 0.219535 0.160261 0.160215 0.17463 0.187739 0.174591 0.187708 0.160179 0.144509 0.160152 0.17456
          0.187683 0.174536 0.187663 0.19959 0.210186 0.199568 0.210172 0.219528 0.219522 0.199549 0.210159 0.199534
          0.219515 0.210149 0.219509 -0.00272227 0.0238874 -0.00273504 0.0473502 0.069322 -0.00267677 0.0239412 0.0473817 0.0240095
          -0.00255626 0.0474234 0.0693385 0.069365 0.0900064 0.109428 0.127588 0.14449 0.0900124 0.109426 0.0900281 0.109434
          0.127582 0.144481 0.127584 0.144479 0.0240888 -0.00238146 0.0474725 0.0241761 0.069399 0.0475266 0.0694384 -0.0021597
          0.0242689 -0.00189784 0.0475837 0.0694813 0.0900514 0.109449 0.0900804 0.10947 0.127593 0.144483 0.127608 0.0901135
          0.109495 0.127627 0.144493 0.144507 0.160134 0.174519 0.187648 0.160123 0.160118 0.174508 0.187639 0.174503
          0.187633 0.199522 0.21014 0.219505 0.199514 0.210135 0.199509 0.210132 0.219502 0.219501 0.16012 0.160126
          0.174503 0.187632 0.174507 0.187635 0.160137 0.174515 0.187641 0.199508 0.210131 0.19951 0.219501 0.210133
          0.219504 0.199515 0.210138 0.219508 0.227776 0.229369 0.234554 0.235921 0.227624 0.234441 0.240081 0.241201
          0.24436 0.240008 0.227615 0.234445 0.240024 0.244327 0.244355 0.245216 0.247392 0.247971 0.247399 0.249177
          0.24947 0.249718 0.24972 0.249225 0.249804 0.247437 0.249272 0.24986 0.227617 0.234455 0.227618 0.234463
          0.240042 0.24438 0.240056 0.2444 0.227618 0.234468 0.227617 0.234472 0.240067 0.244415 0.240075 0.247468
          0.247493 0.249309 0.249901 0.249338 0.249934 0.247513 0.244427 0.247529 0.249361 0.249961 0.24938 0.249982
          0.249014 0.248727 0.247067 0.249138 0.246494 0.243878 0.243027 0.247227 0.244071 0.249202 0.247297 0.244146
          0.239447 0.238332 0.233776 0.232413 0.239671 0.234026 0.226865 0.225277 0.218715 0.227138 0.23975 0.234109
          0.227222 0.219007 0.219092 0.249246 0.247344 0.249282 0.247382 0.244196 0.244235 0.249311 0.247413 0.249335
          0.244267 0.247439 0.244294 0.239801 0.23416 0.239841 0.2342 0.227273 0.21914 0.227312 0.219178 0.239874
          0.234232 0.239901 0.23426 0.227344 0.219208 0.22737 0.227616 0.234475 0.240082 0.244437 0.227616 0.234478
          0.227617 0.234481 0.240087 0.244446 0.240093 0.244453 0.247542 0.249396 0.250001 0.247553 0.247562 0.249409
          0.250016 0.249421 0.250029 0.227619 0.234484 0.227622 0.234489 0.240098 0.24446 0.240104 0.227627 0.234494
          0.24011 0.244467 0.244474 0.247571 0.247579 0.249431 0.25004 0.24944 0.250051 0.247587 0.249449 0.250061
          0.249355 0.24746 0.244317 0.249372 0.247479 0.249386 0.247494 0.244336 0.244352 0.239924 0.234282 0.227392
          0.219232 0.219253 0.239943 0.234302 0.23996 0.234319 0.227411 0.219271 0.227428 0.219287 0.249399 0.247508
          0.249411 0.244366 0.24752 0.24438 0.249422 0.247532 0.244392 0.239975 0.234334 0.239989 0.234348 0.227443
          0.219302 0.227457 0.240002 0.234361 0.227471 0.219316 0.21933 -0.00160233 0.0243651 0.0476423 0.0244628 -0.00127934
          0.047701 0.0695262 0.069572 0.0245605 -0.00093478 0.0477587 0.0246566 0.0696176 0.0478145 0.0696621 0.0901493 0.109524
          0.0901867 0.109554 0.127649 0.144525 0.127674 0.144545 0.0902245 0.109585 0.0902621 0.109617 0.1277 0.144567
          0.127727 -0.000574383 0.0247501 -0.000203714 0.0478676 0.0697048 0.00017178 0.0248397 0.0479173 0.0249244 0.000546752 0.047963
          0.069745 0.0697822 0.0902986 0.109649 0.127754 0.14459 0.144613 0.0903335 0.109679 0.0903662 0.109708 0.127781
          0.144637 0.127807 0.14466 0.160151 0.160167 0.174526 0.18765 0.174539 0.187661 0.160185 0.160204 0.174554
          0.187674 0.174571 0.187688 0.199523 0.210144 0.199532 0.210153 0.219514 0.219522 0.199544 0.210163 0.199556
          0.219532 0.210174 0.219542 0.160225 0.174589 0.187704 0.160246 0.160266 0.174607 0.187721 0.174626 0.187738
          0.19957 0.210187 0.219554 0.199585 0.210201 0.199601 0.210215 0.219567 0.21958 0.0250033 0.000915929 0.0480044
          0.0250755 0.0698161 0.0480409 0.0698462 0.00127409 0.0251401 0.00161605 0.0480722 0.0698721 0.0903963 0.109736 0.0904235
          0.109761 0.127831 0.144682 0.127854 0.0904474 0.109783 0.127875 0.144703 0.144723 0.00193664 0.0251963 0.048098
          0.0252433 0.00223067 0.0481178 0.0698936 0.0699104 0.02528 0.0024929 0.0481312 0.0253056 0.0699221 0.0481379 0.0699284
          0.0904677 0.109802 0.0904841 0.109819 0.127894 0.144742 0.127911 0.144758 0.0904965 0.109832 0.0905043 0.109842
          0.127925 0.144773 0.127936 0.160287 0.160307 0.174645 0.187755 0.174663 0.187773 0.160326 0.174681 0.18779
          0.199617 0.21023 0.199634 0.219594 0.210246 0.219609 0.19965 0.210262 0.219624 0.160344 0.16036 0.174699
          0.187807 0.174716 0.187823 0.160376 0.144786 0.16039 0.174731 0.187839 0.174747 0.187855 0.199666 0.210277
          0.199683 0.210293 0.219639 0.219654 0.199699 0.210309 0.199715 0.21967 0.210325 0.219686 0.227633 0.234501
          0.227641 0.234508 0.240117 0.244482 0.240124 0.24449 0.227649 0.234517 0.227659 0.234526 0.240133 0.244498
          0.240142 0.247595 0.247604 0.249458 0.250071 0.249467 0.25008 0.247613 0.244508 0.247623 0.249477 0.25009
          0.249487 0.2501 0.227671 0.234537 0.240153 0.244518 0.227682 0.234548 0.227695 0.23456 0.240164 0.244529
          0.240175 0.24454 0.247633 0.249497 0.250111 0.247643 0.247654 0.249507 0.250121 0.249518 0.250132 0.249432
          0.247543 0.249442 0.247554 0.244404 0.244415 0.249453 0.247565 0.249463 0.244427 0.247576 0.244439 0.240014
          0.234374 0.240027 0.234387 0.227484 0.219344 0.227498 0.219359 0.240039 0.234401 0.240051 0.234414 0.227512
          0.219374 0.227527 0.249474 0.247587 0.244451 0.249485 0.247599 0.249496 0.24761 0.244462 0.244474 0.240064
          0.234427 0.227541 0.21939 0.219405 0.240076 0.234441 0.240089 0.234454 0.227556 0.219421 0.22757 0.219437
          0.227709 0.234573 0.227722 0.234586 0.240187 0.244552 0.2402 0.227737 0.2346 0.240213 0.244564 0.244576
          0.247666 0.247677 0.249529 0.250143 0.249541 0.250154 0.247689 0.249552 0.250165 0.227751 0.234614 0.227766
          0.234628 0.240226 0.244588 0.240239 0.2446 0.227781 0.234642 0.227796 0.234656 0.240252 0.244613 0.240265
          0.2477 0.247712 0.249563 0.250175 0.249573 0.250184 0.247723 0.244624 0.247733 0.249583 0.250193 0.249592
          0.250201 0.249507 0.247621 0.249518 0.244486 0.247632 0.244496 0.249528 0.247642 0.244506 0.240101 0.234467
          0.240112 0.234479 0.227584 0.219453 0.227597 0.240122 0.23449 0.227609 0.219467 0.21948 0.249538 0.247651
          0.249546 0.247659 0.244515 0.244523 0.249554 0.247666 0.24956 0.244529 0.24767 0.244532 0.240131 0.234499
          0.240138 0.234506 0.227619 0.219491 0.227626 0.219499 0.240143 0.23451 0.240146 0.234512 0.227631 0.219504
          0.227632 0.216927 0.209327 0.207371 0.209634 0.198704 0.196612 0.186846 0.184659 0.199019 0.187163 0.209717
          0.199098 0.187237 0.173755 0.171517 0.159436 0.174067 0.157194 0.143892 0.141701 0.159734 0.144165 0.174133
          0.159788 0.144201 0.209763 0.209797 0.19914 0.187273 0.19917 0.187297 0.209824 0.209847 0.199194 0.187316
          0.199213 0.18733 0.174161 0.159804 0.174178 0.159812 0.144203 0.144198 0.17419 0.159815 0.174199 0.144191
          0.159818 0.144186 0.127131 0.125051 0.109163 0.107268 0.127364 0.109332 0.0900022 0.0883896 0.0696583 0.0900708
          0.127374 0.109305 0.0899882 0.0695684 0.0694105 0.0684749 0.0480974 0.0475376 0.0477832 0.0251501 0.0250485 0.00117493
          0.000928664 0.0246664 0.000995629 0.0475473 0.0244502 0.00125214 0.127356 0.109259 0.127334 0.109218 0.0899078 0.0692912
          0.0898445 0.0692066 0.127315 0.109186 0.127301 0.109162 0.0897975 0.0691478 0.0897649 0.0474024 0.0473099 0.0243578
          0.00153168 0.0243101 0.0017452 0.0472497 0.0691088 0.0472122 0.0242834 0.00189622 0.0242701 0.0019934 0.209865 0.199229
          0.187343 0.209882 0.209897 0.199243 0.187355 0.199257 0.187366 0.174207 0.159821 0.144183 0.174216 0.159826
          0.174225 0.159833 0.144184 0.144189 0.209911 0.209925 0.19927 0.187379 0.199284 0.187392 0.209939 0.199298
          0.187407 0.174236 0.159843 0.17425 0.144198 0.159856 0.144211 0.174265 0.159872 0.144228 0.127292 0.109147
          0.0897448 0.0690859 0.12729 0.10914 0.127292 0.109141 0.0897356 0.0690762 0.089736 0.0690778 0.0471919 0.0242666
          0.00204189 0.0471856 0.0471909 0.0242705 0.00204535 0.0242803 0.00200714 0.1273 0.109149 0.127314 0.109164 0.089745
          0.0690891 0.0897615 0.127332 0.109184 0.0897847 0.0691089 0.0691361 0.0472061 0.0472298 0.0242948 0.00193062 0.0243132
          0.00181933 0.0472609 0.0243347 0.00167697 0.209954 0.20997 0.199314 0.187423 0.19933 0.187441 0.209986 0.210003
          0.199348 0.18746 0.199367 0.187481 0.174282 0.15989 0.174302 0.159912 0.144248 0.144271 0.174323 0.159935
          0.174346 0.144298 0.159961 0.144327 0.21002 0.199386 0.187503 0.210038 0.210056 0.199406 0.187525 0.199426
          0.187548 0.17437 0.159989 0.144359 0.174396 0.160018 0.174421 0.160047 0.144391 0.144425 0.127354 0.10921
          0.127381 0.10924 0.0898138 0.0691697 0.0898481 0.069209 0.127411 0.109274 0.127444 0.109311 0.089887 0.0692532
          0.0899298 0.0472984 0.0473414 0.0243588 0.00150736 0.0243852 0.00131449 0.0473893 0.0693016 0.0474413 0.0244135 0.00110244
          0.0244437 0.000875402 0.127479 0.109352 0.0899758 0.0693536 0.127517 0.109395 0.127556 0.109439 0.0900247 0.0694086
          0.0900756 0.0694661 0.0474968 0.0244755 0.000637659 0.0475554 0.0476165 0.0245091 0.000393574 0.0245443 0.000147581 0.210073
          0.210089 0.199445 0.18757 0.199464 0.187592 0.210104 0.199481 0.187612 0.174447 0.160077 0.174472 0.14446
          0.160106 0.144494 0.174496 0.160134 0.144527 0.210117 0.210126 0.199496 0.187629 0.199508 0.187644 0.210132
          0.219505 0.210134 0.199516 0.187654 0.199518 0.187659 0.174517 0.16016 0.174536 0.160183 0.144559 0.144587
          0.17455 0.160202 0.174558 0.144611 0.160214 0.14463 0.127596 0.109485 0.127636 0.109531 0.090128 0.0695253
          0.0901812 0.127675 0.109577 0.0902346 0.0695858 0.0696469 0.0476796 0.0477444 0.0245814 -9.58177e-05 0.0246205 -0.000332066
          0.0478102 0.0246617 -0.000556555 0.127712 0.109622 0.127747 0.109665 0.0902873 0.069708 0.0903385 0.0697682 0.127779
          0.109704 0.127804 0.109738 0.0903871 0.0698268 0.0904318 0.0478767 0.0479432 0.0247052 -0.000764637 0.0247512 -0.000951633
          0.0480093 0.0698825 0.0480742 0.0247998 -0.00111285 0.0248513 -0.0012436 0.00271803 0.0253188 0.00290057 0.0481372 0.0699289
          0.00303481 0.0253184 0.0481283 0.0253027 0.00311462 0.0481104 0.0699231 0.0699104 0.0905076 0.109848 0.127945 0.144797
          0.0905058 0.10985 0.0904989 0.109849 0.127951 0.144806 0.127955 0.144814 0.0252693 0.00313322 0.0480821 0.0252152
          0.0698902 0.0480417 0.0698617 0.00308271 0.0251358 0.00295314 0.047987 0.0698242 0.0904866 0.109844 0.0904689 0.109836
          0.127956 0.144821 0.127956 0.0904461 0.109825 0.127956 0.144827 0.144835 0.160403 0.174761 0.18787 0.160415
          0.160426 0.174775 0.187886 0.174788 0.187901 0.199731 0.210341 0.219701 0.199747 0.210357 0.199763 0.210374
          0.219717 0.219734 0.160437 0.160448 0.174802 0.187917 0.174817 0.187934 0.160461 0.174834 0.187953 0.19978
          0.210391 0.199798 0.219751 0.21041 0.219768 0.199818 0.21043 0.219787 0.00273054 0.0250244 0.0479153 0.0248707
          0.00239275 0.0478239 0.0697777 0.0697234 0.0246609 0.00190189 0.0477126 0.0243845 0.0696661 0.0475919 0.0696191 0.0904195
          0.109814 0.0903916 0.109805 0.127956 0.144844 0.127961 0.144858 0.0903682 0.109804 0.0903595 0.109816 0.127974
          0.14488 0.127998 0.00119997 0.0240735 0.000269336 0.0475017 0.0696056 -0.000392925 0.0238877 0.047487 0.0234576 -0.000833103
          0.0467708 0.0695728 0.0683893 0.0903716 0.109837 0.12802 0.14491 0.144931 0.0902879 0.109709 0.0887356 0.107897
          0.12786 0.144747 0.125871 0.142648 0.160477 0.160497 0.174853 0.187975 0.174877 0.188 0.160524 0.160557
          0.174907 0.18803 0.174941 0.188063 0.199841 0.210452 0.199866 0.210476 0.219808 0.21983 0.199895 0.210503
          0.199926 0.219854 0.21053 0.219877 0.160575 0.174956 0.188074 0.160375 0.158224 0.174745 0.187859 0.172595
          0.185757 0.199933 0.210534 0.219877 0.199719 0.210325 0.197708 0.208443 0.219678 0.21796 0.227811 0.23467
          0.240278 0.244636 0.227826 0.234684 0.227842 0.234698 0.240291 0.244647 0.240303 0.244657 0.247743 0.2496
          0.250207 0.247752 0.24776 0.249607 0.250212 0.249612 0.250214 0.227858 0.234713 0.227874 0.234727 0.240316
          0.244667 0.240328 0.227891 0.234742 0.24034 0.244677 0.244685 0.247767 0.247774 0.249617 0.250215 0.249619
          0.250214 0.247779 0.24962 0.250211 0.249564 0.247673 0.244533 0.249567 0.247673 0.249567 0.24767 0.24453
          0.244524 0.240145 0.23451 0.227628 0.219501 0.24014 0.234503 0.240131 0.234491 0.22762 0.219492 0.227606
          0.219475 0.249564 0.247664 0.249559 0.244515 0.247654 0.244501 0.249551 0.247641 0.244483 0.240118 0.234474
          0.2401 0.234452 0.227585 0.219452 0.227558 0.240076 0.234422 0.227523 0.21942 0.219379 0.22791 0.234757
          0.227929 0.234773 0.240352 0.244693 0.240364 0.244701 0.227949 0.234789 0.227968 0.234803 0.240375 0.244707
          0.240383 0.247782 0.247784 0.249619 0.250205 0.249616 0.250196 0.247785 0.244709 0.247782 0.249611 0.250184
          0.249601 0.250168 0.227964 0.234795 0.240372 0.244694 0.227778 0.234626 0.226254 0.233321 0.240222 0.244566
          0.239158 0.243759 0.247763 0.249579 0.250142 0.247659 0.247121 0.2495 0.250089 0.24924 0.25011 0.24954
          0.247624 0.249525 0.247603 0.24446 0.244432 0.249506 0.247578 0.249484 0.244399 0.247548 0.244361 0.240047
          0.234386 0.240012 0.234344 0.22748 0.219329 0.227429 0.219269 0.239971 0.234295 0.239925 0.234239 0.227371
          0.219201 0.227306 0.249454 0.247514 0.244323 0.249427 0.247512 0.249728 0.248089 0.244346 0.245188 0.239881
          0.234189 0.227248 0.219125 0.219058 0.239927 0.234256 0.241021 0.235583 0.227332 0.219155 0.228869 0.220875
          0.21013 0.199515 0.187658 0.21012 0.210101 0.199505 0.187648 0.199486 0.187629 0.174559 0.16022 0.144641
          0.174552 0.160217 0.174534 0.160202 0.144643 0.144634 0.210075 0.210039 0.199457 0.187599 0.199417 0.187556
          0.209992 0.199365 0.187499 0.174504 0.160173 0.17446 0.144609 0.160129 0.144567 0.174398 0.160065 0.144504
          0.127823 0.109767 0.090471 0.0699341 0.127833 0.109786 0.127831 0.109794 0.0905026 0.0699798 0.0905241 0.0700173
          0.0481368 0.0249055 -0.00133923 0.048196 0.0482501 0.0249623 -0.00139518 0.0250213 -0.00140704 0.127814 0.109788 0.127777
          0.109762 0.0905319 0.0700433 0.0905213 0.127718 0.109711 0.0904859 0.0700535 0.0700413 0.0482965 0.0483318 0.0250815
          -0.00137071 0.0251412 -0.00128258 0.0483503 0.0251975 -0.00114003 0.209935 0.209866 0.1993 0.187427 0.199221 0.187338
          0.209786 0.209698 0.19913 0.187233 0.199027 0.187114 0.174319 0.15998 0.174219 0.15987 0.144414 0.144296
          0.1741 0.159735 0.173963 0.144146 0.159578 0.143965 0.20962 0.198935 0.187006 0.209726 0.211595 0.199044
          0.18711 0.201026 0.189163 0.173835 0.159424 0.143781 0.173924 0.159489 0.176001 0.161538 0.143808 0.145771
          0.127628 0.109628 0.127504 0.109503 0.090417 0.0699974 0.0903027 0.0699078 0.127339 0.109329 0.127134 0.109098
          0.0901281 0.0697518 0.0898793 0.0483436 0.048298 0.0252448 -0.000942232 0.0252738 -0.000692061 0.0481903 0.069503 0.0479831
          0.0252663 -0.000400946 0.0251848 -0.000102719 0.126912 0.108833 0.0895658 0.069148 0.126886 0.108732 0.128698 0.110323
          0.0893647 0.0688203 0.0906574 0.0697345 0.0476275 0.0249516 0.000113913 0.047174 0.0476427 0.0244955 0.00010709 0.0245363
          0.000206921
        </DataArray>
        <DataArray type="Float32" Name="rho" NumberOfComponents="1" format="ascii">
          1 1 1 1 1 1 1 1 1 1 1 1
          1 1 1 1 1 1 1 1 1 1 1 1
          1 1 1 1 1 1 1 1 1 1 1 1
          1 1 1 1 1 1 1 1 1 1 1 1
          1 1 1 1 1 1 1 1 1 1 1 1
          1 1 1 1 1 1 1 1 1 1 1 1
          1 1 1 1 1 1 1 1 1 1 1 1
          1 1 1 1 1 1 1 1 1 1 1 1
          1 1 1 1 1 1 1 1 1 1 1 1
          1 1 1 1 1 1 1 1 1 1 1 1
          1 1 1 1 1 1 1 1 1 1 1 1
          1 1 1 1 1 1 1 1 1 1 1 1
          1 1 1 1 1 1 1 1 1 1 1 1
          1 1 1 1 1 1 1 1 1 1 1 1
          1 1 1 1 1 1 1 1 1 1 1 1
          1 1 1 1 1 1 1 1 1 1 1 1
          1 1 1 1 1 1 1 1 1 1 1 1
          1 1 1 1 1 1 1 1 1 1 1 1
          1 1 1 1 1 1 1 1 1 1 1 1
          1 1 1 1 1 1 1 1 1 1 1 1
          1 1 1 1 1 1 1 1 1 1 1 1
          1 1 1 1 1 1 1 1 1 1 1 1
          1 1 1 1 1 1 1 1 1 1 1 1
          1 1 1 1 1 1 1 1 1 1 1 1
          1 1 1 1 1 1 1 1 1 1 1 1
          1 1 1 1 1 1 1 1 1 1 1 1
          1 1 1 1 1 1 1 1 1 1 1 1
          1 1 1 1 1 1 1 1 1 1 1 1
          1 1 1 1 1 1 1 1 1 1 1 1
          1 1 1 1 1 1 1 1 1 1 1 1
          1 1 1 1 1 1 1 1 1 1 1 1
          1 1 1 1 1 1 1 1 1 1 1 1
          1 1 1 1 1 1 1 1 1 1 1 1
          1 1 1 1 1 1 1 1 1 1 1 1
          1 1 1 1 1 1 1 1 1 1 1 1
          1 1 1 1 1 1 1 1 1 1 1 1
          1 1 1 1 1 1 1 1 1 1 1 1
          1 1 1 1 1 1 1 1 1 1 1 1
          1 1 1 1 1 1 1 1 1 1 1 1
          1 1 1 1 1 1 1 1 1 1 1 1
          1 1 1 1 1 1 1 1 1 1 1 1
          1 1 1 1 1 1 1 1 1 1 1 1
          1 1 1 1 1 1 1 1 1 1 1 1
          1 1 1 1 1 1 1 1 1 1 1 1
          1 1 1 1 1 1 1 1 1 1 1 1
          1 1 1 1 1 1 1 1 1 1 1 1
          1 1 1 1 1 1 1 1 1 1 1 1
          1 1 1 1 1 1 1 1 1 1 1 1
          1 1 1 1 1 1 1 1 1 1 1 1
          1 1 1 1 1 1 1 1 1 1 1 1
          1 1 1 1 1 1 1 1 1 1 1 1
          1 1 1 1 1 1 1 1 1 1 1 1
          1 1 1 1 1 1 1 1 1 1 1 1
          1 1 1 1 1 1 1 1 1 1 1 1
          1 1 1 1 1 1 1 1 1 1 1 1
          1 1 1 1 1 1 1 1 1 1 1 1
          1 1 1 1 1 1 1 1 1 1 1 1
          1 1 1 1 1 1 1 1 1 1 1 1
          1 1 1 1 1 1 1 1 1 1 1 1
          1 1 1 1 1 1 1 1 1 1 1 1
          1 1 1 1 1 1 1 1 1 1 1 1
          1 1 1 1 1 1 1 1 1 1 1 1
          1 1 1 1 1 1 1 1 1 1 1 1
          1 1 1 1 1 1 1 1 1 1 1 1
          1 1 1 1 1 1 1 1 1 1 1 1
          1 1 1 1 1 1 1 1 1 1 1 1
          1 1 1 1 1 1 1 1 1 1 1 1
          1 1 1 1 1 1 1 1 1 1 1 1
          1 1 1 1 1 1 1 1 1 1 1 1
          1 1 1 1 1 1 1 1 1 1 1 1
          1 1 1 1 1 1 1 1 1 1 1 1
          1 1 1 1 1 1 1 1 1 1 1 1
          1 1 1 1 1 1 1 1 1 1 1 1
          1 1 1 1 1 1 1 1 1 1 1 1
          1 1 1 1 1 1 1 1 1 1 1 1
          1 1 1 1 1 1 1 1 1 1 1 1
          1 1 1 1 1 1 1 1 1 1 1 1
          1 1 1 1 1 1 1 1 1 1 1 1
          1 1 1 1 1 1 1 1 1 1 1 1
          1 1 1 1 1 1 1 1 1 1 1 1
          1 1 1 1 1 1 1 1 1 1 1 1
          1 1 1 1 1 1 1 1 1 1 1 1
          1 1 1 1 1 1 1 1 1 1 1 1
          1 1 1 1 1 1 1 1 1 1 1 1
          1 1 1 1 1 1 1 1 1 1 1 1
          1 1 1 1 1 1 1 1 1 1 1 1
          1 1 1 1 1 1 1 1 1 1 1 1
          1 1 1 1 1 1 1 1 1 1 1 1
          1 1 1 1 1 1 1 1 1 1 1 1
          1 1 1 1 1 1 1 1 1 1 1 1
          1 1 1 1 1 1 1 1 1 1 1 1
          1 1 1 1 1 1 1 1 1 1 1 1
          1 1 1 1 1 1 1 1 1 1 1 1
          1 1 1 1 1 1 1 1 1 1 1 1
          1 1 1 1 1 1 1 1 1 1 1 1
          1 1 1 1 1 1 1 1 1 1 1 1
          1 1 1 1 1 1 1 1 1 1 1 1
          1 1 1 1 1 1 1 1 1 1 1 1
          1 1 1 1 1 1 1 1 1 1 1 1
          1 1 1 1 1 1 1 1 1 1 1 1
          1 1 1 1 1 1 1 1 1 1 1 1
          1 1 1 1 1 1 1 1 1 1 1 1
          1 1 1 1 1 1 1 1 1 1 1 1
          1 1 1 1 1 1 1 1 1 1 1 1
          1 1 1 1 1 1 1 1 1 1 1 1
          1 1 1 1 1 1 1 1 1 1 1 1
          1 1 1 1 1 1 1 1 1 1 1 1
          1 1 1 1 1 1 1 1 1 1 1 1
          1 1 1 1 1 1 1 1 1 1 1 1
          1 1 1 1 1 1 1 1 1 1 1 1
          1 1 1 1 1 1 1 1 1 1 1 1
          1 1 1 1 1 1 1 1 1 1 1 1
          1 1 1 1 1 1 1 1 1 1 1 1
          1 1 1 1 1 1 1 1 1 1 1 1
          1 1 1 1 1 1 1 1 1 1 1 1
          1 1 1 1 1 1 1 1 1 1 1 1
          1 1 1 1 1 1 1 1 1 1 1 1
          1 1 1 1 1 1 1 1 1 1 1 1
          1 1 1 1 1 1 1 1 1 1 1 1
          1 1 1 1 1 1 1 1 1 1 1 1
          1 1 1 1 1 1 1 1 1 1 1 1
          1 1 1 1 1 1 1 1 1 1 1 1
          1 1 1 1 1 1 1 1 1 1 1 1
          1 1 1 1 1 1 1 1 1 1 1 1
          1 1 1 1 1 1 1 1 1 1 1 1
          1 1 1 1 1 1 1 1 1 1 1 1
          1 1 1 1 1 1 1 1 1 1 1 1
          1 1 1 1 1 1 1 1 1 1 1 1
          1 1 1 1 1 1 1 1 1 1 1 1
          1 1 1 1 1 1 1 1 1 1 1 1
          1 1 1 1 1 1 1 1 1 1 1 1
          1 1 1 1 1 1 1 1 1 1 1 1
          1 1 1 1 1 1 1 1 1 1 1 1
          1 1 1 1 1 1 1 1 1 1 1 1
          1 1 1 1 1 1 1 1 1 1 1 1
          1 1 1 1 1 1 1 1 1 1 1 1
          1 1 1 1 1 1 1 1 1 1 1 1
          1 1 1 1 1 1 1 1 1 1 1 1
          1 1 1 1 1 1 1 1 1 1 1 1
          1 1 1 1 1 1 1 1 1 1 1 1
          1
        </DataArray>
        <DataArray type="Float32" Name="pressureExact" NumberOfComponents="1" format="ascii">
          0.024375 0.024375 0 0 0.0475 0.024375 0.0475 0.069375 0.069375 0.0475 0.069375 0
          0.024375 0 0.0475 0.069375 0.09 0.09 0.109375 0.109375 0.09 0.109375 0.1275 0.1275
          0.144375 0.1275 0.09 0.109375 0.1275 0.144375 0.144375 0 0.024375 0.0475 0.024375 0
          0.0475 0.069375 0.069375 0.024375 0 0.0475 0.024375 0.069375 0.0475 0.069375 0.09 0.109375
          0.09 0.109375 0.1275 0.144375 0.1275 0.144375 0.09 0.109375 0.09 0.109375 0.1275 0.144375
          0.1275 0.144375 0.16 0.16 0.16 0.174375 0.174375 0.1875 0.1875 0.174375 0.1875 0.16
          0.174375 0.1875 0.199375 0.199375 0.21 0.199375 0.21 0.219375 0.219375 0.21 0.219375 0.199375
          0.21 0.219375 0.16 0.16 0.174375 0.1875 0.174375 0.1875 0.16 0.144375 0.16 0.174375
          0.1875 0.174375 0.1875 0.199375 0.21 0.199375 0.21 0.219375 0.219375 0.199375 0.21 0.199375
          0.219375 0.21 0.219375 0 0.024375 0 0.0475 0.069375 0 0.024375 0.0475 0.024375
          0 0.0475 0.069375 0.069375 0.09 0.109375 0.1275 0.144375 0.09 0.109375 0.09 0.109375
          0.1275 0.144375 0.1275 0.144375 0.024375 0 0.0475 0.024375 0.069375 0.0475 0.069375 0
          0.024375 0 0.0475 0.069375 0.09 0.109375 0.09 0.109375 0.1275 0.144375 0.1275 0.09
          0.109375 0.1275 0.144375 0.144375 0.16 0.174375 0.1875 0.16 0.16 0.174375 0.1875 0.174375
          0.1875 0.199375 0.21 0.219375 0.199375 0.21 0.199375 0.21 0.219375 0.219375 0.16 0.16
          0.174375 0.1875 0.174375 0.1875 0.16 0.174375 0.1875 0.199375 0.21 0.199375 0.219375 0.21
          0.219375 0.199375 0.21 0.219375 0.2275 0.2275 0.234375 0.234375 0.2275 0.234375 0.24 0.24
          0.244375 0.24 0.2275 0.234375 0.24 0.244375 0.244375 0.244375 0.2475 0.2475 0.2475 0.249375
          0.249375 0.25 0.25 0.249375 0.25 0.2475 0.249375 0.25 0.2275 0.234375 0.2275 0.234375
          0.24 0.244375 0.24 0.244375 0.2275 0.234375 0.2275 0.234375 0.24 0.244375 0.24 0.2475
          0.2475 0.249375 0.25 0.249375 0.25 0.2475 0.244375 0.2475 0.249375 0.25 0.249375 0.25
          0.249375 0.249375 0.2475 0.249375 0.2475 0.244375 0.244375 0.2475 0.244375 0.249375 0.2475 0.244375
          0.24 0.24 0.234375 0.234375 0.24 0.234375 0.2275 0.2275 0.219375 0.2275 0.24 0.234375
          0.2275 0.219375 0.219375 0.249375 0.2475 0.249375 0.2475 0.244375 0.244375 0.249375 0.2475 0.249375
          0.244375 0.2475 0.244375 0.24 0.234375 0.24 0.234375 0.2275 0.219375 0.2275 0.219375 0.24
          0.234375 0.24 0.234375 0.2275 0.219375 0.2275 0.2275 0.234375 0.24 0.244375 0.2275 0.234375
          0.2275 0.234375 0.24 0.244375 0.24 0.244375 0.2475 0.249375 0.25 0.2475 0.2475 0.249375
          0.25 0.249375 0.25 0.2275 0.234375 0.2275 0.234375 0.24 0.244375 0.24 0.2275 0.234375
          0.24 0.244375 0.244375 0.2475 0.2475 0.249375 0.25 0.249375 0.25 0.2475 0.249375 0.25
          0.249375 0.2475 0.244375 0.249375 0.2475 0.249375 0.2475 0.244375 0.244375 0.24 0.234375 0.2275
          0.219375 0.219375 0.24 0.234375 0.24 0.234375 0.2275 0.219375 0.2275 0.219375 0.249375 0.2475
          0.249375 0.244375 0.2475 0.244375 0.249375 0.2475 0.244375 0.24 0.234375 0.24 0.234375 0.2275
          0.219375 0.2275 0.24 0.234375 0.2275 0.219375 0.219375 0 0.024375 0.0475 0.024375 0
          0.0475 0.069375 0.069375 0.024375 0 0.0475 0.024375 0.069375 0.0475 0.069375 0.09 0.109375
          0.09 0.109375 0.1275 0.144375 0.1275 0.144375 0.09 0.109375 0.09 0.109375 0.1275 0.144375
          0.1275 0 0.024375 0 0.0475 0.069375 0 0.024375 0.0475 0.024375 0 0.0475
          0.069375 0.069375 0.09 0.109375 0.1275 0.144375 0.144375 0.09 0.109375 0.09 0.109375 0.1275
          0.144375 0.1275 0.144375 0.16 0.16 0.174375 0.1875 0.174375 0.1875 0.16 0.16 0.174375
          0.1875 0.174375 0.1875 0.199375 0.21 0.199375 0.21 0.219375 0.219375 0.199375 0.21 0.199375
          0.219375 0.21 0.219375 0.16 0.174375 0.1875 0.16 0.16 0.174375 0.1875 0.174375 0.1875
          0.199375 0.21 0.219375 0.199375 0.21 0.199375 0.21 0.219375 0.219375 0.024375 0 0.0475
          0.024375 0.069375 0.0475 0.069375 0 0.024375 0 0.0475 0.069375 0.09 0.109375 0.09
          0.109375 0.1275 0.144375 0.1275 0.09 0.109375 0.1275 0.144375 0.144375 0 0.024375 0.0475
          0.024375 0 0.0475 0.069375 0.069375 0.024375 0 0.0475 0.024375 0.069375 0.0475 0.069375
          0.09 0.109375 0.09 0.109375 0.1275 0.144375 0.1275 0.144375 0.09 0.109375 0.09 0.109375
          0.1275 0.144375 0.1275 0.16 0.16 0.174375 0.1875 0.174375 0.1875 0.16 0.174375 0.1875
          0.199375 0.21 0.199375 0.219375 0.21 0.219375 0.199375 0.21 0.219375 0.16 0.16 0.174375
          0.1875 0.174375 0.1875 0.16 0.144375 0.16 0.174375 0.1875 0.174375 0.1875 0.199375 0.21
          0.199375 0.21 0.219375 0.219375 0.199375 0.21 0.199375 0.219375 0.21 0.219375 0.2275 0.234375
          0.2275 0.234375 0.24 0.244375 0.24 0.244375 0.2275 0.234375 0.2275 0.234375 0.24 0.244375
          0.24 0.2475 0.2475 0.249375 0.25 0.249375 0.25 0.2475 0.244375 0.2475 0.249375 0.25
          0.249375 0.25 0.2275 0.234375 0.24 0.244375 0.2275 0.234375 0.2275 0.234375 0.24 0.244375
          0.24 0.244375 0.2475 0.249375 0.25 0.2475 0.2475 0.249375 0.25 0.249375 0.25 0.249375
          0.2475 0.249375 0.2475 0.244375 0.244375 0.249375 0.2475 0.249375 0.244375 0.2475 0.244375 0.24
          0.234375 0.24 0.234375 0.2275 0.219375 0.2275 0.219375 0.24 0.234375 0.24 0.234375 0.2275
          0.219375 0.2275 0.249375 0.2475 0.244375 0.249375 0.2475 0.249375 0.2475 0.244375 0.244375 0.24
          0.234375 0.2275 0.219375 0.219375 0.24 0.234375 0.24 0.234375 0.2275 0.219375 0.2275 0.219375
          0.2275 0.234375 0.2275 0.234375 0.24 0.244375 0.24 0.2275 0.234375 0.24 0.244375 0.244375
          0.2475 0.2475 0.249375 0.25 0.249375 0.25 0.2475 0.249375 0.25 0.2275 0.234375 0.2275
          0.234375 0.24 0.244375 0.24 0.244375 0.2275 0.234375 0.2275 0.234375 0.24 0.244375 0.24
          0.2475 0.2475 0.249375 0.25 0.249375 0.25 0.2475 0.244375 0.2475 0.249375 0.25 0.249375
          0.25 0.249375 0.2475 0.249375 0.244375 0.2475 0.244375 0.249375 0.2475 0.244375 0.24 0.234375
          0.24 0.234375 0.2275 0.219375 0.2275 0.24 0.234375 0.2275 0.219375 0.219375 0.249375 0.2475
          0.249375 0.2475 0.244375 0.244375 0.249375 0.2475 0.249375 0.244375 0.2475 0.244375 0.24 0.234375
          0.24 0.234375 0.2275 0.219375 0.2275 0.219375 0.24 0.234375 0.24 0.234375 0.2275 0.219375
          0.2275 0.219375 0.21 0.21 0.21 0.199375 0.199375 0.1875 0.1875 0.199375 0.1875 0.21
          0.199375 0.1875 0.174375 0.174375 0.16 0.174375 0.16 0.144375 0.144375 0.16 0.144375 0.174375
          0.16 0.144375 0.21 0.21 0.199375 0.1875 0.199375 0.1875 0.21 0.21 0.199375 0.1875
          0.199375 0.1875 0.174375 0.16 0.174375 0.16 0.144375 0.144375 0.174375 0.16 0.174375 0.144375
          0.16 0.144375 0.1275 0.1275 0.109375 0.109375 0.1275 0.109375 0.09 0.09 0.069375 0.09
          0.1275 0.109375 0.09 0.069375 0.069375 0.069375 0.0475 0.0475 0.0475 0.024375 0.024375 0
          0 0.024375 0 0.0475 0.024375 0 0.1275 0.109375 0.1275 0.109375 0.09 0.069375
          0.09 0.069375 0.1275 0.109375 0.1275 0.109375 0.09 0.069375 0.09 0.0475 0.0475 0.024375
          0 0.024375 0 0.0475 0.069375 0.0475 0.024375 0 0.024375 0 0.21 0.199375
          0.1875 0.21 0.21 0.199375 0.1875 0.199375 0.1875 0.174375 0.16 0.144375 0.174375 0.16
          0.174375 0.16 0.144375 0.144375 0.21 0.21 0.199375 0.1875 0.199375 0.1875 0.21 0.199375
          0.1875 0.174375 0.16 0.174375 0.144375 0.16 0.144375 0.174375 0.16 0.144375 0.1275 0.109375
          0.09 0.069375 0.1275 0.109375 0.1275 0.109375 0.09 0.069375 0.09 0.069375 0.0475 0.024375
          0 0.0475 0.0475 0.024375 0 0.024375 0 0.1275 0.109375 0.1275 0.109375 0.09