<?xml version="1.0"?>
<VTKFile type="UnstructuredGrid" version="0.1" byte_order="LittleEndian">
  <UnstructuredGrid>
    <Piece NumberOfCells="3200" NumberOfPoints="1681">
      <PointData Scalars="p">
        <DataArray type="Float32" Name="p" NumberOfComponents="1" format="ascii">
          0.0243155 0.0260087 0 -0.00174705 -0.00306843 0.0249994 0.0474462 0.0467628 0.0504533 0.0683437 0.07344 0.0886157
          0.0698879 0.0907099 0.0693181 0.089794 0.0694682 0.046874 0.0466774 0.0252936 -0.0041785 0.0256464 -0.00499223 0.0464653
          0.025936 -0.00558794 0.0261766 -0.00597502 -0.0061764 0.0263598 0.0462428 0.0463302 0.0694955 0.0695329 0.0896841 0.0694503
          0.0897335 0.0897747 0.0899437 0.109487 0.109318 0.10931 0.109334 0.127444 0.127428 0.127392 0.144318 0.14437
          0.144327 0.127654 0.144578 0.109187 0.127266 0.144104 0.128557 0.145519 0.110297 0.107701 0.0948791 0.11485
          0.125585 0.133362 0.142277 0.150438 0.157775 0.166096 0.172079 0.161184 0.175559 0.159687 0.160225 0.174024
          0.174608 0.187114 0.187726 0.18865 0.185187 0.180354 0.193226 0.197095 0.204729 0.20046 0.210995 0.207801
          0.214877 0.2173 0.223686 0.225589 0.220258 0.228253 0.218924 0.227042 0.219524 0.209564 0.210183 0.19896
          0.199584 0.187433 0.199293 0.209901 0.22761 0.219257 0.227364 0.210009 0.21937 0.227479 0.219317 0.227431
          0.209951 0.199393 0.199333 0.187523 0.18746 0.174396 0.174335 0.160009 0.17432 0.15995 0.159949 0.159943
          0.174335 0.159927 0.144313 0.144302 0.144302 0.159922 0.174314 0.174318 0.187443 0.187447 0.187464 0.199342
          0.199326 0.20995 0.209964 0.219334 0.227452 0.219322 0.227442 0.219323 0.227445 0.209949 0.199323 0.199318
          0.187439 0.187438 0.199317 0.209943 0.209945 0.21932 0.227443 0.219319 0.227443 0.219318 0.227443 0.219319
          0.209943 0.209944 0.199317 0.187439 0.199319 0.187442 0.174315 0.174312 0.17432 0.159928 0.159923 0.174311
          0.15992 0.144304 0.144311 0.159935 0.14432 0.144331 0.127392 0.127378 0.109361 0.10938 0.127408 0.109398
          0.0897378 0.0897044 0.0897765 0.0697128 0.0696983 0.109344 0.089678 0.0696764 0.0896606 0.0696477 0.109329 0.127369
          0.127364 0.127366 0.109317 0.109312 0.127378 0.0896621 0.0896542 0.0695745 0.0696132 0.0462024 0.0462372 0.0462026
          0.0264865 -0.00620948 0.0265575 -0.00609163 0.0265749 -0.00583901 0.0265416 -0.00546707 -0.0049906 0.0264609 0.0463923 0.046302
          0.0697195 0.046504 0.0466335 0.0263365 -0.00442391 0.0261725 -0.00378084 0.0467772 0.0259732 -0.0030749 0.025743 -0.00231931
          -0.00152699 0.0254866 0.0470945 0.0469318 0.069709 0.0696922 0.0899101 0.0697182 0.0898639 0.089819 0.109415 0.144343
          0.127427 0.109431 0.127446 0.144356 0.144368 0.127466 0.109445 0.0899566 0.0900023 0.0696681 0.109457 0.109465
          0.127486 0.144379 0.14439 0.127504 0.144398 0.127521 0.109471 0.0900464 0.0696372 0.0696001 0.0474321 0.0476017
          0.0472621 0.0252086 -0.000710664 0.0249139 0.000117143 0.0246073 0.000944092 0.0242938 0.00175801 0.00254687 0.0239783 0.0479299
          0.0477684 0.0695574 0.0900882 0.0695098 0.0901271 0.0694581 0.0901624 0.0694031 0.0480837 0.0482275 0.0236657 0.00329881
          0.0233611 0.00400207 0.0483592 0.0230695 0.00464514 0.022796 0.00521644 0.00570505 0.0225458 0.0485782 0.0484767 0.069287
          0.0692281 0.0902579 0.0693458 0.0902416 0.0902201 0.0901935 0.109462 0.109451 0.109421 0.109438 0.127577 0.127575
          0.127576 0.1444 0.144407 0.144412 0.127569 0.144414 0.109469 0.127561 0.144413 0.12755 0.144411 0.109473
          0.109474 0.127537 0.144406 0.160001 0.160008 0.17437 0.159993 0.174366 0.17436 0.187476 0.187472 0.187479
          0.174372 0.187481 0.187482 0.174373 0.160012 0.160015 0.160015 0.174372 0.160014 0.16001 0.174363 0.174368
          0.187473 0.187478 0.187481 0.199346 0.199346 0.209961 0.20996 0.199344 0.199341 0.199336 0.209951 0.209956
          0.219324 0.219318 0.227438 0.219327 0.227443 0.21933 0.227447 0.209962 0.219331 0.22745 0.219331 0.227451
          0.209961 0.199345 0.199343 0.20996 0.19934 0.209958 0.21933 0.227451 0.219329 0.227451 0.219327 0.22745
          0.209955 0.209953 0.219325 0.227449 0.219323 0.227448 0.20995 0.199333 0.199329 0.187456 0.187462 0.199336
          0.187467 0.174354 0.174347 0.159985 0.159975 0.159964 0.17434 0.187451 0.174333 0.187446 0.174326 0.159944
          0.159954 0.209945 0.199321 0.199325 0.209947 0.219321 0.227446 0.21932 0.227445 0.227444 0.227443 0.234318
          0.234318 0.23432 0.234319 0.239943 0.239943 0.239944 0.244318 0.244318 0.244317 0.239942 0.244316 0.234317
          0.239941 0.244314 0.247439 0.247441 0.249315 0.247437 0.249313 0.24931 0.249937 0.249939 0.249316 0.249941
          0.249942 0.249317 0.247442 0.247443 0.244319 0.247443 0.247444 0.249318 0.249943 0.249943 0.249318 0.249943
          0.249319 0.247444 0.244319 0.24432 0.239945 0.239946 0.234322 0.234323 0.234321 0.239945 0.234323 0.234323
          0.239946 0.24432 0.244319 0.239946 0.239945 0.244318 0.244317 0.239943 0.234322 0.234321 0.234318 0.234309
          0.234315 0.239937 0.239941 0.239932 0.244306 0.244311 0.244315 0.247441 0.247443 0.249316 0.247439 0.249314
          0.247436 0.247431 0.249307 0.249311 0.249933 0.249937 0.249939 0.249941 0.249317 0.249942 0.249318 0.249943
          0.247443 0.247444 0.249318 0.249943 0.249318 0.249319 0.249318 0.247443 0.247444 0.247444 0.244319 0.24432
          0.239945 0.244319 0.239945 0.244318 0.239944 0.244318 0.247443 0.247442 0.249317 0.249316 0.247441 0.249315
          0.249313 0.24931 0.247437 0.247439 0.244316 0.244314 0.239941 0.244317 0.239942 0.239943 0.239943 0.234319
          0.234318 0.234317 0.234318 0.227443 0.227444 0.227443 0.219318 0.219319 0.21932 0.227445 0.219321 0.23432
          0.227446 0.219323 0.227448 0.219325 0.234321 0.234322 0.239946 0.234323 0.227449 0.22745 0.219327 0.219329
          0.227451 0.21933 0.234323 0.234323 0.227451 0.219331 0.227451 0.219331 0.234322 0.239946 0.239945 0.244318
          0.239946 0.244319 0.24432 0.247444 0.247443 0.249318 0.249318 0.249317 0.247443 0.244317 0.247441 0.244315
          0.239943 0.247439 0.249316 0.249314 0.249311 0.247436 0.249933 0.249307 0.247431 0.244311 0.239941 0.244306
          0.239937 0.239932 0.234315 0.234318 0.234321 0.22745 0.227447 0.21933 0.219327 0.227443 0.219324 0.234309
          0.227438 0.219318 0.227431 0.219311 0.234302 0.239925 0.2443 0.234293 0.239916 0.244291 0.239905 0.244281
          0.234281 0.227421 0.227409 0.219301 0.219289 0.227394 0.219274 0.234265 0.234246 0.227373 0.219252 0.227355
          0.219237 0.234225 0.239872 0.239848 0.244223 0.239889 0.24425 0.244265 0.247392 0.247408 0.247379 0.247351
          0.249261 0.249231 0.249863 0.249893 0.249271 0.249901 0.249286 0.249915 0.249294 0.249922 0.249929 0.249302
          0.247425 0.247417 0.249306 0.247434 0.249301 0.249295 0.247425 0.247429 0.244308 0.244306 0.244312 0.23994
          0.234317 0.234315 0.234316 0.239937 0.239936 0.239929 0.244297 0.239933 0.234318 0.234311 0.234294 0.239906
          0.244297 0.244269 0.247412 0.247383 0.249277 0.247414 0.249283 0.249247 0.249865 0.249258 0.247401 0.249172
          0.247305 0.249791 0.24926 0.24984 0.249 0.24743 0.244352 0.247094 0.243945 0.244192 0.244296 0.239941
          0.239831 0.234222 0.234335 0.234443 0.233919 0.240023 0.239553 0.240455 0.244667 0.234985 0.232664 0.231168
          0.237337 0.238519 0.242206 0.24315 0.245789 0.246553 0.248098 0.248723 0.247625 0.24933 0.249662 0.249785
          0.249655 0.249145 0.248943 0.249343 0.247504 0.248993 0.246957 0.247784 0.24484 0.244971 0.240963 0.240901
          0.243678 0.239159 0.244179 0.239859 0.244099 0.247252 0.24726 0.24908 0.249174 0.247289 0.249163 0.249225
          0.247337 0.244201 0.244168 0.239818 0.2398 0.239693 0.234042 0.234186 0.234187 0.22731 0.227324 0.219186
          0.219216 0.227145 0.219004 0.234291 0.227475 0.219409 0.22641 0.218184 0.233403 0.235567 0.235885 0.229617
          0.228966 0.22217 0.221091 0.213557 0.211938 0.203788 0.201501 0.208726 0.198037 0.210092 0.209619 0.199523
          0.198988 0.187703 0.187116 0.186122 0.189778 0.192872 0.180825 0.176753 0.167647 0.172974 0.158615 0.162445
          0.15337 0.146794 0.137952 0.129916 0.142997 0.126232 0.144687 0.127893 0.144012 0.160301 0.159642 0.174623
          0.173994 0.187405 0.174301 0.159962 0.127217 0.14434 0.127547 0.15987 0.144242 0.127443 0.144318 0.12752
          0.159942 0.174219 0.174289 0.187334 0.1874 0.199197 0.199259 0.209815 0.199255 0.20986 0.209872 0.209884
          0.209907 0.199268 0.187406 0.18743 0.199292 0.187443 0.199305 0.209921 0.209934 0.199318 0.209943 0.199328
          0.209951 0.209956 0.199336 0.199341 0.187473 0.187478 0.187466 0.187457 0.174345 0.174331 0.159994 0.159981
          0.160003 0.174355 0.174363 0.174368 0.160014 0.16001 0.1444 0.144407 0.14439 0.127576 0.144378 0.127572
          0.144362 0.127565 0.144348 0.127553 0.159969 0.144319 0.127543 0.159943 0.174318 0.174293 0.127517 0.1093
          0.109336 0.109297 0.0902448 0.0902498 0.0689612 0.0689499 0.0690143 0.0902679 0.0690587 0.0902708 0.109356 0.109381
          0.109402 0.127577 0.109421 0.109438 0.0902579 0.0902682 0.0902416 0.069287 0.0692281 0.0691695 0.0902737 0.0691138
          0.0487252 0.048765 0.022136 0.048661 0.0223234 0.0485782 0.0484767 0.0225458 0.022796 0.00570505 0.00521644 0.00609911
          0.00638963 0.0219842 0.0065617 0.021884 0.006615 0.0218168 0.0487882 0.0487723 0.0487647 0.0218425 0.00651717 0.00630982
          0.00587292 0.0218454 0.0486545 0.0220952 0.0486891 0.00544372 0.0220266 0.00450346 0.0228236 0.0483217 0.0686961 0.0487451
          0.0693183 0.068978 0.0688689 0.0901702 0.090269 0.109318 0.109215 0.108993 0.109659 0.0899433 0.0905655 0.089065
          0.0680163 0.108073 0.111542 0.121514 0.103818 0.0922349 0.0853839 0.0708125 0.0651482 0.0496719 0.0451809 0.0243186
          0.0474435 0.0220872 0.0041154 0.00220887 0.00293074 0.0213057 -0.000173423 -0.00442391 -0.00378084 0.0261725 0.0263365 0.0466335
          0.0259732 0.0467772 -0.0030749 0.025743 -0.00231931 0.0254866 0.0469318 0.069709 0.0470945 0.0696922 0.0697182 0.0697195
          0.046504 0.0697128 0.0897765 0.0897378 0.089819 0.109415 0.109398 0.10938 0.127408 0.127392 0.144331 0.127427
          0.144343 0.109431 0.127446 0.144356 0.127466 0.109445 0.0898639 0.0899101 0.0899566 0.0696681 0.109457 0.127486
          0.144368 0.144379 0.109465 0.127504 0.14439 0.127521 0.144398 0.109471 0.0900023 0.0900464 0.0696372 0.0696001
          0.0474321 0.0476017 0.0249139 0.0472621 0.0252086 -0.00152699 -0.000710664 0.000117143 0.0246073 0.000944092 0.0242938 0.00175801
          0.0239783 0.0477684 0.0695574 0.0695098 0.0479299 0.0480837 0.0694581 0.0236657 0.00254687 0.00329881 0.00400207 0.0233611
          0.0482275 0.0230695 0.0483592 0.00464514 0.0693458 0.0694031 0.0901935 0.0901624 0.109462 0.109469 0.109451 0.0902201
          0.127575 0.127569 0.144412 0.127561 0.144414 0.12755 0.144413 0.127537 0.144411 0.109473 0.109474 0.0901271
          0.0900882 0.144406 0.160001 0.160008 0.159993 0.174366 0.17436 0.187476 0.187472 0.187479 0.17437 0.174372
          0.187481 0.160012 0.160015 0.160015 0.174372 0.187481 0.187482 0.174373 0.199346 0.199346 0.209961 0.199344
          0.20996 0.209962 0.209961 0.20996 0.199345 0.199343 0.19934 0.209958 0.209955 0.199336 0.209953 0.199333
          0.20995 0.209947 0.199329 0.199325 0.187456 0.187451 0.187462 0.187467 0.174354 0.174347 0.159975 0.159985
          0.159964 0.159954 0.17434 0.174333 0.187446 0.174326 0.159944 0.159935 0.14432 0.159928 0.17432 0.174315
          0.187442 0.187439 0.199319 0.199317 0.209944 0.199321 0.209945 0.209943 0.209943 0.199317 0.209945 0.219319
          0.21932 0.219323 0.209949 0.199323 0.199318 0.187443 0.187439 0.187438 0.174312 0.174311 0.15992 0.159923
          0.144311 0.127378 0.144304 0.127369 0.144302 0.127364 0.159922 0.174314 0.174318 0.187447 0.187464 0.174335
          0.159943 0.159927 0.144302 0.127366 0.144313 0.127378 0.144318 0.127392 0.14437 0.159949 0.160009 0.174335
          0.18746 0.174396 0.187523 0.199333 0.199342 0.199393 0.209951 0.209964 0.199326 0.20995 0.219322 0.219334
          0.210009 0.219317 0.21937 0.219257 0.209901 0.199293 0.187433 0.199584 0.187726 0.187114 0.19896 0.210183
          0.209564 0.219524 0.218924 0.210995 0.20046 0.207801 0.220258 0.2173 0.223686 0.214877 0.204729 0.197095
          0.193226 0.185187 0.18865 0.175559 0.174024 0.161184 0.159687 0.157775 0.172079 0.180354 0.166096 0.142277
          0.150438 0.133362 0.145519 0.125585 0.144104 0.128557 0.144578 0.127266 0.160225 0.144327 0.127654 0.15995
          0.174608 0.17432 0.127428 0.127444 0.109318 0.109334 0.10931 0.0897335 0.0896841 0.0694955 0.0694503 0.0897747
          0.109487 0.0899437 0.0694682 0.0693181 0.089794 0.109187 0.110297 0.107701 0.11485 0.0886157 0.0948791 0.07344
          0.0683437 0.0907099 0.0698879 0.0474462 0.046874 0.0249994 0.0467628 0.0504533 0.0260087 0.0243155 3.85072e-14 -0.00174705
          -0.00306843 0.0252936 -0.0041785 -0.00499223 0.0256464 -0.00558794 0.025936 0.0464653 0.0466774 0.0463302 0.0695329 0.0462428
          0.0261766 -0.00597502 0.0263598 -0.0061764 0.0264865 0.0462026 -0.00620948 -0.00609163 0.0265575 -0.00583901 0.0265749 0.0462372
          0.0462024 0.0696132 0.0696477 0.0695745 0.0896621 0.109312 0.109317 0.109329 0.0896542 0.0896606 0.089678 0.0696764
          0.0897044 0.109361 0.109344 0.0696983 0.0463923 0.0264609 0.046302 0.0265416 -0.00546707 -0.0049906 0.225589 0.231168
          0.232664 0.237337 0.234985 0.228253 0.227042 0.233919 0.240455 0.239553 0.243945 0.238519 0.244667 0.242206
          0.24315 0.245789 0.246553 0.247625 0.248098 0.248723 0.249145 0.249655 0.248943 0.249785 0.24933 0.249
          0.249662 0.247094 0.244352 0.24743 0.244192 0.240023 0.247305 0.24926 0.24984 0.249791 0.249172 0.249258
          0.247401 0.249865 0.249863 0.249247 0.247383 0.244296 0.239831 0.244269 0.239941 0.239906 0.234335 0.234222
          0.234443 0.22761 0.227364 0.227479 0.234294 0.227431 0.227452 0.234318 0.239933 0.244297 0.234311 0.239929
          0.244297 0.239936 0.244306 0.234316 0.227442 0.227445 0.227443 0.234315 0.234317 0.227443 0.23994 0.239937
          0.244312 0.244308 0.247429 0.247425 0.247434 0.249306 0.249929 0.249301 0.249922 0.249295 0.249915 0.249283
          0.249901 0.249893 0.249277 0.247412 0.247414 0.249231 0.249261 0.247379 0.249225 0.247351 0.247337 0.244223
          0.24425 0.247392 0.244265 0.244281 0.247408 0.249271 0.249286 0.249294 0.247417 0.249302 0.247425 0.2443
          0.244291 0.239916 0.239905 0.234293 0.234281 0.234302 0.239925 0.227431 0.227421 0.219311 0.227409 0.219301
          0.227394 0.219289 0.227373 0.219274 0.234246 0.234265 0.239889 0.239872 0.239848 0.244201 0.239818 0.234225
          0.234187 0.227355 0.219252 0.22731 0.219237 0.234186 0.227324 0.219186 0.227145 0.219216 0.227475 0.219004
          0.234291 0.234042 0.239693 0.2398 0.239859 0.244179 0.244099 0.244168 0.247289 0.249163 0.249174 0.24908
          0.24726 0.247252 0.243678 0.246957 0.247784 0.248993 0.249343 0.247504 0.24484 0.244971 0.240963 0.240901
          0.235885 0.235567 0.229617 0.233403 0.239159 0.22641 0.219409 0.228966 0.218184 0.22217 0.221091 0.213557
          0.211938 0.203788 0.208726 0.210092 0.198037 0.199523 0.187703 0.186122 0.201501 0.189778 0.192872 0.180825
          0.176753 0.167647 0.172974 0.162445 0.15337 0.146794 0.137952 0.142997 0.158615 0.160301 0.144687 0.174623
          0.187116 0.173994 0.187405 0.174301 0.159962 0.159642 0.144012 0.14434 0.15987 0.144242 0.144318 0.159942
          0.174219 0.187334 0.174289 0.1874 0.199197 0.199259 0.209815 0.20986 0.199255 0.198988 0.209619 0.209872
          0.209884 0.199268 0.187406 0.199292 0.209907 0.18743 0.187443 0.199305 0.209921 0.209934 0.209943 0.199328
          0.187466 0.199318 0.187457 0.174345 0.174331 0.159994 0.174355 0.160003 0.14439 0.144378 0.159981 0.144362
          0.144348 0.159969 0.144319 0.159943 0.174293 0.174318 0.12752 0.127517 0.1093 0.109297 0.127443 0.109215
          0.0902498 0.0902448 0.0901702 0.0689499 0.0689612 0.109336 0.0902679 0.0690143 0.0902708 0.0690587 0.109356 0.127543
          0.127553 0.127565 0.109381 0.109402 0.127572 0.0902682 0.0902737 0.0691695 0.0691138 0.0487252 0.048765 0.048661
          0.0223234 0.00609911 0.022136 0.00638963 0.0219842 0.0065617 0.021884 0.006615 0.00651717 0.0218168 0.0487723 0.0487882
          0.0688689 0.0487647 0.0486545 0.0218425 0.00630982 0.0218454 0.00587292 0.0486891 0.0220952 0.00544372 0.0220266 0.00450346
          0.0041154 0.0228236 0.0487451 0.0483217 0.0686961 0.0693183 0.0905655 0.068978 0.0899433 0.090269 0.109318 0.127547
          0.108993 0.127217 0.127893 0.109659 0.089065 0.0922349 0.0680163 0.108073 0.111542 0.126232 0.129916 0.121514
          0.103818 0.0853839 0.0708125 0.0651482 0.0496719 0.0451809 0.0474435 0.0220872 0.00220887 0.0243186 0.00293074 0.0213057
          -0.000173423
        </DataArray>
        <DataArray type="Float32" Name="rho" NumberOfComponents="1" format="ascii">
          1 1 1 1 1 1 1 1 1 1 1 1
          1 1 1 1 1 1 1 1 1 1 1 1
          1 1 1 1 1 1 1 1 1 1 1 1
          1 1 1 1 1 1 1 1 1 1 1 1
          1 1 1 1 1 1 1 1 1 1 1 1
          1 1 1 1 1 1 1 1 1 1 1 1
          1 1 1 1 1 1 1 1 1 1 1 1
          1 1 1 1 1 1 1 1 1 1 1 1
          1 1 1 1 1 1 1 1 1 1 1 1
          1 1 1 1 1 1 1 1 1 1 1 1
          1 1 1 1 1 1 1 1 1 1 1 1
          1 1 1 1 1 1 1 1 1 1 1 1
          1 1 1 1 1 1 1 1 1 1 1 1
          1 1 1 1 1 1 1 1 1 1 1 1
          1 1 1 1 1 1 1 1 1 1 1 1
          1 1 1 1 1 1 1 1 1 1 1 1
          1 1 1 1 1 1 1 1 1 1 1 1
          1 1 1 1 1 1 1 1 1 1 1 1
          1 1 1 1 1 1 1 1 1 1 1 1
          1 1 1 1 1 1 1 1 1 1 1 1
          1 1 1 1 1 1 1 1 1 1 1 1
          1 1 1 1 1 1 1 1 1 1 1 1
          1 1 1 1 1 1 1 1 1 1 1 1
          1 1 1 1 1 1 1 1 1 1 1 1
          1 1 1 1 1 1 1 1 1 1 1 1
          1 1 1 1 1 1 1 1 1 1 1 1
          1 1 1 1 1 1 1 1 1 1 1 1
          1 1 1 1 1 1 1 1 1 1 1 1
          1 1 1 1 1 1 1 1 1 1 1 1
          1 1 1 1 1 1 1 1 1 1 1 1
          1 1 1 1 1 1 1 1 1 1 1 1
          1 1 1 1 1 1 1 1 1 1 1 1
          1 1 1 1 1 1 1 1 1 1 1 1
          1 1 1 1 1 1 1 1 1 1 1 1
          1 1 1 1 1 1 1 1 1 1 1 1
          1 1 1 1 1 1 1 1 1 1 1 1
          1 1 1 1 1 1 1 1 1 1 1 1
          1 1 1 1 1 1 1 1 1 1 1 1
          1 1 1 1 1 1 1 1 1 1 1 1
          1 1 1 1 1 1 1 1 1 1 1 1
          1 1 1 1 1 1 1 1 1 1 1 1
          1 1 1 1 1 1 1 1 1 1 1 1
          1 1 1 1 1 1 1 1 1 1 1 1
          1 1 1 1 1 1 1 1 1 1 1 1
          1 1 1 1 1 1 1 1 1 1 1 1
          1 1 1 1 1 1 1 1 1 1 1 1
          1 1 1 1 1 1 1 1 1 1 1 1
          1 1 1 1 1 1 1 1 1 1 1 1
          1 1 1 1 1 1 1 1 1 1 1 1
          1 1 1 1 1 1 1 1 1 1 1 1
          1 1 1 1 1 1 1 1 1 1 1 1
          1 1 1 1 1 1 1 1 1 1 1 1
          1 1 1 1 1 1 1 1 1 1 1 1
          1 1 1 1 1 1 1 1 1 1 1 1
          1 1 1 1 1 1 1 1 1 1 1 1
          1 1 1 1 1 1 1 1 1 1 1 1
          1 1 1 1 1 1 1 1 1 1 1 1
          1 1 1 1 1 1 1 1 1 1 1 1
          1 1 1 1 1 1 1 1 1 1 1 1
          1 1 1 1 1 1 1 1 1 1 1 1
          1 1 1 1 1 1 1 1 1 1 1 1
          1 1 1 1 1 1 1 1 1 1 1 1
          1 1 1 1 1 1 1 1 1 1 1 1
          1 1 1 1 1 1 1 1 1 1 1 1
          1 1 1 1 1 1 1 1 1 1 1 1
          1 1 1 1 1 1 1 1 1 1 1 1
          1 1 1 1 1 1 1 1 1 1 1 1
          1 1 1 1 1 1 1 1 1 1 1 1
          1 1 1 1 1 1 1 1 1 1 1 1
          1 1 1 1 1 1 1 1 1 1 1 1
          1 1 1 1 1 1 1 1 1 1 1 1
          1 1 1 1 1 1 1 1 1 1 1 1
          1 1 1 1 1 1 1 1 1 1 1 1
          1 1 1 1 1 1 1 1 1 1 1 1
          1 1 1 1 1 1 1 1 1 1 1 1
          1 1 1 1 1 1 1 1 1 1 1 1
          1 1 1 1 1 1 1 1 1 1 1 1
          1 1 1 1 1 1 1 1 1 1 1 1
          1 1 1 1 1 1 1 1 1 1 1 1
          1 1 1 1 1 1 1 1 1 1 1 1
          1 1 1 1 1 1 1 1 1 1 1 1
          1 1 1 1 1 1 1 1 1 1 1 1
          1 1 1 1 1 1 1 1 1 1 1 1
          1 1 1 1 1 1 1 1 1 1 1 1
          1 1 1 1 1 1 1 1 1 1 1 1
          1 1 1 1 1 1 1 1 1 1 1 1
          1 1 1 1 1 1 1 1 1 1 1 1
          1 1 1 1 1 1 1 1 1 1 1 1
          1 1 1 1 1 1 1 1 1 1 1 1
          1 1 1 1 1 1 1 1 1 1 1 1
          1 1 1 1 1 1 1 1 1 1 1 1
          1 1 1 1 1 1 1 1 1 1 1 1
          1 1 1 1 1 1 1 1 1 1 1 1
          1 1 1 1 1 1 1 1 1 1 1 1
          1 1 1 1 1 1 1 1 1 1 1 1
          1 1 1 1 1 1 1 1 1 1 1 1
          1 1 1 1 1 1 1 1 1 1 1 1
          1 1 1 1 1 1 1 1 1 1 1 1
          1 1 1 1 1 1 1 1 1 1 1 1
          1 1 1 1 1 1 1 1 1 1 1 1
          1 1 1 1 1 1 1 1 1 1 1 1
          1 1 1 1 1 1 1 1 1 1 1 1
          1 1 1 1 1 1 1 1 1 1 1 1
          1 1 1 1 1 1 1 1 1 1 1 1
          1 1 1 1 1 1 1 1 1 1 1 1
          1 1 1 1 1 1 1 1 1 1 1 1
          1 1 1 1 1 1 1 1 1 1 1 1
          1 1 1 1 1 1 1 1 1 1 1 1
          1 1 1 1 1 1 1 1 1 1 1 1
          1 1 1 1 1 1 1 1 1 1 1 1
          1 1 1 1 1 1 1 1 1 1 1 1
          1 1 1 1 1 1 1 1 1 1 1 1
          1 1 1 1 1 1 1 1 1 1 1 1
          1 1 1 1 1 1 1 1 1 1 1 1
          1 1 1 1 1 1 1 1 1 1 1 1
          1 1 1 1 1 1 1 1 1 1 1 1
          1 1 1 1 1 1 1 1 1 1 1 1
          1 1 1 1 1 1 1 1 1 1 1 1
          1 1 1 1 1 1 1 1 1 1 1 1
          1 1 1 1 1 1 1 1 1 1 1 1
          1 1 1 1 1 1 1 1 1 1 1 1
          1 1 1 1 1 1 1 1 1 1 1 1
          1 1 1 1 1 1 1 1 1 1 1 1
          1 1 1 1 1 1 1 1 1 1 1 1
          1 1 1 1 1 1 1 1 1 1 1 1
          1 1 1 1 1 1 1 1 1 1 1 1
          1 1 1 1 1 1 1 1 1 1 1 1
          1 1 1 1 1 1 1 1 1 1 1 1
          1 1 1 1 1 1 1 1 1 1 1 1
          1 1 1 1 1 1 1 1 1 1 1 1
          1 1 1 1 1 1 1 1 1 1 1 1
          1 1 1 1 1 1 1 1 1 1 1 1
          1 1 1 1 1 1 1 1 1 1 1 1
          1 1 1 1 1 1 1 1 1 1 1 1
          1 1 1 1 1 1 1 1 1 1 1 1
          1 1 1 1 1 1 1 1 1 1 1 1
          1 1 1 1 1 1 1 1 1 1 1 1
          1 1 1 1 1 1 1 1 1 1 1 1
          1 1 1 1 1 1 1 1 1 1 1 1
          1 1 1 1 1 1 1 1 1 1 1 1
          1
        </DataArray>
        <DataArray type="Float32" Name="pressureExact" NumberOfComponents="1" format="ascii">
          0.024375 0.024375 0 0 0 0.024375 0.0475 0.0475 0.0475 0.069375 0.069375 0.09
          0.069375 0.09 0.069375 0.09 0.069375 0.0475 0.0475 0.024375 0 0.024375 0 0.0475
          0.024375 0 0.024375 0 0 0.024375 0.0475 0.0475 0.069375 0.069375 0.09 0.069375
          0.09 0.09 0.09 0.109375 0.109375 0.109375 0.109375 0.1275 0.1275 0.1275 0.144375 0.144375
          0.144375 0.1275 0.144375 0.109375 0.1275 0.144375 0.1275 0.144375 0.109375 0.109375 0.09 0.109375
          0.1275 0.1275 0.144375 0.144375 0.16 0.16 0.174375 0.16 0.174375 0.16 0.16 0.174375
          0.174375 0.1875 0.1875 0.1875 0.1875 0.174375 0.1875 0.199375 0.199375 0.199375 0.21 0.21
          0.21 0.219375 0.219375 0.2275 0.219375 0.2275 0.219375 0.2275 0.219375 0.21 0.21 0.199375
          0.199375 0.1875 0.199375 0.21 0.2275 0.219375 0.2275 0.21 0.219375 0.2275 0.219375 0.2275
          0.21 0.199375 0.199375 0.1875 0.1875 0.174375 0.174375 0.16 0.174375 0.16 0.16 0.16
          0.174375 0.16 0.144375 0.144375 0.144375 0.16 0.174375 0.174375 0.1875 0.1875 0.1875 0.199375
          0.199375 0.21 0.21 0.219375 0.2275 0.219375 0.2275 0.219375 0.2275 0.21 0.199375 0.199375
          0.1875 0.1875 0.199375 0.21 0.21 0.219375 0.2275 0.219375 0.2275 0.219375 0.2275 0.219375
          0.21 0.21 0.199375 0.1875 0.199375 0.1875 0.174375 0.174375 0.174375 0.16 0.16 0.174375
          0.16 0.144375 0.144375 0.16 0.144375 0.144375 0.1275 0.1275 0.109375 0.109375 0.1275 0.109375
          0.09 0.09 0.09 0.069375 0.069375 0.109375 0.09 0.069375 0.09 0.069375 0.109375 0.1275
          0.1275 0.1275 0.109375 0.109375 0.1275 0.09 0.09 0.069375 0.069375 0.0475 0.0475 0.0475
          0.024375 0 0.024375 0 0.024375 0 0.024375 0 0 0.024375 0.0475 0.0475
          0.069375 0.0475 0.0475 0.024375 0 0.024375 0 0.0475 0.024375 0 0.024375 0
          0 0.024375 0.0475 0.0475 0.069375 0.069375 0.09 0.069375 0.09 0.09 0.109375 0.144375
          0.1275 0.109375 0.1275 0.144375 0.144375 0.1275 0.109375 0.09 0.09 0.069375 0.109375 0.109375
          0.1275 0.144375 0.144375 0.1275 0.144375 0.1275 0.109375 0.09 0.069375 0.069375 0.0475 0.0475
          0.0475 0.024375 0 0.024375 0 0.024375 0 0.024375 0 0 0.024375 0.0475
          0.0475 0.069375 0.09 0.069375 0.09 0.069375 0.09 0.069375 0.0475 0.0475 0.024375 0
          0.024375 0 0.0475 0.024375 0 0.024375 0 0 0.024375 0.0475 0.0475 0.069375
          0.069375 0.09 0.069375 0.09 0.09 0.09 0.109375 0.109375 0.109375 0.109375 0.1275 0.1275
          0.1275 0.144375 0.144375 0.144375 0.1275 0.144375 0.109375 0.1275 0.144375 0.1275 0.144375 0.109375
          0.109375 0.1275 0.144375 0.16 0.16 0.174375 0.16 0.174375 0.174375 0.1875 0.1875 0.1875
          0.174375 0.1875 0.1875 0.174375 0.16 0.16 0.16 0.174375 0.16 0.16 0.174375 0.174375
          0.1875 0.1875 0.1875 0.199375 0.199375 0.21 0.21 0.199375 0.199375 0.199375 0.21 0.21
          0.219375 0.219375 0.2275 0.219375 0.2275 0.219375 0.2275 0.21 0.219375 0.2275 0.219375 0.2275
          0.21 0.199375 0.199375 0.21 0.199375 0.21 0.219375 0.2275 0.219375 0.2275 0.219375 0.2275
          0.21 0.21 0.219375 0.2275 0.219375 0.2275 0.21 0.199375 0.199375 0.1875 0.1875 0.199375
          0.1875 0.174375 0.174375 0.16 0.16 0.16 0.174375 0.1875 0.174375 0.1875 0.174375 0.16
          0.16 0.21 0.199375 0.199375 0.21 0.219375 0.2275 0.219375 0.2275 0.2275 0.2275 0.234375
          0.234375 0.234375 0.234375 0.24 0.24 0.24 0.244375 0.244375 0.244375 0.24 0.244375 0.234375
          0.24 0.244375 0.2475 0.2475 0.249375 0.2475 0.249375 0.249375 0.25 0.25 0.249375 0.25
          0.25 0.249375 0.2475 0.2475 0.244375 0.2475 0.2475 0.249375 0.25 0.25 0.249375 0.25
          0.249375 0.2475 0.244375 0.244375 0.24 0.24 0.234375 0.234375 0.234375 0.24 0.234375 0.234375
          0.24 0.244375 0.244375 0.24 0.24 0.244375 0.244375 0.24 0.234375 0.234375 0.234375 0.234375
          0.234375 0.24 0.24 0.24 0.244375 0.244375 0.244375 0.2475 0.2475 0.249375 0.2475 0.249375
          0.2475 0.2475 0.249375 0.249375 0.25 0.25 0.25 0.25 0.249375 0.25 0.249375 0.25
          0.2475 0.2475 0.249375 0.25 0.249375 0.249375 0.249375 0.2475 0.2475 0.2475 0.244375 0.244375
          0.24 0.244375 0.24 0.244375 0.24 0.244375 0.2475 0.2475 0.249375 0.249375 0.2475 0.249375
          0.249375 0.249375 0.2475 0.2475 0.244375 0.244375 0.24 0.244375 0.24 0.24 0.24 0.234375
          0.234375 0.234375 0.234375 0.2275 0.2275 0.2275 0.219375 0.219375 0.219375 0.2275 0.219375 0.234375
          0.2275 0.219375 0.2275 0.219375 0.234375 0.234375 0.24 0.234375 0.2275 0.2275 0.219375 0.219375
          0.2275 0.219375 0.234375 0.234375 0.2275 0.219375 0.2275 0.219375 0.234375 0.24 0.24 0.244375
          0.24 0.244375 0.244375 0.2475 0.2475 0.249375 0.249375 0.249375 0.2475 0.244375 0.2475 0.244375
          0.24 0.2475 0.249375 0.249375 0.249375 0.2475 0.25 0.249375 0.2475 0.244375 0.24 0.244375
          0.24 0.24 0.234375 0.234375 0.234375 0.2275 0.2275 0.219375 0.219375 0.2275 0.219375 0.234375
          0.2275 0.219375 0.2275 0.219375 0.234375 0.24 0.244375 0.234375 0.24 0.244375 0.24 0.244375
          0.234375 0.2275 0.2275 0.219375 0.219375 0.2275 0.219375 0.234375 0.234375 0.2275 0.219375 0.2275
          0.219375 0.234375 0.24 0.24 0.244375 0.24 0.244375 0.244375 0.2475 0.2475 0.2475 0.2475
          0.249375 0.249375 0.25 0.25 0.249375 0.25 0.249375 0.25 0.249375 0.25 0.25 0.249375
          0.2475 0.2475 0.249375 0.2475 0.249375 0.249375 0.2475 0.2475 0.244375 0.244375 0.244375 0.24
          0.234375 0.234375 0.234375 0.24 0.24 0.24 0.244375 0.24 0.234375 0.234375 0.234375 0.24
          0.244375 0.244375 0.2475 0.2475 0.249375 0.2475 0.249375 0.249375 0.25 0.249375 0.2475 0.249375
          0.2475 0.25 0.249375 0.25 0.249375 0.2475 0.244375 0.2475 0.244375 0.244375 0.244375 0.24
          0.24 0.234375 0.234375 0.234375 0.234375 0.24 0.24 0.24 0.244375 0.234375 0.234375 0.2275
          0.234375 0.24 0.24 0.244375 0.244375 0.2475 0.2475 0.249375 0.2475 0.249375 0.25 0.25
          0.25 0.249375 0.25 0.249375 0.249375 0.249375 0.2475 0.2475 0.2475 0.244375 0.244375 0.24
          0.244375 0.24 0.244375 0.24 0.244375 0.2475 0.2475 0.249375 0.249375 0.2475 0.249375 0.249375
          0.2475 0.244375 0.244375 0.24 0.24 0.24 0.234375 0.234375 0.234375 0.2275 0.2275 0.219375
          0.219375 0.2275 0.219375 0.234375 0.2275 0.219375 0.2275 0.219375 0.234375 0.234375 0.24 0.234375
          0.2275 0.2275 0.219375 0.219375 0.21 0.21 0.199375 0.21 0.199375 0.21 0.21 0.199375
          0.199375 0.1875 0.1875 0.1875 0.1875 0.199375 0.1875 0.174375 0.174375 0.174375 0.16 0.16
          0.16 0.144375 0.144375 0.1275 0.144375 0.1275 0.144375 0.1275 0.144375 0.16 0.16 0.174375
          0.174375 0.1875 0.174375 0.16 0.1275 0.144375 0.1275 0.16 0.144375 0.1275 0.144375 0.1275
          0.16 0.174375 0.174375 0.1875 0.1875 0.199375 0.199375 0.21 0.199375 0.21 0.21 0.21
          0.21 0.199375 0.1875 0.1875 0.199375 0.1875 0.199375 0.21 0.21 0.199375 0.21 0.199375
          0.21 0.21 0.199375 0.199375 0.1875 0.1875 0.1875 0.1875 0.174375 0.174375 0.16 0.16
          0.16 0.174375 0.174375 0.174375 0.16 0.16 0.144375 0.144375 0.144375 0.1275 0.144375 0.1275
          0.144375 0.1275 0.144375 0.1275 0.16 0.144375 0.1275 0.16 0.174375 0.174375 0.1275 0.109375
          0.109375 0.109375 0.09 0.09 0.069375 0.069375 0.069375 0.09 0.069375 0.09 0.109375 0.109375
          0.109375 0.1275 0.109375 0.109375 0.09 0.09 0.09 0.069375 0.069375 0.069375 0.09 0.069375
          0.0475 0.0475 0.024375 0.0475 0.024375 0.0475 0.0475 0.024375 0.024375 0 0 0
          0 0.024375 0 0.024375 0 0.024375 0.0475 0.0475 0.0475 0.024375 0 0
          0 0.024375 0.0475 0.024375 0.0475 0 0.024375 0 0.024375 0.0475 0.069375 0.0475
          0.069375 0.069375 0.069375 0.09 0.09 0.109375 0.109375 0.109375 0.109375 0.09 0.09 0.09