<?xml version="1.0"?>
<VTKFile type="UnstructuredGrid" version="0.1" byte_order="LittleEndian">
  <UnstructuredGrid>
    <Piece NumberOfCells="1670" NumberOfPoints="911">
      <PointData Scalars="S_aq">
        <DataArray type="Float32" Name="S_aq" NumberOfComponents="1" format="ascii">
          0.21095 0.217668 0.218014 0.157432 0.169677 0.15697 0.169833 0.291461 0.291757 0.26626 0.291298 0.265741
          0.266195 0.265812 0.157587 0.157125 0.169863 0.291663 0.170018 0.225988 0.192157 0.19589 0.200878 0.228274
          0.234382 0.239002 0.210102 0.221733 0.20379 0.211034 0.200143 0.183456 0.185468 0.244812 0.210167 0.210879
          0.203963 0.225505 0.221312 0.236248 0.255753 0.238955 0.247337 0.175779 0.18685 0.180904 0.233516 0.233763
          0.190381 0.255529 0.246031 0.225577 0.235525 0.196843 0.189101 0.157062 0.171054 0.157119 0.21061 0.200944
          0.206671 0.291802 0.291704 0.264053 0.210411 0.220723 0.214448 0.166338 0.272495 0.225837 0.196606 0.17682
          0.197345 0.204456 0.226287 0.196102 0.192001 0.218115 0.246976 0.232735 0.237949 0.180907 0.190963 0.186867
          0.291871 0.291883 0.266424 0.156882 0.169552 0.156873 0.157052 0.169719 0.157038 0.291731 0.291749 0.265948
          0.232652 0.246982 0.23813 0.191197 0.181122 0.187187 0.210174 0.217521 0.269935 0.203585 0.167666 0.19558
          0.187736 0.215975 0.25366 0.203331 0.21038 0.21725 0.226611 0.252052 0.177712 0.181281 0.252109 0.177948
          0.156805 0.220911 0.291934 0.200711 0.250254 0.217993 0.203398 0.250681 0.178603 0.270756 0.167223 0.167399
          0.270674 0.250712 0.178817 0.17551 0.200979 0.179334 0.226583 0.273912 0.195631 0.165523 0.194844 0.190701
          0.409413 0.419728 0.396865 0.43082 0.381978 0.362346 0.379506 0.360514 0.330919 0.322437 0.321989 0.307032
          0.315694 0.310349 0.310942 0.321477 0.309636 0.798984 0.67524 0.80503 0.300972 0.344522 0.363407 0.349055
          0.315063 0.349756 0.668019 0.406714 0.387894 0.421337 0.318868 0.34746 0.3636 0.354358 0.585384 0.592597
          0.585204 0.679014 0.595946 0.672112 0.488012 0.502246 0.534049 0.559127 0.483359 0.449351 0.450939 0.404393
          0.368237 0.452467 0.453662 0.343777 0.355469 0.342478 0.436252 0.473325 0.454636 0.354795 0.40516 1
          1 0.822659 0.302627 0.372658 0.889016 0.45223 0.435251 0.471755 0.52869 0.573451 0.447839 0.347504
          0.333773 0.340676 0.365173 0.301087 0.300428 0.313458 0.313108 0.330843 0.325072 0.530591 0.588395 0.517156
          0.418439 0.434515 0.582728 0.334916 0.782876 0.305848 0.814966 0.375498 0.379147 0.329962 0.698501 0.65197
          0.702472 0.373894 0.410864 0.419448 0.391667 0.389868 0.299925 0.393956 0.383184 0.348307 0.336422 0.367083
          0.391013 0.327261 0.735004 0.864763 1 1 0.832942 1 1 0.835121 0.339871 0.666797
          0.327705 0.529257 0.482972 0.520258 0.567803 0.537505 0.424237 0.4981 0.33574 0.487625 0.454616 0.492355
          0.420943 0.362452 0.703827 0.299671 0.303062 0.321701 0.310968 0.316828 0.43647 0.349016 0.312959 0.406759
          0.392903 0.478182 0.623507 0.597959 0.583398 0.620142 0.669269 0.341712 0.301292 0.741256 0.323158 0.335761
          0.327517 0.383085 0.325692 0.357216 0.435887 0.308479 0.536042 0.348059 1 0.542993 0.335586 0.298577
          0.378377 0.476403 0.376012 0.328397 0.871513 0.870996 0.298129 1 1 0.31862 0.306418 0.298096
          0.399054 0.355499 0.31233 0.328279 0.337146 0.453445 0.692855 0.410219 0.297988 0.521056 0.31988 0.895508
          0.333637 0.432082 0.301028 0.308804 0.363687 0.465021 0.318771 0.645662 0.520731 0.473124 0.365113 0.307252
          0.889098 0.895981 0.372202 0.296266 0.315822 0.879306 0.871449 0.614488 0.859958 0.694573 0.807881 0.636174
          0.571629 0.541066 0.575892 0.334031 0.346007 0.342443 0.328076 0.314043 0.302069 0.302618 0.298776 0.311037
          0.634988 0.55928 0.533101 0.500147 0.58388 0.4727 0.453475 0.43608 0.36026 0.355408 0.342249 0.299499
          0.300907 0.560145 0.499577 0.321561 0.315704 0.328299 0.341361 0.354232 0.372908 0.356054 0.341496 0.463405
          0.508434 0.301926 0.370027 0.381024 0.396589 0.487574 0.459311 0.573606 0.505331 0.546234 0.494311 0.421529
          0.424939 0.528903 0.587442 0.58761 0.58231 0.658145 0.391823 0.319508 0.323091 0.690738 0.307147 0.42768
          0.461726 0.350931 0.316226 0.652255 0.649889 0.735404 0.315874 0.338509 0.338795 0.489453 0.32709 0.313108
          0.308183 0.316957 0.309121 1 0.495058 0.626884 0.69593 0.455432 0.464286 0.447635 0.486742 0.347395
          0.341251 0.333754 0.421865 0.667084 0.711152 0.747909 0.632223 1 0.524664 0.3594 0.357113 0.321644
          0.300209 0.327778 0.582574 0.549431 0.327512 0.320052 0.307211 0.317663 0.348478 0.384509 0.403267 0.389674
          0.326527 0.327559 0.665501 0.426287 0.377452 0.329162 0.869444 0.75218 0.867468 0.831703 0.329358 0.394205
          0.734725 0.306076 0.311082 0.301229 1 1 1 0.835861 1 1 0.456743 0.53965
          0.35499 0.889225 0.862435 0.863762 0.60608 0.462404 0.321722 0.311029 0.407398 0.33236 0.438523 0.371343
          0.378434 0.391437 0.402219 0.41274 0.371232 0.31086 0.337663 0.407638 0.402166 0.410429 1 1
          0.435557 0.433577 0.362443 0.320652 0.406373 0.313816 0.423763 0.301058 0.29954 0.356138 0.356533 0.36836
          0.893008 0.519952 0.472887 0.391544 0.382619 0.363399 0.406787 0.371916 0.298206 0.348847 0.435972 0.459289
          0.321735 0.51976 0.347232 0.333556 0.420638 0.329628 0.39309 0.724075 0.299008 0.306634 0.363501 0.383014
          0.400532 0.383718 0.36805 0.382249 0.438592 0.367256 0.370445 0.307094 0.872641 0.875235 0.78226 0.784373
          0.418613 0.726326 0.520391 0.5302 0.508293 0.540599 0.493613 0.473723 0.491162 0.471834 0.440356 0.431091
          0.430568 0.414117 0.423671 0.417755 0.418487 0.430086 0.41701 0.848134 0.750359 0.853014 0.407422 0.455009
          0.474826 0.459835 0.422953 0.46057 0.744428 0.517801 0.499478 0.531703 0.427175 0.458154 0.47502 0.465411
          0.676338 0.682305 0.676216 0.753281 0.685204 0.747754 0.59249 0.605004 0.632638 0.654118 0.588363 0.557714
          0.559153 0.515563 0.479764 0.56056 0.561635 0.454243 0.46659 0.452857 0.545646 0.579408 0.56253 0.465882
          0.516314 1 1 0.866613 0.397491 0.409311 0.397524 0.484258 0.917046 0.560327 0.544709 0.577991
          0.628085 0.666171 0.556323 0.458221 0.443493 0.45094 0.47664 0.397493 0.407704 0.406932 0.421239 0.420864
          0.440293 0.433983 0.62972 0.67882 0.61808 0.528975 0.544029 0.674027 0.444703 0.835309 0.412847 0.860658
          0.48714 0.4908 0.397527 0.439334 0.768955 0.397545 0.39754 0.731391 0.772179 0.485505 0.521772 0.529928
          0.503193 0.501439 0.406415 0.505449 0.49482 0.459067 0.446355 0.478595 0.502572 0.436409 0.79805 0.898671
          1 1 0.874406 1 1 0.876076 0.45006 0.743472 0.436898 0.628544 0.58804 0.620724
          0.661505 0.635666 0.534435 0.601402 0.445574 0.592147 0.562504 0.59632 0.531336 0.473819 0.773318 0.397503
          0.405997 0.409749 0.430333 0.418533 0.424975 0.545848 0.459817 0.420626 0.517845 0.504411 0.58375 0.708109
          0.686719 0.674663 0.705143 0.745539 0.452022 0.397505 0.407949 0.803087 0.431922 0.445644 0.43669 0.494721
          0.43463 0.468426 0.545297 0.415781 0.6344 0.458805 1 0.640419 0.445429 0.404861 0.490024 0.582172
          0.487637 0.437641 0.903732 0.903416 0.404383 1 1 0.426938 0.413405 0.404267 0.510413 0.466631
          0.419961 0.437513 0.447132 0.397529 0.561433 0.764579 0.521162 0.40425 0.621457 0.428294 0.921937 0.443337
          0.541776 0.407672 0.416175 0.475116 0.571935 0.427045 0.726226 0.621145 0.579215 0.47657 0.397436 0.414336
          0.917256 0.922553 0.483796 0.402554 0.423779 0.903743 0.909866 0.397361 0.700567 0.35536 0.362322 0.355453
          0.34119 0.333574 0.341108 0.387447 0.304409 0.304337 0.387333 0.304223 0.30431 0.387275 0.387409 0.348569
          0.348163 0.362559 0.352066 0.333572 0.344687 0.363077 0.367501 0.372242 0.33294 0.327969 0.322624 0.376071
          0.318156 0.362089 0.334034 0.310712 0.32269 0.31629 0.362177 0.35904 0.370551 0.33391 0.33739 0.324554
          0.326833 0.368554 0.326788 0.310704 0.317158 0.382229 0.376872 0.34833 0.358169 0.352011 0.348393 0.338252
          0.344727 0.386422 0.305674 0.362404 0.333673 0.300933 0.39013 0.357392 0.339084 0.355678 0.353872 0.340884
          0.342749 0.347248 0.332468 0.36349 0.349458 0.362195 0.333964 0.387542 0.304287 0.367881 0.377527 0.371677
          0.327611 0.316371 0.323185 0.31628 0.327528 0.32325 0.377503 0.367893 0.371662 0.304396 0.38741 0.348365
          0.389211 0.34133 0.302445 0.355235 0.38325 0.377849 0.324881 0.380322 0.312054 0.342713 0.353895 0.380454
          0.370517 0.31299 0.312904 0.380413 0.338173 0.358222 0.379207 0.314337 0.38943 0.302 0.379552 0.313998
          0.313909 0.379522 0.301895 0.38939 0.371467 0.390873 0.33291 0.363052 0.300364 0.376017 0.369677
        </DataArray>
        <DataArray type="Float32" Name="p_aq" NumberOfComponents="1" format="ascii">
          100098 100090 100090 100141 100137 100140 100138 100042 100042 100051 100042 100051
          100051 100051 100141 100141 100138 100042 100138 100081 100120 100116 100110 100078
          100072 100068 100099 100085 100107 100098 100111 100129 100127 100064 100099 100098
          100107 100081 100086 100070 100057 100068 100062 100134 100126 100131 100073 100073
          100122 100057 100063 100081 100071 100115 100123 100140 100137 100141 100099 100111
          100103 100042 100042 100052 100098 100086 100094 100139 100049 100081 100115 100133
          100114 100106 100081 100116 100120 100089 100062 100074 100069 100131 100121 100125
          100042 100042 100051 100140 100138 100140 100140 100138 100140 100042 100042 100051
          100074 100062 100069 100121 100131 100125 100099 100090 100050 100107 100138 100116
          100124 100092 100058 100108 100099 100090 100080 100059 100133 100130 100059 100133
          100140 100086 100042 100110 100060 100090 100107 100060 100132 100049 100138 100138
          100049 100060 100132 100134 100110 100132 100080 100048 100116 100139 100117 100122
          100009 100008 100010 100007 100012 100016 100013 100016 100025 100028 100028 100035
          100031 100033 100033 100028 100034 100000 100001 100000 100038 100021 100016 100019
          100031 100019 100001 100009 100011 100007 100030 100020 100016 100018 100001 100001
          100001 100001 100001 100001 100004 100003 100002 100002 100004 100005 100005 100009
          100015 100005 100005 100021 100017 100021 100006 100004 100005 100018 100009 100000
          100000 100000 100037 100014 100000 100005 100006 100004 100002 100002 100005 100020
          100024 100022 100015 100038 100038 100032 100032 100025 100027 100002 100001 100003
          100008 100006 100001 100024 100000 100035 100000 100013 100013 100025 100001 100001
          100001 100014 100008 100008 100011 100011 100038 100010 100012 100019 100023 100015
          100011 100026 100000 100000 100000 100000 100000 100000 100000 100000 100022 100001
          100026 100002 100004 100003 100002 100002 100007 100003 100023 100004 100005 100003
          100007 100016 100001 100038 100037 100028 100033 100031 100006 100019 100032 100009
          100011 100004 100001 100001 100001 100001 100001 100021 100038 100000 100028 100023
          100026 100012 100027 100017 100006 100034 100002 100019 100000 100002 100023 100039
          100013 100004 100013 100026 100000 100000 100039 100000 100000 100030 100035 100039
          100010 100018 100032 100026 100023 100005 100001 100008 100039 100003 100029 100000
          100024 100007 100038 100034 100016 100005 100030 100001 100003 100004 100015 100035
          100000 100000 100014 100040 100031 100000 100000 100001 100000 100001 100000 100001
          100002 100002 100002 100024 100020 100021 100026 100032 100037 100037 100039 100033
          100001 100002 100002 100003 100001 100004 100005 100006 100016 100017 100021 100038
          100038 100002 100003 100028 100031 100026 100021 100018 100014 100017 100021 100005
          100003 100037 100014 100012 100010 100004 100005 100002 100003 100002 100003 100007
          100007 100002 100001 100001 100001 100001 100011 100029 100028 100001 100035 100007
          100005 100019 100031 100001 100001 100000 100031 100022 100022 100004 100026 100032
          100034 100030 100034 100000 100003 100001 100001 100005 100005 100006 100004 100020
          100021 100024 100007 100001 100001 100000 100001 100000 100003 100016 100017 100028
          100038 100026 100001 100002 100026 100029 100035 100030 100019 100012 100009 100011
          100027 100026 100001 100007 100013 100026 100000 100000 100000 100000 100025 100010
          100000 100035 100033 100038 100000 100000 100000 100000 100000 100000 100005 100002
          100018 100000 100000 100000 100001 100005 100028 100033 100009 100024 100006 100014
          100013 100011 100009 100008 100014 100033 100023 100009 100009 100009 100000 100000
          100006 100006 100016 100029 100009 100032 100007 100038 100038 100017 100017 100015
          100000 100003 100004 100011 100012 100016 100009 100014 100039 100019 100006 100005
          100028 100003 100020 100024 100007 100025 100011 100000 100039 100035 100016 100012
          100010 100012 100015 100012 100006 100015 100014 100035 100000 100000 100000 100000
          100008 100000 100007 100006 100008 100006 100010 100012 100010 100012 100018 100020
          100020 100024 100021 100023 100023 100020 100023 100000 100001 100000 100025 100015
          100012 100014 100021 100014 100001 100007 100009 100006 100020 100014 100012 100013
          100002 100002 100002 100001 100002 100001 100003 100003 100002 100002 100004 100005
          100005 100008 100011 100005 100005 100015 100013 100015 100006 100004 100005 100013
          100007 100000 100000 100000 100028 100025 100028 100011 100000 100005 100006 100004
          100003 100002 100005 100014 100017 100016 100012 100028 100025 100026 100022 100022
          100018 100019 100002 100002 100003 100007 100006 100002 100017 100000 100024 100000
          100010 100010 100028 100018 100001 100028 100028 100001 100001 100010 100007 100006
          100009 100009 100026 100008 100009 100014 100016 100011 100009 100018 100001 100000
          100000 100000 100000 100000 100000 100000 100016 100001 100018 100002 100004 100003
          100002 100002 100006 100003 100017 100003 100005 100003 100006 100012 100001 100028
          100026 100025 100020 100023 100021 100006 100014 100022 100007 100009 100004 100001
          100001 100002 100001 100001 100015 100028 100025 100001 100019 100017 100018 100009
          100019 100013 100006 100023 100002 100014 100000 100002 100017 100026 100010 100004
          100010 100018 100000 100000 100026 100000 100000 100021 100024 100026 100008 100013
          100022 100018 100016 100028 100005 100001 100007 100026 100003 100020 100000 100017
          100006 100025 100023 100012 100004 100020 100001 100003 100004 100012 100028 100024
          100000 100000 100011 100027 100021 100000 100000 100028 100001 100039 100038 100039
          100042 100043 100042 100031 100043 100043 100031 100043 100043 100031 100031 100041
          100041 100038 100040 100043 100041 100038 100037 100035 100043 100043 100043 100034
          100044 100038 100043 100044 100044 100044 100038 100039 100036 100043 100042 100043
          100043 100036 100043 100044 100044 100033 100034 100041 100039 100040 100041 100042
          100041 100031 100043 100038 100043 100043 100030 100039 100042 100039 100040 100042
          100042 100041 100043 100038 100040 100038 100043 100031 100043 100036 100034 100036
          100043 100044 100043 100044 100043 100043 100034 100036 100035 100043 100031 100041
          100031 100042 100043 100039 100032 100034 100043 100033 100044 100042 100040 100033
          100036 100044 100044 100033 100042 100039 100033 100044 100031 100043 100033 100044
          100044 100033 100043 100031 100036 100030 100043 100038 100043 100034 100036
        </DataArray>
        <DataArray type="Float32" Name="rho_aq" NumberOfComponents="1" format="ascii">
          1000 1000 1000 1000 1000 1000 1000 1000 1000 1000 1000 1000
          1000 1000 1000 1000 1000 1000 1000 1000 1000 1000 1000 1000
          1000 1000 1000 1000 1000 1000 1000 1000 1000 1000 1000 1000
          1000 1000 1000 1000 1000 1000 1000 1000 1000 1000 1000 1000
          1000 1000 1000 1000 1000 1000 1000 1000 1000 1000 1000 1000
          1000 1000 1000 1000 1000 1000 1000 1000 1000 1000 1000 1000
          1000 1000 1000 1000 1000 1000 1000 1000 1000 1000 1000 1000
          1000 1000 1000 1000 1000 1000 1000 1000 1000 1000 1000 1000
          1000 1000 1000 1000 1000 1000 1000 1000 1000 1000 1000 1000
          1000 1000 1000 1000 1000 1000 1000 1000 1000 1000 1000 1000
          1000 1000 1000 1000 1000 1000 1000 1000 1000 1000 1000 1000
          1000 1000 1000 1000 1000 1000 1000 1000 1000 1000 1000 1000
          1000 1000 1000 1000 1000 1000 1000 1000 1000 1000 1000 1000
          1000 1000 1000 1000 1000 1000 1000 1000 1000 1000 1000 1000
          1000 1000 1000 1000 1000 1000 1000 1000 1000 1000 1000 1000
          1000 1000 1000 1000 1000 1000 1000 1000 1000 1000 1000 1000
          1000 1000 1000 1000 1000 1000 1000 1000 1000 1000 1000 1000
          1000 1000 1000 1000 1000 1000 1000 1000 1000 1000 1000 1000
          1000 1000 1000 1000 1000 1000 1000 1000 1000 1000 1000 1000
          1000 1000 1000 1000 1000 1000 1000 1000 1000 1000 1000 1000
          1000 1000 1000 1000 1000 1000 1000 1000 1000 1000 1000 1000
          1000 1000 1000 1000 1000 1000 1000 1000 1000 1000 1000 1000
          1000 1000 1000 1000 1000 1000 1000 1000 1000 1000 1000 1000
          1000 1000 1000 1000 1000 1000 1000 1000 1000 1000 1000 1000
          1000 1000 1000 1000 1000 1000 1000 1000 1000 1000 1000 1000
          1000 1000 1000 1000 1000 1000 1000 1000 1000 1000 1000 1000
          1000 1000 1000 1000 1000 1000 1000 1000 1000 1000 1000 1000
          1000 1000 1000 1000 1000 1000 1000 1000 1000 1000 1000 1000
          1000 1000 1000 1000 1000 1000 1000 1000 1000 1000 1000 1000
          1000 1000 1000 1000 1000 1000 1000 1000 1000 1000 1000 1000
          1000 1000 1000 1000 1000 1000 1000 1000 1000 1000 1000 1000
          1000 1000 1000 1000 1000 1000 1000 1000 1000 1000 1000 1000
          1000 1000 1000 1000 1000 1000 1000 1000 1000 1000 1000 1000
          1000 1000 1000 1000 1000 1000 1000 1000 1000 1000 1000 1000
          1000 1000 1000 1000 1000 1000 1000 1000 1000 1000 1000 1000
          1000 1000 1000 1000 1000 1000 1000 1000 1000 1000 1000 1000
          1000 1000 1000 1000 1000 1000 1000 1000 1000 1000 1000 1000
          1000 1000 1000 1000 1000 1000 1000 1000 1000 1000 1000 1000
          1000 1000 1000 1000 1000 1000 1000 1000 1000 1000 1000 1000
          1000 1000 1000 1000 1000 1000 1000 1000 1000 1000 1000 1000
          1000 1000 1000 1000 1000 1000 1000 1000 1000 1000 1000 1000
          1000 1000 1000 1000 1000 1000 1000 1000 1000 1000 1000 1000
          1000 1000 1000 1000 1000 1000 1000 1000 1000 1000 1000 1000
          1000 1000 1000 1000 1000 1000 1000 1000 1000 1000 1000 1000
          1000 1000 1000 1000 1000 1000 1000 1000 1000 1000 1000 1000
          1000 1000 1000 1000 1000 1000 1000 1000 1000 1000 1000 1000
          1000 1000 1000 1000 1000 1000 1000 1000 1000 1000 1000 1000
          1000 1000 1000 1000 1000 1000 1000 1000 1000 1000 1000 1000
          1000 1000 1000 1000 1000 1000 1000 1000 1000 1000 1000 1000
          1000 1000 1000 1000 1000 1000 1000 1000 1000 1000 1000 1000
          1000 1000 1000 1000 1000 1000 1000 1000 1000 1000 1000 1000
          1000 1000 1000 1000 1000 1000 1000 1000 1000 1000 1000 1000
          1000 1000 1000 1000 1000 1000 1000 1000 1000 1000 1000 1000
          1000 1000 1000 1000 1000 1000 1000 1000 1000 1000 1000 1000
          1000 1000 1000 1000 1000 1000 1000 1000 1000 1000 1000 1000
          1000 1000 1000 1000 1000 1000 1000 1000 1000 1000 1000 1000
          1000 1000 1000 1000 1000 1000 1000 1000 1000 1000 1000 1000
          1000 1000 1000 1000 1000 1000 1000 1000 1000 1000 1000 1000
          1000 1000 1000 1000 1000 1000 1000 1000 1000 1000 1000 1000
          1000 1000 1000 1000 1000 1000 1000 1000 1000 1000 1000 1000
          1000 1000 1000 1000 1000 1000 1000 1000 1000 1000 1000 1000
          1000 1000 1000 1000 1000 1000 1000 1000 1000 1000 1000 1000
          1000 1000 1000 1000 1000 1000 1000 1000 1000 1000 1000 1000
          1000 1000 1000 1000 1000 1000 1000 1000 1000 1000 1000 1000
          1000 1000 1000 1000 1000 1000 1000 1000 1000 1000 1000 1000
          1000 1000 1000 1000 1000 1000 1000 1000 1000 1000 1000 1000
          1000 1000 1000 1000 1000 1000 1000 1000 1000 1000 1000 1000
          1000 1000 1000 1000 1000 1000 1000 1000 1000 1000 1000 1000
          1000 1000 1000 1000 1000 1000 1000 1000 1000 1000 1000 1000
          1000 1000 1000 1000 1000 1000 1000 1000 1000 1000 1000 1000
          1000 1000 1000 1000 1000 1000 1000 1000 1000 1000 1000 1000
          1000 1000 1000 1000 1000 1000 1000 1000 1000 1000 1000 1000
          1000 1000 1000 1000 1000 1000 1000 1000 1000 1000 1000 1000
          1000 1000 1000 1000 1000 1000 1000 1000 1000 1000 1000 1000
          1000 1000 1000 1000 1000 1000 1000 1000 1000 1000 1000 1000
          1000 1000 1000 1000 1000 1000 1000 1000 1000 1000 1000
        </DataArray>
        <DataArray type="Float32" Name="mob_aq" NumberOfComponents="1" format="ascii">
          2.87022 3.25445 3.27509 0.831752 1.15721 0.820863 1.16186 10.0181 10.0562 7.12572 9.99718 7.07315
          7.11912 7.08024 0.835423 0.82451 1.16275 10.0441 1.16736 3.77683 1.96086 2.12308 2.35375 3.92976
          4.35895 4.70394 2.82404 3.50305 2.49597 2.87487 2.31876 1.61573 1.69152 5.16368 2.82759 2.86634
          2.50462 3.74509 3.47676 4.49613 6.11076 4.70038 5.37271 1.34754 1.74496 1.52292 4.29625 4.31405
          1.88672 6.09031 5.26387 3.74981 4.44264 2.16592 1.83445 0.82301 1.19846 0.824354 2.85166 2.35695
          2.64234 10.062 10.0493 6.90371 2.84084 3.44012 3.06622 1.06121 7.77939 3.76688 2.15523 1.382
          2.18873 2.5293 3.79661 2.13259 1.95428 3.28115 5.34245 4.24027 4.62375 1.523 1.91081 1.74564
          10.0708 10.0724 7.1424 0.818794 1.15354 0.818594 0.82279 1.15848 0.822465 10.0527 10.0551 7.0941
          4.23434 5.34293 4.63751 1.92054 1.5307 1.75816 2.82796 3.24567 7.50633 2.48576 1.09872 2.1093
          1.77985 3.15454 5.92112 2.47321 2.83913 3.22955 3.81811 5.77821 1.41197 1.53639 5.78323 1.41999
          0.816994 3.45178 10.0789 2.34576 5.62123 3.27387 2.47652 5.6582 1.44239 7.59319 1.08612 1.09111
          7.58442 5.66095 1.44976 1.33875 2.35861 1.46763 3.81628 7.93351 2.11154 1.03863 2.07677 1.89994
          34.5819 37.7977 30.9335 41.4828 26.9632 22.2878 26.3404 21.8825 16.0193 14.5639 14.4896 12.1576
          13.4738 12.6506 12.7402 14.4051 12.5434 378.63 204.647 389.502 11.291 18.5581 22.5248 19.462
          13.3748 19.6046 196.9 33.773 28.4958 38.3175 13.9797 19.1406 22.5681 20.5577 122.995 128.457
          122.862 208.787 131.052 201.263 64.5858 71.508 88.8633 104.536 62.4304 48.1905 48.7984 33.0883
          23.6264 49.3886 49.8536 18.4122 20.7925 18.1599 43.3761 57.9564 50.2348 20.65 33.3134 1000
          1000 422.738 11.5233 24.6668 571.983 49.2967 43.0229 57.2773 85.748 114.335 47.6165 19.1493
          16.5306 17.814 22.9232 11.307 11.2154 13.1251 13.0711 16.0058 15.0059 86.8435 125.255 79.3091
          37.3849 42.7642 121.028 16.7387 350.905 11.9847 407.945 25.3514 26.2507 15.8502 231.197 180.476
          235.981 24.9632 35.0222 37.7077 29.504 29.0204 11.1457 30.1277 27.2709 19.3108 17.0154 23.3598
          29.3276 15.3799 278.154 512.489 1000 1000 443.242 1000 1000 447.699 17.661 195.61
          15.4566 86.0737 62.2533 81.0053 110.395 90.915 39.2669 69.4398 16.8896 64.4047 50.2273 66.645
          38.1898 22.3113 237.632 11.1107 11.585 14.442 12.7441 13.6531 43.4535 19.4542 13.0482 33.7865
          29.8398 60.0923 153.903 132.631 121.522 150.966 198.225 18.0124 11.3357 286.896 14.6839 16.8935
          15.4241 27.2455 15.1112 21.1656 43.2473 12.371 90.0425 19.2608 1000 94.2432 16.8613 10.9607
          26.0592 59.3037 25.4768 15.5765 528.414 527.177 10.8996 1000 1000 13.9396 12.0677 10.8951
          31.5498 20.7989 12.9516 15.5561 17.1494 49.769 224.523 34.826 10.8804 81.4463 14.1437 589.044
          16.5062 41.9175 11.2988 12.4193 22.5877 54.4292 13.964 174.312 81.2666 57.8691 22.9097 12.1898
          572.196 590.307 24.5579 10.6481 13.494 547.395 528.262 146.126 501.432 226.538 394.719 165.339
          113.053 93.0648 116.07 16.5776 18.8508 18.1531 15.5208 13.2157 11.4447 11.522 10.9878 12.7546
          164.242 104.637 88.3064 70.4555 121.879 57.6852 49.7808 43.3154 21.8265 20.7796 18.1158 11.0871
          11.282 105.211 70.1718 14.4189 13.4753 15.5595 17.9451 20.5312 24.7264 20.917 17.9709 53.7608
          74.6758 11.4246 24.0437 26.7216 30.8564 64.3808 52.0939 114.445 73.0749 96.249 67.5871 38.3798
          39.4991 85.8703 124.536 124.663 120.72 186.668 29.5462 14.0832 14.6727 222.059 12.1744 40.4153
          53.0729 19.845 13.5576 180.758 178.425 278.706 13.5021 17.4041 17.4577 65.2638 15.3504 13.0711
          12.3271 13.6736 12.4665 1000 67.9496 156.892 228.139 50.5482 54.1244 47.5394 63.9923 19.1275
          17.9239 16.5273 38.4892 195.912 246.708 296.439 161.707 1000 83.4595 21.6384 21.1436 14.4326
          11.185 15.4692 120.915 98.2581 15.4232 14.1717 12.1839 13.786 19.3453 27.6118 32.7596 28.9685
          15.2538 15.4314 194.251 39.9477 25.8302 15.71 523.483 302.699 518.816 440.726 15.7442 30.1963
          277.767 12.0179 12.7613 11.3269 1000 1000 1000 449.221 1000 1000 51.0667 92.2057
          20.6911 572.524 507.104 510.165 139.141 53.3497 14.4455 12.7534 33.9767 16.2762 44.1855 24.3539
          26.0733 29.442 32.4556 35.5975 24.3276 12.7279 17.2457 34.0485 32.4401 34.8899 1000 1000
          43.1307 42.4364 22.3094 14.2695 33.6718 13.1805 39.1105 11.3031 11.0927 20.9348 21.0193 23.6549
          582.414 80.8368 57.7661 29.4707 27.1266 22.5231 33.7948 24.4898 10.91 19.4198 43.2773 52.0849
          14.4476 80.7316 19.0949 16.4915 38.0908 15.7917 29.8908 263.377 11.0196 12.0992 22.5459 27.2274
          31.9706 27.4079 23.5829 27.0323 44.2102 23.3997 24.142 12.1667 531.122 537.399 349.88 353.408
          37.4404 266.368 81.0787 86.6174 74.6023 92.7805 67.2498 58.1295 66.0746 57.3113 44.8465 41.5758
          41.3965 36.0235 39.0801 37.167 37.4 41.2316 36.9307 475.158 300.016 485.843 33.9839 50.3817
          58.6106 52.305 38.8446 52.6024 291.415 79.6599 70.1222 87.4897 40.2453 51.6295 58.6958 54.5912
          205.845 212.45 205.711 304.329 215.717 296.214 128.375 138.265 162.086 182.612 125.23 103.604
          104.553 78.4482 60.8002 105.488 106.206 50.0809 55.0839 49.5402 95.8828 118.601 106.807 54.7878
          78.8532 1000 1000 516.809 31.109 34.5512 31.1183 62.8426 657.581 105.332 95.3014 117.576
          157.966 194.953 102.691 51.656 45.9934 48.7988 59.4085 31.1095 34.0682 33.8381 38.2855 38.1642
          44.8234 42.5781 159.436 208.573 149.187 85.9114 94.8808 203.329 46.4413 448.086 35.6304 503.029
          64.1777 65.9023 31.119 44.4771 328.321 31.1241 31.1226 273.197 333.442 63.418 81.8427 86.4602
          71.9862 71.102 33.6842 73.1354 67.8342 51.9954 47.0579 60.2766 71.6721 43.4317 376.974 597.544
          1000 1000 535.386 1000 1000 539.449 48.4612 290.046 43.6055 158.377 124.987 151.471
          190.103 164.868 89.0908 135.363 46.7657 128.111 106.789 131.345 87.2761 58.171 335.266 31.1122
          33.5606 34.6836 41.3161 37.4149 39.511 96.0086 52.2979 38.0872 79.6838 72.605 121.782 242.905
          217.439 204.019 239.243 293.011 49.2163 31.1129 34.1414 385.979 41.8623 46.7918 43.5315 67.7858
          42.8046 55.8564 95.6661 36.5435 163.701 51.8901 1000 169.31 46.7117 33.2254 65.5342 120.619
          64.41 43.87 611.413 610.536 33.0852 1000 1000 40.1657 35.8028 33.0514 75.7098 55.1007
          37.8726 43.8244 47.3499 31.1196 106.07 321.474 81.5049 33.0464 152.108 40.6225 679.214 45.936
          93.4976 34.0585 36.6674 58.7377 113.268 40.2015 266.235 151.837 118.461 59.3774 31.0934 36.0918
          658.466 682.082 62.6306 32.5525 39.1158 611.445 630.094 31.0723 233.676 20.7695 22.2823 20.7891
          17.9122 16.4947 17.8965 28.3778 11.7771 11.7668 28.3479 11.7505 11.7629 28.3325 28.3679 19.3638
          19.2819 22.3351 20.0792 16.4943 18.5903 22.4508 23.456 24.5674 16.3804 15.5022 14.5948 25.4914
          13.865 22.2305 16.578 12.7054 14.6059 13.5678 22.25 21.56 24.167 16.5556 17.1949 14.9183
          15.3062 23.6998 15.2986 12.7042 13.7055 27.0272 25.6876 19.3154 21.3711 20.0677 19.3281 17.3558
          18.5982 28.109 11.9595 22.3006 16.5126 11.2857 29.0904 21.2035 17.5122 20.837 20.4556 17.8537
          18.2124 19.0982 16.2955 22.5435 19.5439 22.2542 16.5654 28.403 11.7596 23.5438 25.8487 24.4331
          15.4403 13.5806 14.6883 13.5662 15.4259 14.6992 25.8429 23.5465 24.4295 11.7752 28.3683 19.3225
          28.8448 17.9391 11.4977 20.7429 27.2877 25.9284 14.9734 26.5449 12.9093 18.2054 20.4605 26.5781
          24.1589 13.053 13.0396 26.5678 17.341 21.3826 26.2655 13.2614 28.9032 11.435 26.3519 13.2087
          13.1949 26.3444 11.4202 28.8927 24.3834 29.2899 16.3749 22.4453 11.2066 25.4781 23.9617
        </DataArray>
        <DataArray type="Float32" Name="S_napl" NumberOfComponents="1" format="ascii">
          0.78905 0.782332 0.781986 0.842568 0.830323 0.84303 0.830167 0.708539 0.708243 0.73374 0.708702 0.734258
          0.733805 0.734188 0.842413 0.842875 0.830137 0.708337 0.829982 0.774012 0.807843 0.80411 0.799122 0.771726