<?xml version="1.0"?>
<VTKFile type="UnstructuredGrid" version="0.1" byte_order="LittleEndian">
  <UnstructuredGrid>
    <Piece NumberOfCells="1670" NumberOfPoints="911">
      <CellData Scalars="S_aq">
        <DataArray type="Float32" Name="S_aq" NumberOfComponents="1" format="ascii">
          0.969771 0.067891 0.064273 0.148652 1 0.0881294 0.85964 1 0.998856 0.984559 0.971233 1
          0.738165 1 0.932769 1 1 0.351594 0.949303 1 1 0.922122 1 0.996168
          0.965774 1 0.195871 0.999946 0.999289 0.687524 1 1 0.0637387 0.721956 1 0.0659683
          1 0.848147 0.999381 1 0.797896 0.994699 0.992305 0.994363 0.985259 0.994038 0.945442 0.999357
          0.799955 1 0.0697924 1 1 0.0629054 0.999445 0.0876459 0.748309 1 0.0633692 1
          0.995182 1 1 0.0657032 0.693862 0.0690102 1 0.0840857 0.999892 1 1 0.0744343
          0.854346 0.996973 1 0.978377 0.979323 0.994859 1 0.0783374 0.613839 0.892074 1 0.994758
          0.943845 0.978457 1 1 0.640101 1 1 0.0622768 1 0.160996 1 1
          0.0645391 0.842729 0.0775854 0.79455 1 0.0660018 1 1 0.999303 0.885692 0.119087 1
          0.069454 0.101654 0.99744 0.0624628 0.0735145 0.780292 1 0.793419 1 0.0647567 1 1
          1 0.0690927 0.773718 0.0656564 0.0711078 0.330779 1 0.856958 1 0.0778994 1 0.0727367
          1 0.417271 0.965093 0.240018 0.229004 1 0.999374 1 1 1 0.0845405 1
          0.0776695 0.860338 0.838717 1 1 1 1 0.070281 1 1 0.0654128 0.803886
          1 0.0645535 0.748404 0.0667065 1 0.199043 0.137433 0.0714546 0.202721 0.780425 0.155668 1
          0.131959 0.176205 1 0.0766536 1 0.671622 1 0.732814 0.113619 1 0.0673307 0.073684
          1 0.487575 0.076774 0.884379 0.99775 1 1 0.0897138 1 1 1 1
          0.978724 0.995961 0.984108 0.994571 1 0.0776564 0.942164 0.967611 0.981886 0.978319 0.919861 0.919221
          0.0840349 0.0708899 0.0680759 1 0.070448 1 0.192509 0.0917475 0.899416 0.99624 0.998513 1
          1 1 0.0639873 0.0666597 1 1 0.560823 0.563106 0.621239 1 0.0612489 1
          0.304953 0.696029 1 0.0619673 1 1 0.129984 1 0.99519 0.993887 1 0.0687927
          1 0.720272 0.074481 0.997289 0.997048 0.998502 1 1 1 1 1 1
          0.0803355 1 1 1 1 1 1 1 0.138411 0.212716 1 0.827106
          0.804449 1 1 1 1 1 1 1 1 0.649853 1 1
          1 1 1 0.487823 1 1 1 1 1 1 1 1
          0.110225 1 0.997157 1 1 1 1 1 1 1 0.780718 1
          0.858059 1 0.187671 0.997694 1 1 1 0.999907 1 0.997889 1 1
          1 1 1 1 1 1 1 1 1 1 1 0.297002
          1 1 1 1 1 1 1 0.744846 1 1 1 1
          1 1 0.719329 1 1 1 1 1 1 1 1 1
          1 1 1 0.653891 0.999807 1 1 1 1 1 1 1
          1 1 1 1 1 1 1 1 1 1 1 1
          1 1 0.528466 1 1 1 1 1 1 1 1 1
          1 1 1 0.823911 0.0742664 1 1 0.102703 1 1 1 0.99995
          1 1 1 1 0.999106 1 1 1 1 1 1 0.999395
          1 0.984646 1 1 1 1 0.970268 1 1 1 1 1
          0.998806 1 0.215918 1 1 1 1 1 1 1 1 1
          0.882547 1 0.996033 1 1 1 1 1 0.995587 1 1 0.685988
          1 1 1 1 1 1 1 0.191929 1 1 0.986996 1
          1 1 1 1 1 1 1 1 1 1 0.474463 1
          1 1 1 1 1 1 0.999642 1 1 1 1 1
          1 1 1 1 1 1 1 1 1 1 1 0.672748
          0.969926 1 1 0.98464 1 1 1 1 1 1 1 1
          1 1 1 1 1 1 1 1 1 0.303868 0.999809 1
          1 1 0.966761 1 1 1 0.729593 0.865941 1 0.636371 1 1
          0.997276 1 1 1 1 1 0.871375 0.547162 1 1 1 1
          1 0.998778 1 1 1 1 1 1 0.323431 1 1 0.999951
          0.858819 1 1 0.121858 1 1 1 1 1 1 1 1
          1 1 1 0.564228 1 1 1 0.930593 1 1 1 1
          1 1 1 1 1 1 1 1 1 1 0.904646 0.995304
          1 0.21469 1 1 1 1 1 1 1 1 1 1
          1 1 1 1 1 1 0.844092 1 1 1 1 1
          0.53698 1 1 1 1 1 1 1 1 1 1 1
          1 1 1 1 1 1 1 1 1 1 1 1
          1 1 1 1 1 1 1 1 1 1 1 1
          1 1 1 1 1 0.743208 1 1 1 1 1 1
          1 1 1 1 0.999917 1 1 1 1 1 1 1
          1 1 0.851711 1 1 1 1 1 1 1 1 1
          1 1 1 1 1 1 1 1 1 1 1 1
          0.998718 1 1 0.779713 1 1 1 1 1 1 0.590812 0.789791
          0.833078 1 1 1 1 1 1 1 1 1 0.999965 1
          1 1 1 1 1 1 1 1 0.705797 1 1 1
          1 1 1 1 1 0.994904 1 1 1 1 1 1
          0.991202 1 1 1 1 1 1 1 1 1 1 1
          1 1 1 1 1 0.999905 1 0.991053 1 1 1 1
          0.978874 1 0.847757 1 1 0.175019 1 1 1 1 1 1
          1 1 1 0.987113 1 1 1 1 1 1 1 1
          1 1 1 0.980589 1 1 1 1 1 1 1 1
          1 0.999847 1 1 1 1 1 1 1 0.111417 1 1
          0.999884 0.635632 0.192113 1 1 1 1 1 1 1 1 1
          1 1 1 1 1 1 1 1 1 0.679641 1 1
          1 1 1 0.81388 1 1 1 1 1 1 1 1
          0.725481 1 1 1 0.908651 1 1 1 1 1 1 0.352684
          1 1 1 1 1 1 1 1 0.980127 1 0.999861 1
          1 0.305819 1 1 1 1 1 1 1 0.455114 1 1
          1 1 1 1 0.738038 1 0.64221 1 1 1 1 1
          1 1 1 1 0.709686 1 1 1 1 1 1 1
          1 0.717022 1 1 1 1 1 1 1 1 1 1
          1 1 0.705039 0.99886 1 0.382857 1 1 0.998953 1 1 1
          1 1 1 1 0.999109 1 1 1 1 1 1 1
          0.91715 1 0.875882 1 1 1 1 0.986176 0.750361 0.769374 0.996239 1
          0.860475 1 0.995586 1 1 1 1 1 0.98643 1 1 1
          1 1 0.121558 1 1 0.189305 1 1 1 1 1 1
          1 1 0.809158 1 1 1 0.990152 1 0.980758 1 0.538353 0.999999
          1 1 1 1 1 1 1 1 1 1 1 1
          1 1 1 1 1 0.15484 0.835856 0.94139 1 1 1 1
          1 0.606366 1 0.871193 0.94123 1 1 1 1 1 1 1
          1 1 1 1 1 0.859043 1 1 1 1 0.869187 0.647227
          1 1 0.845609 1 1 1 1 1 1 1 1 1
          1 1 1 1 1 1 1 1 1 1 1 1
          1 0.828842 0.253325 1 1 1 1 1 1 1 1 1
          1 1 1 1 1 1 1 1 1 1 1 1
          1 1 1 1 1 1 0.271762 1 1 1 1 1
          1 1 1 1 1 0.390119 1 1 1 1 1 1
          1 1 1 0.843579 1 1 1 1 1 1 0.963297 1
          1 0.193772 1 1 1 1 1 1 1 1 1 1
          1 1 1 1 1 1 1 0.934424 1 1 0.952882 1
          1 1 1 1 1 1 1 1 1 1 0.443404 0.518781
          1 1 1 1 0.955291 1 1 1 1 1 1 1
          1 1 1 1 1 1 1 1 1 1 1 1
          1 1 1 1 1 1 0.978686 0.993753 1 1 1 1
          1 1 1 1 1 1 1 1 0.992301 1 1 1
          1 0.63083 1 1 1 1 1 1 1 1 1 1
          1 0.994243 1 1 1 1 1 1 1 0.994417 1 1
          1 1 1 1 1 1 1 1 1 1 1 1
          1 0.250946 1 0.53637 0.810078 0.962903 1 0.23632 0.879342 1 1 1
          1 1 1 1 1 1 1 1 1 0.307506 0.309003 0.909112
          0.68722 1 0.994387 1 1 1 1 1 0.978606 1 1 1
          1 1 1 1 1 0.697056 1 1 1 0.977214 1 1
          1 1 1 1 1 0.995739 1 1 1 1 1 1
          1 1 1 1 1 1 1 1 1 1 1 1
          1 0.744363 1 1 1 1 1 1 1 1 1 1
          1 1 1 1 1 0.860002 1 1 1 1 0.323881 0.92018
          1 0.519102 1 0.146512 1 1 1 1 1 1 1 1
          0.936443 1 1 1 1 1 1 1 1 0.190702 0.862489 1
          1 0.907833 0.282133 1 0.747481 1 1 1 1 1 1 0.342156
          1 1 1 1 1 0.947567 0.49396 0.99658 1 1 1 0.845062
          0.145589 1 1 1 1 1 1 1 1 1 1 1
          1 1 1 1 1 1 1 1 1 1 1 1
          1 1 1 1 1 1 1 1 1 0.999039 1 0.248937
          0.136042 1 1 0.110273 1 0.199699 1 0.998443 1 1 1 1
          1 1 1 1 1 0.90659 1 1 0.998102 1 1 1
          1 0.0667325 1 1 1 0.0759127 1 1 1 1 1 1
          1 1 1 1 1 1 1 0.138386 1 1 1 1
          1 0.0699616 1 0.0653007 1 1 1 1 1 1 1 0.0711331
          1 0.401224 1 1 1 1 1 0.387023 1 1 0.991235 1
          1 1 1 1 0.999349 1 0.25608 1 1 1 1 1
          0.063851 1 1 1 1 1 0.9995 1 0.0843722 1 0.0727117 1
          0.964987 1 1 0.278014 1 1 0.433145 1 0.927935 1 0.916431 1
          1 0.0859137 1 0.0728447 1 0.899345 1 1 1 0.10606 0.674124 1
          1 0.121372 1 0.0963802 1 0.377009 1 0.996473 1 0.757311 1 1
          1 1 1 1 1 1 1 1 0.415122 0.546755 1 1
          1 1 1 1 0.128002 1 1 1 0.0976485 0.0744207 1 1
          1 0.0692171 1 1 1 1 1 1 1 1 1 1
          1 1 1 1 1 1 1 1 0.995865 0.152418 1 0.118368
          1 0.84655 1 1 1 1 1 0.975726 0.62561 1 1 1
          1 1 1 1 0.997256 1 1 1 1 1 1 1
          1 0.526047 0.178562 1 1 0.121714 0.25296 1 1 1 1 1
          0.0845469 1 0.0671833 1 1 1 0.0645482 1 0.0625089 1 1 1
          1 1 1 1 1 1 1 1 0.125904 1 1 0.994872
          1 1
        </DataArray>
        <DataArray type="Float32" Name="p_aq" NumberOfComponents="1" format="ascii">
          96241.6 100815 101182 100013 90928.4 100339 91278.5 91227 90974.1 96251.4 96304.5 95043.5
          97452.8 93502.5 96170.7 95161.1 93066.2 97923.7 96504 92444.8 97119.8 93899.9 92908.1 97314.3
          93688.9 93909.4 98537.2 92501.2 95558.5 95212.4 90667.1 95070.3 100980 94725 94617.6 100600
          90907.6 96255.5 95582.1 93721.6 98053.9 92962.6 96311.4 94506.1 96605.6 94250.6 95759.6 95223.6
          94515.4 94433.8 99830.3 91441.3 90643.9 101402 97957.5 98231.1 93162.7 93152.7 100719 90697.2
          95831.1 90914.7 95674.3 100723 95842.1 99696.4 93522.5 99118.8 91943.1 91969.9 95583.9 99216.4
          95729 94445.4 93725.3 94855.8 94363.6 96585.2 91994.3 98485.4 98152.1 92871.5 93515.5 97064.8
          95133.1 93901.5 94341.6 94604.7 96280.2 90566.2 96110.9 101254 94965.5 98396.4 92629.2 90897.6
          101111 98352.1 98718.6 92769.4 92760.7 100372 90938.7 91864.7 97489.4 93553.7 97717 92883.9
          99606.4 98980.1 92059.4 101443 99522.1 98969 90680.9 92200.1 92186.9 100622 90716.5 91489.6
          95833.5 99834 96002.6 101070 99939.6 99308.9 90990.5 91887.1 91863.5 100276 91023.9 98728.6
          92663.7 98394 92643.5 97168.9 97333.1 93539.6 96064.7 92093.3 95193.2 91836.7 99025.5 94617.8
          99320.9 95314.2 94697.3 90843.2 91398.4 93781.2 91475.4 99727.4 93649.3 90914.9 100479 93817.3
          97459 101082 93687.1 100361 97267 97476.4 97668.8 99122.6 97134.8 96652.1 97283.6 92999.7
          97484.8 97975.2 95864.9 98604.4 94010.4 96820.5 94010.9 96833.6 97475 91607.1 100149 98912.5
          92563.3 98487 99447.4 92574.3 91636.7 92221.5 92497.6 98450.8 96028 96522 94493 93962.9
          97260 93695.1 97505.1 93469.9 93045.9 98218.9 97955.7 93066.2 95272.5 95754.6 95002.9 94427.2
          98012.7 99162.4 100224 91594.5 99745 91966.9 99150.5 99511.2 91978.2 91611.2 94874.9 94422.7
          90781.9 91309.2 101049 100342 96606.6 96712.9 96897.2 96788.5 96691.8 90481.9 101493 97015.4
          97203.7 94139.1 94092.3 100977 90565.7 94388.4 98695.8 92364 95315.5 95118.3 91626.5 99856.3
          96425.1 96602.1 98420.3 95781 94878.4 95251.6 96264.6 96314 93291.8 93561 95841.6 98315.1
          100306 95932.3 98197.2 97231.4 95854.1 97674 95628.6 91834.5 99921.7 99894.4 94459.3 96493.4
          96493.3 94936.2 95074.7 96266 92624.4 92420.3 95162.6 94940.1 95639.6 98950.6 95371.9 93232.7
          93488.1 95539.8 93198.5 99642.3 95843.6 93179.8 95379.5 95276.3 93471.7 94589 91078.7 96847.5
          100281 93561.2 98822.8 96366 96352.3 94146.7 92374.2 95954.9 96418.2 96208.6 95567.5 93935.6
          94799.9 96254.2 99965.8 98639.6 95666.9 95318.6 95689.1 97951.3 95217.4 99080.8 97849.7 97521.6
          92859.8 95908.6 91419.5 92464.7 94407.4 92283.2 95861.2 95801.3 95085.1 93064.2 97199.4 99699.9
          95285.7 91271.4 95889.7 95707.2 94350.8 93994.1 93851.3 98418 96005 96819.6 93119.2 93961.2
          97029.9 94624.9 98878.5 98674.4 96339.4 98511 95191.6 95719.1 94093.7 90972.2 97446.4 95068.6
          94243.1 95445.3 96197.8 99195.1 97865.1 97525.4 95163.8 93382.3 95559.2 93477.5 95490.1 95318.4
          95586 95988.9 94551.7 91796.2 96369.2 98679 91968.7 94570.7 95911.1 95548.8 93425.9 97086.7
          95102.6 95151.5 99650.1 96717.6 96814.2 96766.2 91337.7 91660.1 92937.2 94601.8 98549.8 98409.4
          92225.9 93823 94668 97088 100452 96842.3 97865.8 100132 95486 97824.4 93197.4 98370.3
          94807.2 96800.4 97458.8 93859.6 98682.8 96957.7 96111.7 97936 95904 93126 97195.3 98366.6
          94868.3 92834.1 97542.6 92143 97289.4 94200.6 95582.4 95287.2 96239.6 95436.4 93840.6 92291.7
          96901.7 94957.4 99810.5 97459 92195.9 93165.2 94122.6 96121.9 95327.5 92015.9 95361.4 96340.1
          99304.7 92767 98485.2 95612 97563 92692.2 95505.4 94035 92299.6 97960.4 95253 98454.4
          95039 93907 96118.9 94254.9 95230.4 92431.7 93725.9 100120 94017.8 96443.8 98854.6 94241.6
          95746.3 96601.9 93663.5 93171.4 97503.9 95470.1 96113.7 94838.4 95139.4 91208 99270.1 91230.1
          91804.9 95852 94960.6 91036.7 91741.5 96756.7 98310.5 97080.3 94601 92793.4 98008.7 93070.9
          95386.8 93909.1 95184.6 93862.3 97036.2 90932.8 91169.9 91777.4 92482.6 95456.4 92663.5 97831.6
          94672.7 93489.1 95366.8 94014.4 96490.2 93005.4 94430.9 94965.3 97143.1 93271.8 94083.2 94464.9
          94287 93216.7 93072.2 93426.6 96696.7 92091.4 94562.3 96673.3 94427.4 99902.4 97863.3 94552.2
          94536.1 91855.8 99152.8 92729.3 95163.5 95004.9 97906.7 99420.8 95481.6 99534.7 94989.3 94639.8
          99028 95636.8 94510 94514.1 94993.4 92721.1 98945.2 99377.8 95053 92382.6 96405.8 97825.4
          94315.8 97376.7 94840 96064.3 94816.2 94072.8 94165.5 95371.9 99950.8 94611.9 96382 97379.9
          93694.6 96918.3 94118.7 100175 95280.6 94159.9 91301.6 91746.5 94677.6 91211.7 97711.1 90917
          94869.6 93777.5 96445.4 99298 94804.2 94499.2 97405 92695.8 97734.7 95366.4 96422.1 97017.3
          93597.4 94973.2 95532.4 98585.5 98326 91073.9 91555.4 94904.9 99012 91220.8 91268 99091.4
          92981 99446.7 95687.5 96085 95717 95139.3 96704.5 91462.1 96608.6 98169.2 93830.9 94825.2
          95505 91934.4 91819.6 92000.3 98449.1 97929.2 92907.4 97581.3 90831.1 97560.4 96899 94096.5
          99125.5 95266 92608.1 92638.5 94764.8 98214.2 97553.7 94836.6 95519.5 95458.6 95862.1 93502.2
          92513 95290.3 95322.8 98250.6 97884.5 97284.6 94555 96845.7 96516.9 94500.4 92669.5 96086.5
          96819.7 95382 95357 96644 95335.2 95263.6 95335.3 95301.1 98249.1 98075.6 95426.3 96537.4
          94931.5 95344.6 94649.6 95311.4 94798.6 98831.6 93495.3 90968 94030.5 91217 93055.6 94539.8
          92127.2 96078.3 94708.6 91260.6 97950.9 96060.9 93931.3 94921.7 95767.2 95172.9 95090.8 94823.6
          95567.8 96239.7 96315 95699.9 94814 98552.5 91646.5 95604.4 96700.3 95717.6 95531.9 98314.5
          95300 95414.3 95147.2 92561.1 95168 94919.7 95967.4 95024.9 96430.4 96091.3 95871.8 97426.9
          99364.5 98940.1 95197.5 98297.6 95266.9 95178.1 96154.2 96243.6 96943.7 95088.5 100410 98866
          96197.7 95731.6 95162.3 94722.9 96674.8 98021.2 97919.7 97555.7 97244.1 97964.2 98367.4 98923
          94043.1 95336.4 94905.2 92148.1 95439 93893.5 92297.8 96222.3 100242 94325.4 97771.2 97452.8
          94285.2 97490.3 92545.7 93049.6 96458.4 94078.6 95976.9 98024.7 94162 94055.6 94870.2 95228.6
          95480.3 95920.7 94399.7 95224.5 95488.2 93796 94628.7 95489 93453.7 97201.6 93050.6 93153.5
          95574.3 95853.8 96590.6 93945 94364.3 96786.4 95485.7 94840 91723.9 92110.8 94445.9 96983.9
          93426.6 95230.7 96908 95498.1 93739.6 100559 95036.1 92367.6 95572.1 93568 94581.8 94231
          96749.1 97377.2 97951.1 99772.7 97570.1 92128.3 96742.1 97016.4 90935.5 95918.9 96780.4 96250.5
          92712 94449.6 97829.6 92542.2 94694.9 94524.5 94118.8 96910.2 95893 95266.2 95294.2 96289.6
          95628.2 97619.5 95219.4 95024.4 93934.9 91924 93685 92060.8 96242.6 100317 98402.8 95632.2
          97226.8 100016 99978.2 96442 96492.4 98901.5 98409.9 99241 97148.8 94243.1 96151.4 93905.1
          92718.8 93140.3 94714.8 96192.2 93667.6 96635.7 94064.5 95958.3 91239.8 99447.8 91375.4 93201.4
          96059.2 93717.6 95065.9 99334.8 96384 92995.4 92867.3 93600.6 92249 97022.1 94484.5 96335.8
          98293.8 96966.5 90994.4 93408.4 98957.9 93778.8 95955.5 94081.9 97608.5 93458.1 97927.5 100309
          94407.9 91766.2 95593.7 98970.8 97079.6 97235 93086.6 96029.6 99824.2 95686.3 97238.3 92202.9
          92743.3 100287 94428.4 94927.3 98091 92174.2 94413.8 95386 95860.6 100299 94497.1 91880.4
          96317.3 95959 97639.2 92593.2 99536.4 95273.3 99792.5 94577.7 97410.7 94785.7 98864.1 98688.6
          93230.2 94256.9 92592.6 97102 99828.4 92361.8 92196.1 92141.3 96908.8 96775.9 90929 97065.5
          94274.8 97648.4 98734.8 96310.8 95615.1 95325.4 91254.3 96684.9 98017.6 94434.1 93924.9 92702.2
          93495.6 95129.4 99672.1 98363.7 93475.7 100156 91691.4 91662.5 99477.6 93665.4 93659.2 92691.1
          91444.8 94701.7 92544.9 93538 98464.8 97017.2 91844.7 95365.9 98546.4 93540.2 92601.8 98731.8
          91621.4 94998.4 99364.1 96448.4 93787.5 95376.5 91240.2 99318.9 99363.3 97768 98951.4 97452.6
          92998.6 92994.4 98846.9 95521.9 94267.8 94085 90808.1 98241 99291 94942 92094.1 94505.3
          91960.7 93769.7 100606 93263.3 96780.4 100643 95563 91111.3 94019.6 94321.1 97568.2 93216.2
          97303 90946.9 95099.6 95496.4 93298.3 98874.1 99196.3 92724.5 99444.3 92562.8 99950 98423.6
          91565 92904.3 91134.3 93096.9 98199.3 93107.1 94254.2 96770 96930.1 93203.5 91709.7 96744.2
          96446.9 96958.7 95367.6 98631.9 98031.9 100221 95382.7 94786.8 94107.8 97765.4 97348.5 91905.7
          92814.3 99707 96488.8 94057.5 94047.9 96490 92959.4 93073.3 97637.9 97496.6 94674.1 94611.4
          97707.4 97435.6 95159.2 92704.1 90769.1 94745.1 92814 93782.2 95145.1 93349.5 95104.8 99238.9
          91144 91194.4 96447.8 94400.9 94410.1 95842.4 95660.6 94594.7 98393.9 98599.6 95671.8 95885.7
          95356.5 92123.2 95621 97759.9 97499 94711.2 97784.9 91460.1 94449.1 97810.8 95332.4 95423
          97491.2 96286.7 99992.2 94155.7 90905 97437.7 92225.3 94437.5 94533.5 96793.9 98663.9 94785
          94586.3 94790.4 95261.6 97056.4 95952 94718.1 91208 92397.9 95332.6 95680.5 95031.4 93058.2
          95246.6 91997.8 93150.1 93468.9 98145.1 95052.2 99669.5 98555 96567.4 98736.5 95082.9 94584.2
          95207.3 97194.6 93059.1 91359.9 95354.8 99778 94896.7 95050.1 96513.8 96948.6 97099.9 92588.5
          94828 94190.6 97888.1 97071.3 93895.1 96193.2 92176.5 92382.8 94657.2 92534.2 95540.7 95254.4
          96893.2 100139 93506.6 95329.5 96748.7 95364.9 94801.8 91865.4 93105.8 93421.2 95554.1 97597.8
          95135.4 97493.5 95273.1 95311.8 95093.3 95968 94535.8 99231.5 94448.3 92364.9 99108.2 95901.4
          94573.2 95008.2 97579.3 93910.2 95585.7 95529.8 91489.2 94291.3 94181.3 94155 99708.5 99461.2
          98071.1 96206 92500.6 92623.9 98817 97178.8 95569.4 93911.8 90662 94021.9 93161.1 90986.5
          95171.7 93161.8 97790.6 92649.9 96164 94068.1 93549 97142.8 92355.2 94054.9 94678.4 93093.2
          94836.1 97195.9 93123.4 92648.2 96113.9 97575 92849.6 98865.7 93707.8 96748.5 95143.7 95690.3
          94764.7 95231.9 97158.3 98733 94003.3 96029.4 91262.7 93537.9 98804.5 97838.5 96877.8 94837.8
          95273.7 99052.5 95126.2 94643.4 91761.6 98251.3 92522.3 94838.2 93459.2 98324.8 95426.9 96948.5
          97983.9 92318.6 95299.3 92580.6 95957.4 97065.3 94278.2 96127.3 95438.3 98611.4 97250.7 91008.9
          96454.2 94027.3 92177.4 96620.7 95130.7 96627.5 93694.6 97836.7 93499.4 95418.2 94783 96099.9
          95806.2 99834.8 91765.7 99917.5 99216.6 94792.4 95769.8 100057 99274.1 94178.8 92703.3 93887.9
          96260.1 98220.6 93011.1 97934.6 95235.5 97002.2 95365 97059.7 93864.3 100245 99934.5 99269.9
          98637 95539.5 98398.6 93207.9 95972.6 97494.2 95620.8 96515.6 94027.1 98006.2 96462.6 96032.9
          93871.5 97736.2 96819.5 96389 96680.9 97868.8 97937.8 97576.6 94268.2 98954 96432.5 94301.2
          96408.5 91202.6 93100.8 96395.4 96455.7 99179.3 91896 98284.2 95794.4 95974.5 93071.4 91654.6
          95506.7 91591.7 95995.2 96350.3 92056 95355.5 95852.8 96393.4 95507 98283 92125.5 91731
          95924.5 98743.2 94425.8 93198.2 95958.8 93551.3 96060.5 94938.2 95957.6 96926.1 96834.4 95627.4
          91208.7 96387.2 94606.7 93540.6 96900.9 93621.1 96840.2 90914.4 95325 96840.9 99753.5 99294.6
          96319.3 99969.5 93299.1 100144 96128.8 96449.2 93787.1 91781.8 95607.5 96480.2 93609.8 97774.6
          92701.1 95544.8 94572.1 93962.8 97403.3 95943.4 95089.4 92458 92711.5 100028 99586.3 95615.5
          99002.3 91253.4 99980 91963.9 98059.3 91579.6 95296 94902.7 95122.8 95730.4 94282.2 99594.2
          94366.9 92858 97110.6 95929 95029.3 99099.5 99347.6 99033 92590.9 93100.1 97566.1 92861
          100369 93462 94109.9 96817.5 91908.3 95369.2 98401 98374.2 96003.4 92821 93459.6 96157.4
          95445.9 95516.3 95120.3 97461.8 98507.2 95353.5 95279.7 92788.3 93141 93721.4 96444.5 94050.4
          94347.4 96471.1 98348 94908.8 94181.9 95189.8 95195.9 94359.6 92900.6 98159 91200.7 100010
          100334 90911.6 90930.3 100288 91227.9 99963.3 92865.2 98181.9 93939.5 97124.2 96074.2 94942.2
          95863.9 95140.3 94385.2 96681.1 97165.8 98588.8 92451.1 97374.5 98125.4 92897.6 93883.5 97102.6
          90732 100435 95901.3 95069.9 90977.9 100155 94614.5 96353.5 93680.6 97315.6 94950.3 96100.6
          96431.1 94602.6 93176.3 94306 96722.3 97871.1 91525.8 99557 94426.2 96546 93050.5 97961.1
          90715.6 100454 90659.6 100521 93151.1 97819.9 95183.8 95862 95275.3 90970.8 95676.7 100149
          93403.3 99068 93508.9 97461.2 95309.8 95584 92081.2 98971.4 96008.5 95026.7 98579.9 93552.7
          93712.6 97485.3 97317.5 92049.4 98193.8 91997.9 99035.8 93056.1 93479 97986.6 97543.6 90616.3
          100575 94838.3 96113.3 96051.3 94941.2 92678.4 98354.3 90945.7 100221 90908.3 100236 92758.8
          98221.9 97535.5 91985.2 99194.1 91878.3 92808.9 98968.8 92876.2 98083.7 98106.4 98969 92120.4
          90700.2 100560 90687.4 100532 92186.6 98841.7 95082.5 91563.9 95838.5 99473.1 99304.9 91818.3
          90994.4 100231 90994.7 100201 91863.6 99181.8 92627.2 98390 92655.1 98313.2 94429.7 94924.3
          96658.1 96139 95794.7 96369.1 95183.3 94607.8 91960.7 92223.9 99112.8 98819.5 93502.6 93651.3
          97196.6 91525.6 93772.6 90955.1 99533.5 97320.5 93645.5 91420.8 99642.1 100158 97470.4 97294.3
          90865.3 100278 94202.7 93441.7 93417.3 97651.4 97661.5 92485.1 93983.1 95161.3 97163.8 95861.2
          94379.3 95292.9 95705.5 95746.5 95327.9 92983.2 92513.4 91638 98502.5 99396.9 91612.1 99419.4
          92559.5 98404.2 94946.7 96546.6 96039.3 92557.6 92266.2 98486.2 98773.1 96639.8 94377.6 97123.9
          93886.8 93045 97994.6 93027.3 97966.5 93759.4 94021.3 97023 97292.9 93951.7 93656.5 91939.1
          91593.2 99135 99471.9 91597.1 91966.9 99422 99024 94330.6 94205.6 96614.1 96729.4 91344.6
          99703.8 90820 100327 93955.8 97019.1 90618.5 100549 90512.7 100700 94090.9 96865.6 96621.3
          94364.1 94985.5 96057.8 94460.3 96581.4 94433.6 96441 91669.1 99366.8 93504.5 92485.2 98574.6
          95708.4 95333.6
        </DataArray>
        <DataArray type="Float32" Name="rho_aq" NumberOfComponents="1" format="ascii">
          1000 1000 1000 1000 1000 1000 1000 1000 1000 1000 1000 1000
          1000 1000 1000 1000 1000 1000 1000 1000 1000 1000 1000 1000
          1000 1000 1000 1000 1000 1000 1000 1000 1000 1000 1000 1000
          1000 1000 1000 1000 1000 1000 1000 1000 1000 1000 1000 1000
          1000 1000 1000 1000 1000 1000 1000 1000 1000 1000 1000 1000
          1000 1000 1000 1000 1000 1000 1000 1000 1000 1000 1000 1000
          1000 1000 1000 1000 1000 1000 1000 1000 1000 1000 1000 1000
          1000 1000 1000 1000 1000 1000 1000 1000 1000 1000 1000 1000
          1000 1000 1000 1000 1000 1000 1000 1000 1000 1000 1000 1000
          1000 1000 1000 1000 1000 1000 1000 1000 1000 1000 1000 1000
          1000 1000 1000 1000 1000 1000 1000 1000 1000 1000 1000 1000
          1000 1000 1000 1000 1000 1000 1000 1000 1000 1000 1000 1000
          1000 1000 1000 1000 1000 1000 1000 1000 1000 1000 1000 1000
          1000 1000 1000 1000 1000 1000 1000 1000 1000 1000 1000 1000
          1000 1000 1000 1000 1000 1000 1000 1000 1000 1000 1000 1000
          1000 1000 1000 1000 1000 1000 1000 1000 1000 1000 1000 1000
          1000 1000 1000 1000 1000 1000 1000 1000 1000 1000 1000 1000
          1000 1000 1000 1000 1000 1000 1000 1000 1000 1000 1000 1000
          1000 1000 1000 1000 1000 1000 1000 1000 1000 1000 1000 1000
          1000 1000 1000 1000 1000 1000 1000 1000 1000 1000 1000 1000
          1000 1000 1000 1000 1000 1000 1000 1000 1000 1000 1000 1000
          1000 1000 1000 1000 1000 1000 1000 1000 1000 1000 1000 1000
          1000 1000 1000 1000 1000 1000 1000 1000 1000 1000 1000 1000
          1000 1000 1000 1000 1000 1000 1000 1000 1000 1000 1000 1000
          1000 1000 1000 1000 1000 1000 1000 1000 1000 1000 1000 1000
          1000 1000 1000 1000 1000 1000 1000 1000 1000 1000 1000 1000
          1000 1000 1000 1000 1000 1000 1000 1000 1000 1000 1000 1000
          1000 1000 1000 1000 1000 1000 1000 1000 1000 1000 1000 1000
          1000 1000 1000 1000 1000 1000 1000 1000 1000 1000 1000 1000
          1000 1000 1000 1000 1000 1000 1000 1000 1000 1000 1000 1000
          1000 1000 1000 1000 1000 1000 1000 1000 1000 1000 1000 1000
          1000 1000 1000 1000 1000 1000 1000 1000 1000 1000 1000 1000
          1000 1000 1000 1000 1000 1000 1000 1000 1000 1000 1000 1000
          1000 1000 1000 1000 1000 1000 1000 1000 1000 1000 1000 1000
          1000 1000 1000 1000 1000 1000 1000 1000 1000 1000 1000 1000
          1000 1000 1000 1000 1000 1000 1000 1000 1000 1000 1000 1000
          1000 1000 1000 1000 1000 1000 1000 1000 1000 1000 1000 1000
          1000 1000 1000 1000 1000 1000 1000 1000 1000 1000 1000 1000
          1000 1000 1000 1000 1000 1000 1000 1000 1000 1000 1000 1000
          1000 1000 1000 1000 1000 1000 1000 1000 1000 1000 1000 1000
          1000 1000 1000 1000 1000 1000 1000 1000 1000 1000 1000 1000
          1000 1000 1000 1000 1000 1000 1000 1000 1000 1000 1000 1000
          1000 1000 1000 1000 1000 1000 1000 1000 1000 1000 1000 1000
          1000 1000 1000 1000 1000 1000 1000 1000 1000 1000 1000 1000
          1000 1000 1000 1000 1000 1000 1000 1000 1000 1000 1000 1000
          1000 1000 1000 1000 1000 1000 1000 1000 1000 1000 1000 1000
          1000 1000 1000 1000 1000 1000 1000 1000 1000 1000 1000 1000
          1000 1000 1000 1000 1000 1000 1000 1000 1000 1000 1000 1000
          1000 1000 1000 1000 1000 1000 1000 1000 1000 1000 1000 1000
          1000 1000 1000 1000 1000 1000 1000 1000 1000 1000 1000 1000
          1000 1000 1000 1000 1000 1000 1000 1000 1000 1000 1000 1000
          1000 1000 1000 1000 1000 1000 1000 1000 1000 1000 1000 1000
          1000 1000 1000 1000 1000 1000 1000 1000 1000 1000 1000 1000
          1000 1000 1000 1000 1000 1000 1000 1000 1000 1000 1000 1000
          1000 1000 1000 1000 1000 1000 1000 1000 1000 1000 1000 1000
          1000 1000 1000 1000 1000 1000 1000 1000 1000 1000 1000 1000
          1000 1000 1000 1000 1000 1000 1000 1000 1000 1000 1000 1000
          1000 1000 1000 1000 1000 1000 1000 1000 1000 1000 1000 1000
          1000 1000 1000 1000 1000 1000 1000 1000 1000 1000 1000 1000
          1000 1000 1000 1000 1000 1000 1000 1000 1000 1000 1000 1000
          1000 1000 1000 1000 1000 1000 1000 1000 1000 1000 1000 1000
          1000 1000 1000 1000 1000 1000 1000 1000 1000 1000 1000 1000
          1000 1000 1000 1000 1000 1000 1000 1000 1000 1000 1000 1000
          1000 1000 1000 1000 1000 1000 1000 1000 1000 1000 1000 1000
          1000 1000 1000 1000 1000 1000 1000 1000 1000 1000 1000 1000
          1000 1000 1000 1000 1000 1000 1000 1000 1000 1000 1000 1000
          1000 1000 1000 1000 1000 1000 1000 1000 1000 1000 1000 1000
          1000 1000 1000 1000 1000 1000 1000 1000 1000 1000 1000 1000
          1000 1000 1000 1000 1000 1000 1000 1000 1000 1000 1000 1000
          1000 1000 1000 1000 1000 1000 1000 1000 1000 1000 1000 1000
          1000 1000 1000 1000 1000 1000 1000 1000 1000 1000 1000 1000
          1000 1000 1000 1000 1000 1000 1000 1000 1000 1000 1000 1000
          1000 1000 1000 1000 1000 1000 1000 1000 1000 1000 1000 1000
          1000 1000 1000 1000 1000 1000 1000 1000 1000 1000 1000 1000
          1000 1000 1000 1000 1000 1000 1000 1000 1000 1000 1000 1000
          1000 1000 1000 1000 1000 1000 1000 1000 1000 1000 1000 1000
          1000 1000 1000 1000 1000 1000 1000 1000 1000 1000 1000 1000
          1000 1000 1000 1000 1000 1000 1000 1000 1000 1000 1000 1000
          1000 1000 1000 1000 1000 1000 1000 1000 1000 1000 1000 1000
          1000 1000 1000 1000 1000 1000 1000 1000 1000 1000 1000 1000
          1000 1000 1000 1000 1000 1000 1000 1000 1000 1000 1000 1000
          1000 1000 1000 1000 1000 1000 1000 1000 1000 1000 1000 1000
          1000 1000 1000 1000 1000 1000 1000 1000 1000 1000 1000 1000
          1000 1000 1000 1000 1000 1000 1000 1000 1000 1000 1000 1000
          1000 1000 1000 1000 1000 1000 1000 1000 1000 1000 1000 1000
          1000 1000 1000 1000 1000 1000 1000 1000 1000 1000 1000 1000
          1000 1000 1000 1000 1000 1000 1000 1000 1000 1000 1000 1000
          1000 1000 1000 1000 1000 1000 1000 1000 1000 1000 1000 1000
          1000 1000 1000 1000 1000 1000 1000 1000 1000 1000 1000 1000
          1000 1000 1000 1000 1000 1000 1000 1000 1000 1000 1000 1000
          1000 1000 1000 1000 1000 1000 1000 1000 1000 1000 1000 1000
          1000 1000 1000 1000 1000 1000 1000 1000 1000 1000 1000 1000
          1000 1000 1000 1000 1000 1000 1000 1000 1000 1000 1000 1000
          1000 1000 1000 1000 1000 1000 1000 1000 1000 1000 1000 1000
          1000 1000 1000 1000 1000 1000 1000 1000 1000 1000 1000 1000
          1000 1000 1000 1000 1000 1000 1000 1000 1000 1000 1000 1000
          1000 1000 1000 1000 1000 1000 1000 1000 1000 1000 1000 1000
          1000 1000 1000 1000 1000 1000 1000 1000 1000 1000 1000 1000
          1000 1000 1000 1000 1000 1000 1000 1000 1000 1000 1000 1000
          1000 1000 1000 1000 1000 1000 1000 1000 1000 1000 1000 1000
          1000 1000 1000 1000 1000 1000 1000 1000 1000 1000 1000 1000
          1000 1000 1000 1000 1000 1000 1000 1000 1000 1000 1000 1000
          1000 1000 1000 1000 1000 1000 1000 1000 1000 1000 1000 1000
          1000 1000 1000 1000 1000 1000 1000 1000 1000 1000 1000 1000
          1000 1000 1000 1000 1000 1000 1000 1000 1000 1000 1000 1000
          1000 1000 1000 1000 1000 1000 1000 1000 1000 1000 1000 1000
          1000 1000 1000 1000 1000 1000 1000 1000 1000 1000 1000 1000
          1000 1000 1000 1000 1000 1000 1000 1000 1000 1000 1000 1000