<?xml version="1.0"?>
<VTKFile type="UnstructuredGrid" version="0.1" byte_order="LittleEndian">
  <UnstructuredGrid>
    <Piece NumberOfCells="1492" NumberOfPoints="1640">
      <CellData Scalars="p">
        <DataArray type="Float32" Name="p" NumberOfComponents="1" format="ascii">
          1.0356e+06 1.0581e+06 1.06708e+06 1.07123e+06 1.07297e+06 1.07297e+06 1.07123e+06 1.06708e+06 1.0581e+06 1.0356e+06 1.03439e+06 1.06035e+06
          1.07686e+06 1.09845e+06 1.1555e+06 1.18781e+06 1.20605e+06 1.21611e+06 1.22065e+06 1.22065e+06 1.21611e+06 1.20605e+06 1.18781e+06 1.1555e+06
          1.09845e+06 1.07686e+06 1.06035e+06 1.03439e+06 1.03961e+06 1.08073e+06 1.14602e+06 1.1905e+06 1.2255e+06 1.25988e+06 1.30014e+06 1.33158e+06
          1.35319e+06 1.36653e+06 1.37287e+06 1.37287e+06 1.36653e+06 1.35319e+06 1.33158e+06 1.30014e+06 1.25988e+06 1.2255e+06 1.1905e+06 1.14602e+06
          1.08073e+06 1.03961e+06 1.03746e+06 1.08187e+06 1.15692e+06 1.21802e+06 1.27844e+06 1.33014e+06 1.37475e+06 1.41544e+06 1.45361e+06 1.48518e+06
          1.50862e+06 1.52392e+06 1.53144e+06 1.53144e+06 1.52392e+06 1.50862e+06 1.48518e+06 1.45361e+06 1.41544e+06 1.37475e+06 1.33014e+06 1.27844e+06
          1.21802e+06 1.15692e+06 1.08187e+06 1.03746e+06 1.05344e+06 1.14289e+06 1.21497e+06 1.28818e+06 1.35601e+06 1.41956e+06 1.47687e+06 1.52793e+06
          1.57351e+06 1.61366e+06 1.64691e+06 1.6722e+06 1.68909e+06 1.69753e+06 1.69753e+06 1.68909e+06 1.6722e+06 1.64691e+06 1.61366e+06 1.57351e+06
          1.52793e+06 1.47687e+06 1.41956e+06 1.35601e+06 1.28818e+06 1.21497e+06 1.14289e+06 1.05344e+06 1.03708e+06 1.08624e+06 1.17773e+06 1.26571e+06
          1.34693e+06 1.42481e+06 1.49828e+06 1.56693e+06 1.62985e+06 1.6866e+06 1.737e+06 1.78063e+06 1.81661e+06 1.84415e+06 1.86272e+06 1.87206e+06
          1.87206e+06 1.86272e+06 1.84415e+06 1.81661e+06 1.78063e+06 1.737e+06 1.6866e+06 1.62985e+06 1.56693e+06 1.49828e+06 1.42481e+06 1.34693e+06
          1.26571e+06 1.17773e+06 1.08624e+06 1.03708e+06 1.04738e+06 1.13624e+06 1.2164e+06 1.30552e+06 1.39529e+06 1.48223e+06 1.56586e+06 1.64537e+06
          1.72003e+06 1.789e+06 1.85162e+06 1.90725e+06 1.95524e+06 1.99476e+06 2.02507e+06 2.04559e+06 2.05593e+06 2.05593e+06 2.04559e+06 2.02507e+06
          1.99476e+06 1.95524e+06 1.90725e+06 1.85162e+06 1.789e+06 1.72003e+06 1.64537e+06 1.56586e+06 1.48223e+06 1.39529e+06 1.30552e+06 1.2164e+06
          1.13624e+06 1.04738e+06 1.04934e+06 1.14803e+06 1.24411e+06 1.33759e+06 1.43267e+06 1.52769e+06 1.62084e+06 1.71103e+06 1.79732e+06 1.8788e+06
          1.95452e+06 2.02361e+06 2.08517e+06 2.13831e+06 2.18213e+06 2.21579e+06 2.23862e+06 2.25015e+06 2.25015e+06 2.23862e+06 2.21579e+06 2.18213e+06
          2.13831e+06 2.08517e+06 2.02361e+06 1.95452e+06 1.8788e+06 1.79732e+06 1.71103e+06 1.62084e+06 1.52769e+06 1.43267e+06 1.33759e+06 1.24411e+06
          1.14803e+06 1.04934e+06 1.04738e+06 1.14803e+06 1.2513e+06 1.35456e+06 1.45719e+06 1.55987e+06 1.66197e+06 1.76239e+06 1.86011e+06 1.95409e+06
          2.04331e+06 2.12668e+06 2.20312e+06 2.2715e+06 2.3307e+06 2.37965e+06 2.41733e+06 2.44295e+06 2.4559e+06 2.4559e+06 2.44295e+06 2.41733e+06
          2.37965e+06 2.3307e+06 2.2715e+06 2.20312e+06 2.12668e+06 2.04331e+06 1.95409e+06 1.86011e+06 1.76239e+06 1.66197e+06 1.55987e+06 1.45719e+06
          1.35456e+06 1.2513e+06 1.14803e+06 1.04738e+06 1.03708e+06 1.13624e+06 1.24411e+06 1.35456e+06 1.46565e+06 1.57674e+06 1.68767e+06 1.79792e+06
          1.90665e+06 2.01291e+06 2.11563e+06 2.21367e+06 2.30579e+06 2.39068e+06 2.467e+06 2.53336e+06 2.58842e+06 2.63095e+06 2.65993e+06 2.67461e+06
          2.67461e+06 2.65993e+06 2.63095e+06 2.58842e+06 2.53336e+06 2.467e+06 2.39068e+06 2.30579e+06 2.21367e+06 2.11563e+06 2.01291e+06 1.90665e+06
          1.79792e+06 1.68767e+06 1.57674e+06 1.46565e+06 1.35456e+06 1.24411e+06 1.13624e+06 1.03708e+06 1.08624e+06 1.2164e+06 1.33759e+06 1.45719e+06
          1.57674e+06 1.69644e+06 1.81615e+06 1.93538e+06 2.05339e+06 2.16925e+06 2.28186e+06 2.38994e+06 2.49211e+06 2.58683e+06 2.67246e+06 2.74732e+06
          2.80973e+06 2.85813e+06 2.89121e+06 2.908e+06 2.908e+06 2.89121e+06 2.85813e+06 2.80973e+06 2.74732e+06 2.67246e+06 2.58683e+06 2.49211e+06
          2.38994e+06 2.28186e+06 2.16925e+06 2.05339e+06 1.93538e+06 1.81615e+06 1.69644e+06 1.57674e+06 1.45719e+06 1.33759e+06 1.2164e+06 1.08624e+06
          1.05344e+06 1.17773e+06 1.30552e+06 1.43267e+06 1.55987e+06 1.68767e+06 1.81615e+06 1.9451e+06 2.07406e+06 2.20229e+06 2.32886e+06 2.4526e+06
          2.57214e+06 2.68589e+06 2.79206e+06 2.8887e+06 2.97373e+06 3.04503e+06 3.10062e+06 3.13877e+06 3.15818e+06 3.15818e+06 3.13877e+06 3.10062e+06
          3.04503e+06 2.97373e+06 2.8887e+06 2.79206e+06 2.68589e+06 2.57214e+06 2.4526e+06 2.32886e+06 2.20229e+06 2.07406e+06 1.9451e+06 1.81615e+06
          1.68767e+06 1.55987e+06 1.43267e+06 1.30552e+06 1.17773e+06 1.05344e+06 1.03746e+06 1.14289e+06 1.26571e+06 1.39529e+06 1.52769e+06 1.66197e+06
          1.79792e+06 1.93538e+06 2.07406e+06 2.21345e+06 2.35285e+06 2.49128e+06 2.62754e+06 2.76012e+06 2.88724e+06 3.00683e+06 3.11655e+06 3.21385e+06
          3.29606e+06 3.36057e+06 3.40506e+06 3.42778e+06 3.42778e+06 3.40506e+06 3.36057e+06 3.29606e+06 3.21385e+06 3.11655e+06 3.00683e+06 2.88724e+06
          2.76012e+06 2.62754e+06 2.49128e+06 2.35285e+06 2.21345e+06 2.07406e+06 1.93538e+06 1.79792e+06 1.66197e+06 1.52769e+06 1.39529e+06 1.26571e+06
          1.14289e+06 1.03746e+06 1.08187e+06 1.21497e+06 1.34693e+06 1.48223e+06 1.62084e+06 1.76239e+06 1.90665e+06 2.05339e+06 2.20229e+06 2.35285e+06
          2.50437e+06 2.65589e+06 2.80615e+06 2.95356e+06 3.09612e+06 3.23147e+06 3.35683e+06 3.35683e+06 3.23147e+06 3.09612e+06 2.95356e+06 2.80615e+06
          2.65589e+06 2.50437e+06 2.35285e+06 2.20229e+06 2.05339e+06 1.90665e+06 1.76239e+06 1.62084e+06 1.48223e+06 1.34693e+06 1.21497e+06 1.08187e+06
          1.03961e+06 1.15692e+06 1.28818e+06 1.42481e+06 1.56586e+06 1.71103e+06 1.86011e+06 2.01291e+06 2.16925e+06 2.32886e+06 2.49128e+06 2.65589e+06
          2.82176e+06 2.98763e+06 3.15183e+06 3.31222e+06 3.31222e+06 3.15183e+06 2.98763e+06 2.82176e+06 2.65589e+06 2.49128e+06 2.32886e+06 2.16925e+06
          2.01291e+06 1.86011e+06 1.71103e+06 1.56586e+06 1.42481e+06 1.28818e+06 1.15692e+06 1.03961e+06 1.08073e+06 1.21802e+06 1.35601e+06 1.49828e+06
          1.64537e+06 1.79732e+06 1.95409e+06 2.11563e+06 2.28186e+06 2.4526e+06 2.62754e+06 2.80615e+06 2.98763e+06 3.17077e+06 3.35392e+06 3.35392e+06
          3.17077e+06 2.98763e+06 2.80615e+06 2.62754e+06 2.4526e+06 2.28186e+06 2.11563e+06 1.95409e+06 1.79732e+06 1.64537e+06 1.49828e+06 1.35601e+06
          1.21802e+06 1.08073e+06 1.03439e+06 1.14602e+06 1.27844e+06 1.41956e+06 1.56693e+06 1.72003e+06 1.8788e+06 2.04331e+06 2.21367e+06 2.38994e+06
          2.57214e+06 2.76012e+06 2.95356e+06 3.15183e+06 3.35392e+06 3.35392e+06 3.15183e+06 2.95356e+06 2.76012e+06 2.57214e+06 2.38994e+06 2.21367e+06
          2.04331e+06 1.8788e+06 1.72003e+06 1.56693e+06 1.41956e+06 1.27844e+06 1.14602e+06 1.03439e+06 1.06035e+06 1.1905e+06 1.33014e+06 1.47687e+06
          1.62985e+06 1.789e+06 1.95452e+06 2.12668e+06 2.30579e+06 2.49211e+06 2.68589e+06 2.88724e+06 3.09612e+06 3.31222e+06 3.31222e+06 3.09612e+06
          2.88724e+06 2.68589e+06 2.49211e+06 2.30579e+06 2.12668e+06 1.95452e+06 1.789e+06 1.62985e+06 1.47687e+06 1.33014e+06 1.1905e+06 1.06035e+06
          1.07686e+06 1.2255e+06 1.37475e+06 1.52793e+06 1.6866e+06 1.85162e+06 2.02361e+06 2.20312e+06 2.39068e+06 2.58683e+06 2.79206e+06 3.00683e+06
          3.23147e+06 3.23147e+06 3.00683e+06 2.79206e+06 2.58683e+06 2.39068e+06 2.20312e+06 2.02361e+06 1.85162e+06 1.6866e+06 1.52793e+06 1.37475e+06
          1.2255e+06 1.07686e+06 1.09845e+06 1.25988e+06 1.41544e+06 1.57351e+06 1.737e+06 1.90725e+06 2.08517e+06 2.2715e+06 2.467e+06 2.67246e+06
          2.8887e+06 3.11655e+06 3.35683e+06 3.35683e+06 3.11655e+06 2.8887e+06 2.67246e+06 2.467e+06 2.2715e+06 2.08517e+06 1.90725e+06 1.737e+06
          1.57351e+06 1.41544e+06 1.25988e+06 1.09845e+06 1.0356e+06 1.1555e+06 1.30014e+06 1.45361e+06 1.61366e+06 1.78063e+06 1.95524e+06 2.13831e+06
          2.3307e+06 2.53336e+06 2.74732e+06 2.97373e+06 3.21385e+06 3.21385e+06 2.97373e+06 2.74732e+06 2.53336e+06 2.3307e+06 2.13831e+06 1.95524e+06
          1.78063e+06 1.61366e+06 1.45361e+06 1.30014e+06 1.1555e+06 1.0356e+06 1.0581e+06 1.18781e+06 1.33158e+06 1.48518e+06 1.64691e+06 1.81661e+06
          1.99476e+06 2.18213e+06 2.37965e+06 2.58842e+06 2.80973e+06 3.04503e+06 3.29606e+06 3.29606e+06 3.04503e+06 2.80973e+06 2.58842e+06 2.37965e+06
          2.18213e+06 1.99476e+06 1.81661e+06 1.64691e+06 1.48518e+06 1.33158e+06 1.18781e+06 1.0581e+06 1.06708e+06 1.20605e+06 1.35319e+06 1.50862e+06
          1.6722e+06 1.84415e+06 2.02507e+06 2.21579e+06 2.41733e+06 2.63095e+06 2.85813e+06 3.10062e+06 3.36057e+06 3.36057e+06 3.10062e+06 2.85813e+06
          2.63095e+06 2.41733e+06 2.21579e+06 2.02507e+06 1.84415e+06 1.6722e+06 1.50862e+06 1.35319e+06 1.20605e+06 1.06708e+06 1.07123e+06 1.21611e+06
          1.36653e+06 1.52392e+06 1.68909e+06 1.86272e+06 2.04559e+06 2.23862e+06 2.44295e+06 2.65993e+06 2.89121e+06 3.13877e+06 3.40506e+06 3.40506e+06
          3.13877e+06 2.89121e+06 2.65993e+06 2.44295e+06 2.23862e+06 2.04559e+06 1.86272e+06 1.68909e+06 1.52392e+06 1.36653e+06 1.21611e+06 1.07123e+06
          1.07297e+06 1.22065e+06 1.37287e+06 1.53144e+06 1.69753e+06 1.87206e+06 2.05593e+06 2.25015e+06 2.4559e+06 2.67461e+06 2.908e+06 3.15818e+06
          3.42778e+06 3.42778e+06 3.15818e+06 2.908e+06 2.67461e+06 2.4559e+06 2.25015e+06 2.05593e+06 1.87206e+06 1.69753e+06 1.53144e+06 1.37287e+06
          1.22065e+06 1.07297e+06 1.07297e+06 1.22065e+06 1.37287e+06 1.53144e+06 1.69753e+06 1.87206e+06 2.05593e+06 2.25015e+06 2.4559e+06 2.67461e+06
          2.908e+06 3.15818e+06 3.42778e+06 3.42778e+06 3.15818e+06 2.908e+06 2.67461e+06 2.4559e+06 2.25015e+06 2.05593e+06 1.87206e+06 1.69753e+06
          1.53144e+06 1.37287e+06 1.22065e+06 1.07297e+06 1.07123e+06 1.21611e+06 1.36653e+06 1.52392e+06 1.68909e+06 1.86272e+06 2.04559e+06 2.23862e+06
          2.44295e+06 2.65993e+06 2.89121e+06 3.13877e+06 3.40506e+06 3.40506e+06 3.13877e+06 2.89121e+06 2.65993e+06 2.44295e+06 2.23862e+06 2.04559e+06
          1.86272e+06 1.68909e+06 1.52392e+06 1.36653e+06 1.21611e+06 1.07123e+06 1.06708e+06 1.20605e+06 1.35319e+06 1.50862e+06 1.6722e+06 1.84415e+06
          2.02507e+06 2.21579e+06 2.41733e+06 2.63095e+06 2.85813e+06 3.10062e+06 3.36057e+06 3.36057e+06 3.10062e+06 2.85813e+06 2.63095e+06 2.41733e+06
          2.21579e+06 2.02507e+06 1.84415e+06 1.6722e+06 1.50862e+06 1.35319e+06 1.20605e+06 1.06708e+06 1.0581e+06 1.18781e+06 1.33158e+06 1.48518e+06
          1.64691e+06 1.81661e+06 1.99476e+06 2.18213e+06 2.37965e+06 2.58842e+06 2.80973e+06 3.04503e+06 3.29606e+06 3.29606e+06 3.04503e+06 2.80973e+06
          2.58842e+06 2.37965e+06 2.18213e+06 1.99476e+06 1.81661e+06 1.64691e+06 1.48518e+06 1.33158e+06 1.18781e+06 1.0581e+06 1.0356e+06 1.1555e+06
          1.30014e+06 1.45361e+06 1.61366e+06 1.78063e+06 1.95524e+06 2.13831e+06 2.3307e+06 2.53336e+06 2.74732e+06 2.97373e+06 3.21385e+06 3.21385e+06
          2.97373e+06 2.74732e+06 2.53336e+06 2.3307e+06 2.13831e+06 1.95524e+06 1.78063e+06 1.61366e+06 1.45361e+06 1.30014e+06 1.1555e+06 1.0356e+06
          1.09845e+06 1.25988e+06 1.41544e+06 1.57351e+06 1.737e+06 1.90725e+06 2.08517e+06 2.2715e+06 2.467e+06 2.67246e+06 2.8887e+06 3.11655e+06
          3.35683e+06 3.35683e+06 3.11655e+06 2.8887e+06 2.67246e+06 2.467e+06 2.2715e+06 2.08517e+06 1.90725e+06 1.737e+06 1.57351e+06 1.41544e+06
          1.25988e+06 1.09845e+06 1.07686e+06 1.2255e+06 1.37475e+06 1.52793e+06 1.6866e+06 1.85162e+06 2.02361e+06 2.20312e+06 2.39068e+06 2.58683e+06
          2.79206e+06 3.00683e+06 3.23147e+06 3.23147e+06 3.00683e+06 2.79206e+06 2.58683e+06 2.39068e+06 2.20312e+06 2.02361e+06 1.85162e+06 1.6866e+06
          1.52793e+06 1.37475e+06 1.2255e+06 1.07686e+06 1.06035e+06 1.1905e+06 1.33014e+06 1.47687e+06 1.62985e+06 1.789e+06 1.95452e+06 2.12668e+06
          2.30579e+06 2.49211e+06 2.68589e+06 2.88724e+06 3.09612e+06 3.31222e+06 3.31222e+06 3.09612e+06 2.88724e+06 2.68589e+06 2.49211e+06 2.30579e+06
          2.12668e+06 1.95452e+06 1.789e+06 1.62985e+06 1.47687e+06 1.33014e+06 1.1905e+06 1.06035e+06 1.03439e+06 1.14602e+06 1.27844e+06 1.41956e+06
          1.56693e+06 1.72003e+06 1.8788e+06 2.04331e+06 2.21367e+06 2.38994e+06 2.57214e+06 2.76012e+06 2.95356e+06 3.15183e+06 3.35392e+06 3.35392e+06
          3.15183e+06 2.95356e+06 2.76012e+06 2.57214e+06 2.38994e+06 2.21367e+06 2.04331e+06 1.8788e+06 1.72003e+06 1.56693e+06 1.41956e+06 1.27844e+06
          1.14602e+06 1.03439e+06 1.08073e+06 1.21802e+06 1.35601e+06 1.49828e+06 1.64537e+06 1.79732e+06 1.95409e+06 2.11563e+06 2.28186e+06 2.4526e+06
          2.62754e+06 2.80615e+06 2.98763e+06 3.17077e+06 3.35392e+06 3.35392e+06 3.17077e+06 2.98763e+06 2.80615e+06 2.62754e+06 2.4526e+06 2.28186e+06
          2.11563e+06 1.95409e+06 1.79732e+06 1.64537e+06 1.49828e+06 1.35601e+06 1.21802e+06 1.08073e+06 1.03961e+06 1.15692e+06 1.28818e+06 1.42481e+06
          1.56586e+06 1.71103e+06 1.86011e+06 2.01291e+06 2.16925e+06 2.32886e+06 2.49128e+06 2.65589e+06 2.82176e+06 2.98763e+06 3.15183e+06 3.31222e+06
          3.31222e+06 3.15183e+06 2.98763e+06 2.82176e+06 2.65589e+06 2.49128e+06 2.32886e+06 2.16925e+06 2.01291e+06 1.86011e+06 1.71103e+06 1.56586e+06
          1.42481e+06 1.28818e+06 1.15692e+06 1.03961e+06 1.08187e+06 1.21497e+06 1.34693e+06 1.48223e+06 1.62084e+06 1.76239e+06 1.90665e+06 2.05339e+06
          2.20229e+06 2.35285e+06 2.50437e+06 2.65589e+06 2.80615e+06 2.95356e+06 3.09612e+06 3.23147e+06 3.35683e+06 3.35683e+06 3.23147e+06 3.09612e+06
          2.95356e+06 2.80615e+06 2.65589e+06 2.50437e+06 2.35285e+06 2.20229e+06 2.05339e+06 1.90665e+06 1.76239e+06 1.62084e+06 1.48223e+06 1.34693e+06
          1.21497e+06 1.08187e+06 1.03746e+06 1.14289e+06 1.26571e+06 1.39529e+06 1.52769e+06 1.66197e+06 1.79792e+06 1.93538e+06 2.07406e+06 2.21345e+06
          2.35285e+06 2.49128e+06 2.62754e+06 2.76012e+06 2.88724e+06 3.00683e+06 3.11655e+06 3.21385e+06 3.29606e+06 3.36057e+06 3.40506e+06 3.42778e+06
          3.42778e+06 3.40506e+06 3.36057e+06 3.29606e+06 3.21385e+06 3.11655e+06 3.00683e+06 2.88724e+06 2.76012e+06 2.62754e+06 2.49128e+06 2.35285e+06
          2.21345e+06 2.07406e+06 1.93538e+06 1.79792e+06 1.66197e+06 1.52769e+06 1.39529e+06 1.26571e+06 1.14289e+06 1.03746e+06 1.05344e+06 1.17773e+06
          1.30552e+06 1.43267e+06 1.55987e+06 1.68767e+06 1.81615e+06 1.9451e+06 2.07406e+06 2.20229e+06 2.32886e+06 2.4526e+06 2.57214e+06 2.68589e+06
          2.79206e+06 2.8887e+06 2.97373e+06 3.04503e+06 3.10062e+06 3.13877e+06 3.15818e+06 3.15818e+06 3.13877e+06 3.10062e+06 3.04503e+06 2.97373e+06
          2.8887e+06 2.79206e+06 2.68589e+06 2.57214e+06 2.4526e+06 2.32886e+06 2.20229e+06 2.07406e+06 1.9451e+06 1.81615e+06 1.68767e+06 1.55987e+06
          1.43267e+06 1.30552e+06 1.17773e+06 1.05344e+06 1.08624e+06 1.2164e+06 1.33759e+06 1.45719e+06 1.57674e+06 1.69644e+06 1.81615e+06 1.93538e+06
          2.05339e+06 2.16925e+06 2.28186e+06 2.38994e+06 2.49211e+06 2.58683e+06 2.67246e+06 2.74732e+06 2.80973e+06 2.85813e+06 2.89121e+06 2.908e+06
          2.908e+06 2.89121e+06 2.85813e+06 2.80973e+06 2.74732e+06 2.67246e+06 2.58683e+06 2.49211e+06 2.38994e+06 2.28186e+06 2.16925e+06 2.05339e+06
          1.93538e+06 1.81615e+06 1.69644e+06 1.57674e+06 1.45719e+06 1.33759e+06 1.2164e+06 1.08624e+06 1.03708e+06 1.13624e+06 1.24411e+06 1.35456e+06
          1.46565e+06 1.57674e+06 1.68767e+06 1.79792e+06 1.90665e+06 2.01291e+06 2.11563e+06 2.21367e+06 2.30579e+06 2.39068e+06 2.467e+06 2.53336e+06
          2.58842e+06 2.63095e+06 2.65993e+06 2.67461e+06 2.67461e+06 2.65993e+06 2.63095e+06 2.58842e+06 2.53336e+06 2.467e+06 2.39068e+06 2.30579e+06
          2.21367e+06 2.11563e+06 2.01291e+06 1.90665e+06 1.79792e+06 1.68767e+06 1.57674e+06 1.46565e+06 1.35456e+06 1.24411e+06 1.13624e+06 1.03708e+06
          1.04738e+06 1.14803e+06 1.2513e+06 1.35456e+06 1.45719e+06 1.55987e+06 1.66197e+06 1.76239e+06 1.86011e+06 1.95409e+06 2.04331e+06 2.12668e+06
          2.20312e+06 2.2715e+06 2.3307e+06 2.37965e+06 2.41733e+06 2.44295e+06 2.4559e+06 2.4559e+06 2.44295e+06 2.41733e+06 2.37965e+06 2.3307e+06
          2.2715e+06 2.20312e+06 2.12668e+06 2.04331e+06 1.95409e+06 1.86011e+06 1.76239e+06 1.66197e+06 1.55987e+06 1.45719e+06 1.35456e+06 1.2513e+06
          1.14803e+06 1.04738e+06 1.04934e+06 1.14803e+06 1.24411e+06 1.33759e+06 1.43267e+06 1.52769e+06 1.62084e+06 1.71103e+06 1.79732e+06 1.8788e+06
          1.95452e+06 2.02361e+06 2.08517e+06 2.13831e+06 2.18213e+06 2.21579e+06 2.23862e+06 2.25015e+06 2.25015e+06 2.23862e+06 2.21579e+06 2.18213e+06
          2.13831e+06 2.08517e+06 2.02361e+06 1.95452e+06 1.8788e+06 1.79732e+06 1.71103e+06 1.62084e+06 1.52769e+06 1.43267e+06 1.33759e+06 1.24411e+06
          1.14803e+06 1.04934e+06 1.04738e+06 1.13624e+06 1.2164e+06 1.30552e+06 1.39529e+06 1.48223e+06 1.56586e+06 1.64537e+06 1.72003e+06 1.789e+06
          1.85162e+06 1.90725e+06 1.95524e+06 1.99476e+06 2.02507e+06 2.04559e+06 2.05593e+06 2.05593e+06 2.04559e+06 2.02507e+06 1.99476e+06 1.95524e+06
          1.90725e+06 1.85162e+06 1.789e+06 1.72003e+06 1.64537e+06 1.56586e+06 1.48223e+06 1.39529e+06 1.30552e+06 1.2164e+06 1.13624e+06 1.04738e+06
          1.03708e+06 1.08624e+06 1.17773e+06 1.26571e+06 1.34693e+06 1.42481e+06 1.49828e+06 1.56693e+06 1.62985e+06 1.6866e+06 1.737e+06 1.78063e+06
          1.81661e+06 1.84415e+06 1.86272e+06 1.87206e+06 1.87206e+06 1.86272e+06 1.84415e+06 1.81661e+06 1.78063e+06 1.737e+06 1.6866e+06 1.62985e+06
          1.56693e+06 1.49828e+06 1.42481e+06 1.34693e+06 1.26571e+06 1.17773e+06 1.08624e+06 1.03708e+06 1.05344e+06 1.14289e+06 1.21497e+06 1.28818e+06
          1.35601e+06 1.41956e+06 1.47687e+06 1.52793e+06 1.57351e+06 1.61366e+06 1.64691e+06 1.6722e+06 1.68909e+06 1.69753e+06 1.69753e+06 1.68909e+06
          1.6722e+06 1.64691e+06 1.61366e+06 1.57351e+06 1.52793e+06 1.47687e+06 1.41956e+06 1.35601e+06 1.28818e+06 1.21497e+06 1.14289e+06 1.05344e+06
          1.03746e+06 1.08187e+06 1.15692e+06 1.21802e+06 1.27844e+06 1.33014e+06 1.37475e+06 1.41544e+06 1.45361e+06 1.48518e+06 1.50862e+06 1.52392e+06
          1.53144e+06 1.53144e+06 1.52392e+06 1.50862e+06 1.48518e+06 1.45361e+06 1.41544e+06 1.37475e+06 1.33014e+06 1.27844e+06 1.21802e+06 1.15692e+06
          1.08187e+06 1.03746e+06 1.03961e+06 1.08073e+06 1.14602e+06 1.1905e+06 1.2255e+06 1.25988e+06 1.30014e+06 1.33158e+06 1.35319e+06 1.36653e+06
          1.37287e+06 1.37287e+06 1.36653e+06 1.35319e+06 1.33158e+06 1.30014e+06 1.25988e+06 1.2255e+06 1.1905e+06 1.14602e+06 1.08073e+06 1.03961e+06
          1.03439e+06 1.06035e+06 1.07686e+06 1.09845e+06 1.1555e+06 1.18781e+06 1.20605e+06 1.21611e+06 1.22065e+06 1.22065e+06 1.21611e+06 1.20605e+06
          1.18781e+06 1.1555e+06 1.09845e+06 1.07686e+06 1.06035e+06 1.03439e+06 1.0356e+06 1.0581e+06 1.06708e+06 1.07123e+06 1.07297e+06 1.07297e+06
          1.07123e+06 1.06708e+06 1.0581e+06 1.0356e+06
        </DataArray>
        <DataArray type="Float32" Name="process rank" NumberOfComponents="1" format="ascii">
          0 0 0 0 0 0 0 0 0 0 0 0
          0 0 0 0 0 0 0 0 0 0 0 0
          0 0 0 0 0 0 0 0 0 0 0 0
          0 0 0 0 0 0 0 0 0 0 0 0
          0 0 0 0 0 0 0 0 0 0 0 0
          0 0 0 0 0 0 0 0 0 0 0 0
          0 0 0 0 0 0 0 0 0 0 0 0
          0 0 0 0 0 0 0 0 0 0 0 0
          0 0 0 0 0 0 0 0 0 0 0 0
          0 0 0 0 0 0 0 0 0 0 0 0
          0 0 0 0 0 0 0 0 0 0 0 0
          0 0 0 0 0 0 0 0 0 0 0 0
          0 0 0 0 0 0 0 0 0 0 0 0
          0 0 0 0 0 0 0 0 0 0 0 0
          0 0 0 0 0 0 0 0 0 0 0 0
          0 0 0 0 0 0 0 0 0 0 0 0
          0 0 0 0 0 0 0 0 0 0 0 0
          0 0 0 0 0 0 0 0 0 0 0 0
          0 0 0 0 0 0 0 0 0 0 0 0
          0 0 0 0 0 0 0 0 0 0 0 0
          0 0 0 0 0 0 0 0 0 0 0 0
          0 0 0 0 0 0 0 0 0 0 0 0
          0 0 0 0 0 0 0 0 0 0 0 0
          0 0 0 0 0 0 0 0 0 0 0 0
          0 0 0 0 0 0 0 0 0 0 0 0
          0 0 0 0 0 0 0 0 0 0 0 0
          0 0 0 0 0 0 0 0 0 0 0 0
          0 0 0 0 0 0 0 0 0 0 0 0
          0 0 0 0 0 0 0 0 0 0 0 0
          0 0 0 0 0 0 0 0 0 0 0 0
          0 0 0 0 0 0 0 0 0 0 0 0
          0 0 0 0 0 0 0 0 0 0 0 0
          0 0 0 0 0 0 0 0 0 0 0 0
          0 0 0 0 0 0 0 0 0 0 0 0
          0 0 0 0 0 0 0 0 0 0 0 0
          0 0 0 0 0 0 0 0 0 0 0 0
          0 0 0 0 0 0 0 0 0 0 0 0
          0 0 0 0 0 0 0 0 0 0 0 0
          0 0 0 0 0 0 0 0 0 0 0 0
          0 0 0 0 0 0 0 0 0 0 0 0
          0 0 0 0 0 0 0 0 0 0 0 0
          0 0 0 0 0 0 0 0 0 0 0 0
          0 0 0 0 0 0 0 0 0 0 0 0
          0 0 0 0 0 0 0 0 0 0 0 0
          0 0 0 0 0 0 0 0 0 0 0 0
          0 0 0 0 0 0 0 0 0 0 0 0
          0 0 0 0 0 0 0 0 0 0 0 0
          0 0 0 0 0 0 0 0 0 0 0 0
          0 0 0 0 0 0 0 0 0 0 0 0
          0 0 0 0 0 0 0 0 0 0 0 0
          0 0 0 0 0 0 0 0 0 0 0 0
          0 0 0 0 0 0 0 0 0 0 0 0
          0 0 0 0 0 0 0 0 0 0 0 0
          0 0 0 0 0 0 0 0 0 0 0 0
          0 0 0 0 0 0 0 0 0 0 0 0
          0 0 0 0 0 0 0 0 0 0 0 0
          0 0 0 0 0 0 0 0 0 0 0 0
          0 0 0 0 0 0 0 0 0 0 0 0
          0 0 0 0 0 0 0 0 0 0 0 0
          0 0 0 0 0 0 0 0 0 0 0 0
          0 0 0 0 0 0 0 0 0 0 0 0
          0 0 0 0 0 0 0 0 0 0 0 0
          0 0 0 0 0 0 0 0 0 0 0 0
          0 0 0 0 0 0 0 0 0 0 0 0
          0 0 0 0 0 0 0 0 0 0 0 0
          0 0 0 0 0 0 0 0 0 0 0 0
          0 0 0 0 0 0 0 0 0 0 0 0
          0 0 0 0 0 0 0 0 0 0 0 0
          0 0 0 0 0 0 0 0 0 0 0 0
          0 0 0 0 0 0 0 0 0 0 0 0
          0 0 0 0 0 0 0 0 0 0 0 0
          0 0 0 0 0 0 0 0 0 0 0 0
          0 0 0 0 0 0 0 0 0 0 0 0
          0 0 0 0 0 0 0 0 0 0 0 0
          0 0 0 0 0 0 0 0 0 0 0 0
          0 0 0 0 0 0 0 0 0 0 0 0
          0 0 0 0 0 0 0 0 0 0 0 0
          0 0 0 0 0 0 0 0 0 0 0 0
          0 0 0 0 0 0 0 0 0 0 0 0
          0 0 0 0 0 0 0 0 0 0 0 0
          0 0 0 0 0 0 0 0 0 0 0 0
          0 0 0 0 0 0 0 0 0 0 0 0
          0 0 0 0 0 0 0 0 0 0 0 0
          0 0 0 0 0 0 0 0 0 0 0 0
          0 0 0 0 0 0 0 0 0 0 0 0
          0 0 0 0 0 0 0 0 0 0 0 0
          0 0 0 0 0 0 0 0 0 0 0 0
          0 0 0 0 0 0 0 0 0 0 0 0
          0 0 0 0 0 0 0 0 0 0 0 0
          0 0 0 0 0 0 0 0 0 0 0 0
          0 0 0 0 0 0 0 0 0 0 0 0
          0 0 0 0 0 0 0 0 0 0 0 0
          0 0 0 0 0 0 0 0 0 0 0 0
          0 0 0 0 0 0 0 0 0 0 0 0
          0 0 0 0 0 0 0 0 0 0 0 0
          0 0 0 0 0 0 0 0 0 0 0 0
          0 0 0 0 0 0 0 0 0 0 0 0
          0 0 0 0 0 0 0 0 0 0 0 0
          0 0 0 0 0 0 0 0 0 0 0 0
          0 0 0 0 0 0 0 0 0 0 0 0
          0 0 0 0 0 0 0 0 0 0 0 0
          0 0 0 0 0 0 0 0 0 0 0 0
          0 0 0 0 0 0 0 0 0 0 0 0
          0 0 0 0 0 0 0 0 0 0 0 0
          0 0 0 0 0 0 0 0 0 0 0 0
          0 0 0 0 0 0 0 0 0 0 0 0
          0 0 0 0 0 0 0 0 0 0 0 0
          0 0 0 0 0 0 0 0 0 0 0 0
          0 0 0 0 0 0 0 0 0 0 0 0
          0 0 0 0 0 0 0 0 0 0 0 0
          0 0 0 0 0 0 0 0 0 0 0 0
          0 0 0 0 0 0 0 0 0 0 0 0
          0 0 0 0 0 0 0 0 0 0 0 0
          0 0 0 0 0 0 0 0 0 0 0 0
          0 0 0 0 0 0 0 0 0 0 0 0
          0 0 0 0 0 0 0 0 0 0 0 0
          0 0 0 0 0 0 0 0 0 0 0 0
          0 0 0 0 0 0 0 0 0 0 0 0
          0 0 0 0 0 0 0 0 0 0 0 0
          0 0 0 0 0 0 0 0 0 0 0 0
          0 0 0 0 0 0 0 0 0 0 0 0
          0 0 0 0 0 0 0 0 0 0 0 0
          0 0 0 0 0 0 0 0 0 0 0 0
          0 0 0 0 0 0 0 0 0 0 0 0
          0 0 0 0
        </DataArray>
      </CellData>
      <Points>
        <DataArray type="Float32" Name="Coordinates" NumberOfComponents="3" format="ascii">
          -400 -2000 0 -320 -2000 0 -400 -1920 0 -320 -1920 0
          -240 -2000 0 -240 -1920 0 -160 -2000 0 -160 -1920 0
          -80 -2000 0 -80 -1920 0 0 -2000 0 0 -1920 0
          80 -2000 0 80 -1920 0 160 -2000 0 160 -1920 0
          240 -2000 0 240 -1920 0 320 -2000 0 320 -1920 0
          400 -2000 0 400 -1920 0 -720 -1920 0 -640 -1920 0
          -720 -1840 0 -640 -1840 0 -560 -1920 0 -560 -1840 0
          -480 -1920 0 -480 -1840 0 -400 -1840 0 -320 -1840 0
          -240 -1840 0 -160 -1840 0 -80 -1840 0 0 -1840 0
          80 -1840 0 160 -1840 0 240 -1840 0 320 -1840 0
          400 -1840 0 480 -1920 0 480 -1840 0 560 -1920 0
          560 -1840 0 640 -1920 0 640 -1840 0 720 -1920 0
          720 -1840 0 -880 -1840 0 -800 -1840 0 -880 -1760 0
          -800 -1760 0 -720 -1760 0 -640 -1760 0 -560 -1760 0
          -480 -1760 0 -400 -1760 0 -320 -1760 0 -240 -1760 0
          -160 -1760 0 -80 -1760 0 0 -1760 0 80 -1760 0
          160 -1760 0 240 -1760 0 320 -1760 0 400 -1760 0
          480 -1760 0 560 -1760 0 640 -1760 0 720 -1760 0
          800 -1840 0 800 -1760 0 880 -1840 0 880 -1760 0
          -1040 -1760 0 -960 -1760 0 -1040 -1680 0 -960 -1680 0
          -880 -1680 0 -800 -1680 0 -720 -1680 0 -640 -1680 0
          -560 -1680 0 -480 -1680 0 -400 -1680 0 -320 -1680 0
          -240 -1680 0 -160 -1680 0 -80 -1680 0 0 -1680 0
          80 -1680 0 160 -1680 0 240 -1680 0 320 -1680 0
          400 -1680 0 480 -1680 0 560 -1680 0 640 -1680 0
          720 -1680 0 800 -1680 0 880 -1680 0 960 -1760 0
          960 -1680 0 1040 -1760 0 1040 -1680 0 -1120 -1680 0
          -1120 -1600 0 -1040 -1600 0 -960 -1600 0 -880 -1600 0
          -800 -1600 0 -720 -1600 0 -640 -1600 0 -560 -1600 0
          -480 -1600 0 -400 -1600 0 -320 -1600 0 -240 -1600 0
          -160 -1600 0 -80 -1600 0 0 -1600 0 80 -1600 0
          160 -1600 0 240 -1600 0 320 -1600 0 400 -1600 0
          480 -1600 0 560 -1600 0 640 -1600 0 720 -1600 0
          800 -1600 0 880 -1600 0 960 -1600 0 1040 -1600 0
          1120 -1680 0 1120 -1600 0 -1280 -1600 0 -1200 -1600 0
          -1280 -1520 0 -1200 -1520 0 -1120 -1520 0 -1040 -1520 0
          -960 -1520 0 -880 -1520 0 -800 -1520 0 -720 -1520 0
          -640 -1520 0 -560 -1520 0 -480 -1520 0 -400 -1520 0
          -320 -1520 0 -240 -1520 0 -160 -1520 0 -80 -1520 0
          0 -1520 0 80 -1520 0 160 -1520 0 240 -1520 0
          320 -1520 0 400 -1520 0 480 -1520 0 560 -1520 0
          640 -1520 0 720 -1520 0 800 -1520 0 880 -1520 0
          960 -1520 0 1040 -1520 0 1120 -1520 0 1200 -1600 0
          1200 -1520 0 1280 -1600 0 1280 -1520 0 -1360 -1520 0
          -1360 -1440 0 -1280 -1440 0 -1200 -1440 0 -1120 -1440 0
          -1040 -1440 0 -960 -1440 0 -880 -1440 0 -800 -1440 0
          -720 -1440 0 -640 -1440 0 -560 -1440 0 -480 -1440 0
          -400 -1440 0 -320 -1440 0 -240 -1440 0 -160 -1440 0
          -80 -1440 0 0 -1440 0 80 -1440 0 160 -1440 0
          240 -1440 0 320 -1440 0 400 -1440 0 480 -1440 0
          560 -1440 0 640 -1440 0 720 -1440 0 800 -1440 0
          880 -1440 0 960 -1440 0 1040 -1440 0 1120 -1440 0
          1200 -1440 0 1280 -1440 0 1360 -1520 0 1360 -1440 0
          -1440 -1440 0 -1440 -1360 0 -1360 -1360 0 -1280 -1360 0
          -1200 -1360 0 -1120 -1360 0 -1040 -1360 0 -960 -1360 0
          -880 -1360 0 -800 -1360 0 -720 -1360 0 -640 -1360 0
          -560 -1360 0 -480 -1360 0 -400 -1360 0 -320 -1360 0
          -240 -1360 0 -160 -1360 0 -80 -1360 0 0 -1360 0
          80 -1360 0 160 -1360 0 240 -1360 0 320 -1360 0
          400 -1360 0 480 -1360 0 560 -1360 0 640 -1360 0
          720 -1360 0 800 -1360 0 880 -1360 0 960 -1360 0
          1040 -1360 0 1120 -1360 0 1200 -1360 0 1280 -1360 0
          1360 -1360 0 1440 -1440 0 1440 -1360 0 -1520 -1360 0
          -1520 -1280 0 -1440 -1280 0 -1360 -1280 0 -1280 -1280 0
          -1200 -1280 0 -1120 -1280 0 -1040 -1280 0 -960 -1280 0
          -880 -1280 0 -800 -1280 0 -720 -1280 0 -640 -1280 0
          -560 -1280 0 -480 -1280 0 -400 -1280 0 -320 -1280 0
          -240 -1280 0 -160 -1280 0 -80 -1280 0 0 -1280 0
          80 -1280 0 160 -1280 0 240 -1280 0 320 -1280 0
          400 -1280 0 480 -1280 0 560 -1280 0 640 -1280 0
          720 -1280 0 800 -1280 0 880 -1280 0 960 -1280 0
          1040 -1280 0 1120 -1280 0 1200 -1280 0 1280 -1280 0
          1360 -1280 0 1440 -1280 0 1520 -1360 0 1520 -1280 0
          -1600 -1280 0 -1600 -1200 0 -1520 -1200 0 -1440 -1200 0
          -1360 -1200 0 -1280 -1200 0 -1200 -1200 0 -1120 -1200 0
          -1040 -1200 0 -960 -1200 0 -880 -1200 0 -800 -1200 0
          -720 -1200 0 -640 -1200 0 -560 -1200 0 -480 -1200 0
          -400 -1200 0 -320 -1200 0 -240 -1200 0 -160 -1200 0
          -80 -1200 0 0 -1200 0 80 -1200 0 160 -1200 0
          240 -1200 0 320 -1200 0 400 -1200 0 480 -1200 0
          560 -1200 0 640 -1200 0 720 -1200 0 800 -1200 0
          880 -1200 0 960 -1200 0 1040 -1200 0 1120 -1200 0
          1200 -1200 0 1280 -1200 0 1360 -1200 0 1440 -1200 0
          1520 -1200 0 1600 -1280 0 1600 -1200 0 -1600 -1120 0
          -1520 -1120 0 -1440 -1120 0 -1360 -1120 0 -1280 -1120 0
          -1200 -1120 0 -1120 -1120 0 -1040 -1120 0 -960 -1120 0
          -880 -1120 0 -800 -1120 0 -720 -1120 0 -640 -1120 0
          -560 -1120 0 -480 -1120 0 -400 -1120 0 -320 -1120 0
          -240 -1120 0 -160 -1120 0 -80 -1120 0 0 -1120 0
          80 -1120 0 160 -1120 0 240 -1120 0 320 -1120 0
          400 -1120 0 480 -1120 0 560 -1120 0 640 -1120 0
          720 -1120 0 800 -1120 0 880 -1120 0 960 -1120 0
          1040 -1120 0 1120 -1120 0 1200 -1120 0 1280 -1120 0
          1360 -1120 0 1440 -1120 0 1520 -1120 0 1600 -1120 0
          -1680 -1120 0 -1680 -1040 0 -1600 -1040 0 -1520 -1040 0
          -1440 -1040 0 -1360 -1040 0 -1280 -1040 0 -1200 -1040 0
          -1120 -1040 0 -1040 -1040 0 -960 -1040 0 -880 -1040 0
          -800 -1040 0 -720 -1040 0 -640 -1040 0 -560 -1040 0
          -480 -1040 0 -400 -1040 0 -320 -1040 0 -240 -1040 0
          -160 -1040 0 -80 -1040 0 0 -1040 0 80 -1040 0
          160 -1040 0 240 -1040 0 320 -1040 0 400 -1040 0
          480 -1040 0 560 -1040 0 640 -1040 0 720 -1040 0
          800 -1040 0 880 -1040 0 960 -1040 0 1040 -1040 0