<?xml version="1.0"?>
<VTKFile type="UnstructuredGrid" version="0.1" byte_order="LittleEndian">
  <UnstructuredGrid>
    <Piece NumberOfCells="324" NumberOfPoints="1296">
      <PointData Scalars="S_aq">
        <DataArray type="Float32" Name="S_aq" NumberOfComponents="1" format="ascii">
          0.5 0.5 0.926686 0.926679 0.926686 0.926679 0.999925 0.999925 0.999925 0.999925 1 1
          1 1 1 1 1 1 1 1 1 1 1 1
          1 1 1 1 1 1 1 1 1 1 1 1
          0.5 0.5 0.926679 0.926657 0.926679 0.926657 0.999925 0.999925 0.999925 0.999925 1 1
          1 1 1 1 1 1 1 1 1 1 1 1
          1 1 1 1 1 1 1 1 1 1 1 1
          0.5 0.5 0.926657 0.926609 0.926657 0.926609 0.999925 0.999925 0.999925 0.999925 1 1
          1 1 1 1 1 1 1 1 1 1 1 1
          1 1 1 1 1 1 1 1 1 1 1 1
          0.5 0.5 0.926609 0.92652 0.926609 0.92652 0.999925 0.999925 0.999925 0.999925 1 1
          1 1 1 1 1 1 1 1 1 1 1 1
          1 1 1 1 1 1 1 1 1 1 1 1
          0.5 0.5 0.92652 0.92635 0.92652 0.92635 0.999925 0.999924 0.999925 0.999924 1 1
          1 1 1 1 1 1 1 1 1 1 1 1
          1 1 1 1 1 1 1 1 1 1 1 1
          0.5 0.5 0.92635 0.926004 0.92635 0.926004 0.999924 0.999923 0.999924 0.999923 1 1
          1 1 1 1 1 1 1 1 1 1 1 1
          1 1 1 1 1 1 1 1 1 1 1 1
          0.5 0.5 0.926004 0.925083 0.926004 0.925083 0.999923 0.99992 0.999923 0.99992 1 1
          1 1 1 1 1 1 1 1 1 1 1 1
          1 1 1 1 1 1 1 1 1 1 1 1
          0.5 0.5 0.925083 0.9277 0.925083 0.9277 0.99992 0.999933 0.99992 0.999933 1 1
          1 1 1 1 1 1 1 1 1 1 1 1
          1 1 1 1 1 1 1 1 1 1 1 1
          0.5 1 0.9277 1 0.9277 1 0.999933 1 0.999933 1 1 1
          1 1 1 1 1 1 1 1 1 1 1 1
          1 1 1 1 1 1 1 1 1 1 1 1
          1 1 1 1 1 1 1 1 1 1 1 1
          1 1 1 1 1 1 1 1 1 1 1 1
          1 1 1 1 1 1 1 1 1 1 1 1
          1 1 1 1 1 1 1 1 1 1 1 1
          1 1 1 1 1 1 1 1 1 1 1 1
          1 1 1 1 1 1 1 1 1 1 1 1
          1 1 1 1 1 1 1 1 1 1 1 1
          1 1 1 1 1 1 1 1 1 1 1 1
          1 1 1 1 1 1 1 1 1 1 1 1
          1 1 1 1 1 1 1 1 1 1 1 1
          1 1 1 1 1 1 1 1 1 1 1 1
          1 1 1 1 1 1 1 1 1 1 1 1
          1 1 1 1 1 1 1 1 1 1 1 1
          1 1 1 1 1 1 1 1 1 1 1 1
          1 1 1 1 1 1 1 1 1 1 1 1
          1 1 1 1 1 1 1 1 1 1 1 1
          1 1 1 1 1 1 1 1 1 1 1 1
          1 1 1 1 1 1 1 1 1 1 1 1
          1 1 1 1 1 1 1 1 1 1 1 1
          1 1 1 1 1 1 1 1 1 1 1 1
          1 1 1 1 1 1 1 1 1 1 1 1
          1 1 1 1 1 1 1 1 1 1 1 1
          1 1 1 1 1 1 1 1 1 1 1 1
          1 1 1 1 1 1 1 1 1 1 1 1
          1 1 1 1 1 1 1 1 1 1 1 1
          1 1 1 1 1 1 1 1 1 1 1 1
          1 1 1 1 1 1 1 1 1 1 1 1
          1 1 1 1 1 1 1 1 1 1 1 1
          1 1 1 1 1 1 1 1 1 1 1 1
          1 1 1 1 1 1 1 1 1 1 1 1
          1 1 1 1 1 1 1 1 1 1 1 1
          1 1 1 1 1 1 1 1 1 1 1 1
          1 1 1 1 1 1 1 1 1 1 1 1
          1 1 1 1 1 1 1 1 1 1 1 1
          1 1 1 1 1 1 1 1 1 1 1 1
          1 1 1 1 1 1 1 1 1 1 1 1
          1 1 1 1 1 1 1 1 1 1 1 1
          1 1 1 1 1 1 1 1 1 1 1 1
          1 1 1 1 1 1 1 1 1 1 1 1
          1 1 1 1 1 1 1 1 1 1 1 1
          1 1 1 1 1 1 1 1 1 1 1 1
          1 1 1 1 1 1 1 1 1 1 1 1
          1 1 1 1 1 1 1 1 1 1 1 1
          1 1 1 1 1 1 1 1 1 1 1 1
          1 1 1 1 1 1 1 1 1 1 1 1
          1 1 1 1 1 1 1 1 1 1 1 1
          1 1 1 1 1 1 1 1 1 1 1 1
          1 1 1 1 1 1 1 1 1 1 1 1
          1 1 1 1 1 1 1 1 1 1 1 1
          1 1 1 1 1 1 1 1 1 1 1 1
          1 1 1 1 1 1 1 1 1 1 1 1
          1 1 1 1 1 1 1 1 1 1 1 1
          1 1 1 1 1 1 1 1 1 1 1 1
          1 1 1 1 1 1 1 1 1 1 1 1
          1 1 1 1 1 1 1 1 1 1 1 1
          1 1 1 1 1 1 1 1 1 1 1 1
          0.999933 1 1 1 0.9277 0.999933 1 1 0.5 0.9277 1 1
          1 1 1 1 1 1 1 1 1 1 1 1
          1 1 1 1 1 1 1 1 1 1 1 1
          0.99992 1 0.999933 1 0.925083 0.99992 0.9277 0.999933 0.5 0.925083 0.5 0.9277
          1 1 1 1 1 1 1 1 1 1 1 1
          1 1 1 1 1 1 1 1 1 1 1 1
          0.999923 1 0.99992 1 0.926004 0.999923 0.925083 0.99992 0.5 0.926004 0.5 0.925083
          1 1 1 1 1 1 1 1 1 1 1 1
          1 1 1 1 1 1 1 1 1 1 1 1
          0.999924 1 0.999923 1 0.92635 0.999924 0.926004 0.999923 0.5 0.92635 0.5 0.926004
          1 1 1 1 1 1 1 1 1 1 1 1
          1 1 1 1 1 1 1 1 1 1 1 1
          0.999925 1 0.999924 1 0.92652 0.999925 0.92635 0.999924 0.5 0.92652 0.5 0.92635
          1 1 1 1 1 1 1 1 1 1 1 1
          1 1 1 1 1 1 1 1 1 1 1 1
          0.999925 1 0.999925 1 0.926609 0.999925 0.92652 0.999925 0.5 0.926609 0.5 0.92652
          1 1 1 1 1 1 1 1 1 1 1 1
          1 1 1 1 1 1 1 1 1 1 1 1
          0.999925 1 0.999925 1 0.926657 0.999925 0.926609 0.999925 0.5 0.926657 0.5 0.926609
          1 1 1 1 1 1 1 1 1 1 1 1
          1 1 1 1 1 1 1 1 1 1 1 1
          0.999925 1 0.999925 1 0.926679 0.999925 0.926657 0.999925 0.5 0.926679 0.5 0.926657
          1 1 1 1 1 1 1 1 1 1 1 1
          1 1 1 1 1 1 1 1 1 1 1 1
          0.999925 1 0.999925 1 0.926686 0.999925 0.926679 0.999925 0.5 0.926686 0.5 0.926679
        </DataArray>
        <DataArray type="Float32" Name="p_aq" NumberOfComponents="1" format="ascii">
          200000 200000 195859 195860 195859 195860 187971 187972 187971 187972 182523 182525
          182523 182525 177073 177076 177073 177076 171618 171622 171618 171622 166157 166161
          166157 166161 160687 160692 160687 160692 155209 155214 155209 155214 149720 149725
          200000 200000 195860 195862 195860 195862 187972 187976 187972 187976 182525 182530
          182525 182530 177076 177084 177076 177084 171622 171632 171622 171632 166161 166173
          166161 166173 160692 160706 160692 160706 155214 155228 155214 155228 149725 149740
          200000 200000 195862 195865 195862 195865 187976 187981 187976 187981 182530 182539
          182530 182539 177084 177097 177084 177097 171632 171649 171632 171649 166173 166194
          166173 166194 160706 160730 160706 160730 155228 155254 155228 155254 149740 149767
          200000 200000 195865 195869 195865 195869 187981 187986 187981 187986 182539 182550
          182539 182550 177097 177115 177097 177115 171649 171674 171649 171674 166194 166224
          166194 166224 160730 160765 160730 160765 155254 155293 155254 155293 149767 149806
          200000 200000 195869 195871 195869 195871 187986 187989 187986 187989 182550 182563
          182550 182563 177115 177138 177115 177138 171674 171706 171674 171706 166224 166265
          166224 166265 160765 160813 160765 160813 155293 155346 155293 155346 149806 149861
          200000 200000 195871 195862 195871 195862 187989 187983 187989 187983 182563 182579
          182563 182579 177138 177170 177138 177170 171706 171749 171706 171749 166265 166317
          166265 166317 160813 160875 160813 160875 155346 155419 155346 155419 149861 149938
          200000 200000 195862 195805 195862 195805 187983 187961 187983 187961 182579 182610
          182579 182610 177170 177215 177170 177215 171749 171800 171749 171800 166317 166377
          166317 166377 160875 160950 160875 160950 155419 155516 155419 155516 149938 150050
          200000 200000 195805 195436 195805 195436 187961 187999 187961 187999 182610 182696
          182610 182696 177215 177271 177215 177271 171800 171857 171800 171857 166377 166445
          166377 166445 160950 161022 160950 161022 155516 155639 155516 155639 150050 150243
          200000 200000 195436 194420 195436 194420 187999 188560 187999 188560 182696 182775
          182696 182775 177271 177311 177271 177311 171857 171909 171857 171909 166445 166531
          166445 166531 161022 161113 161022 161113 155639 155538 155639 155538 150243 150922
          149720 149725 144222 144227 144222 144227 138715 138719 138715 138719 133199 133203
          133199 133203 127677 127680 127677 127680 122148 122150 122148 122150 116615 116616
          116615 116616 111078 111079 111078 111079 105540 105540 105540 105540 100000 100000
          149725 149740 144227 144242 144227 144242 138719 138732 138719 138732 133203 133214
          133203 133214 127680 127688 127680 127688 122150 122157 122150 122157 116616 116621
          116616 116621 111079 111082 111079 111082 105540 105541 105540 105541 100000 100000
          149740 149767 144242 144266 144242 144266 138732 138754 138732 138754 133214 133232
          133214 133232 127688 127703 127688 127703 122157 122168 122157 122168 116621 116628
          116621 116628 111082 111087 111082 111087 105541 105544 105541 105544 100000 100000
          149767 149806 144266 144303 144266 144303 138754 138786 138754 138786 133232 133259
          133232 133259 127703 127723 127703 127723 122168 122182 122168 122182 116628 116638
          116628 116638 111087 111093 111087 111093 105544 105547 105544 105547 100000 100000
          149806 149861 144303 144354 144303 144354 138786 138830 138786 138830 133259 133292
          133259 133292 127723 127748 127723 127748 122182 122200 122182 122200 116638 116650
          116638 116650 111093 111100 111093 111100 105547 105550 105547 105550 100000 100000
          149861 149938 144354 144425 144354 144425 138830 138886 138830 138886 133292 133333
          133292 133333 127748 127775 127748 127775 122200 122218 122200 122218 116650 116662
          116650 116662 111100 111107 111100 111107 105550 105553 105550 105553 100000 100000
          149938 150050 144425 144525 144425 144525 138886 138956 138886 138956 133333 133376
          133333 133376 127775 127802 127775 127802 122218 122235 122218 122235 116662 116673
          116662 116673 111107 111113 111107 111113 105553 105556 105553 105556 100000 100000
          150050 150243 144525 144675 144525 144675 138956 139024 138956 139024 133376 133411
          133376 133411 127802 127822 127802 127822 122235 122247 122235 122247 116673 116680
          116673 116680 111113 111118 111113 111118 105556 105558 105556 105558 100000 100000
          150243 150922 144675 144765 144675 144765 139024 139054 139024 139054 133411 133426
          133411 133426 127822 127830 127822 127830 122247 122252 122247 122252 116680 116682
          116680 116682 111118 111119 111118 111119 105558 105559 105558 105559 100000 100000
          144675 144765 150243 150922 144525 144675 150050 150243 144425 144525 149938 150050
          144354 144425 149861 149938 144303 144354 149806 149861 144266 144303 149767 149806
          144242 144266 149740 149767 144227 144242 149725 149740 144222 144227 149720 149725
          139024 139054 144675 144765 138956 139024 144525 144675 138886 138956 144425 144525
          138830 138886 144354 144425 138786 138830 144303 144354 138754 138786 144266 144303
          138732 138754 144242 144266 138719 138732 144227 144242 138715 138719 144222 144227
          133411 133426 139024 139054 133376 133411 138956 139024 133333 133376 138886 138956
          133292 133333 138830 138886 133259 133292 138786 138830 133232 133259 138754 138786
          133214 133232 138732 138754 133203 133214 138719 138732 133199 133203 138715 138719
          127822 127830 133411 133426 127802 127822 133376 133411 127775 127802 133333 133376
          127748 127775 133292 133333 127723 127748 133259 133292 127703 127723 133232 133259
          127688 127703 133214 133232 127680 127688 133203 133214 127677 127680 133199 133203
          122247 122252 127822 127830 122235 122247 127802 127822 122218 122235 127775 127802
          122200 122218 127748 127775 122182 122200 127723 127748 122168 122182 127703 127723
          122157 122168 127688 127703 122150 122157 127680 127688 122148 122150 127677 127680
          116680 116682 122247 122252 116673 116680 122235 122247 116662 116673 122218 122235
          116650 116662 122200 122218 116638 116650 122182 122200 116628 116638 122168 122182
          116621 116628 122157 122168 116616 116621 122150 122157 116615 116616 122148 122150
          111118 111119 116680 116682 111113 111118 116673 116680 111107 111113 116662 116673
          111100 111107 116650 116662 111093 111100 116638 116650 111087 111093 116628 116638
          111082 111087 116621 116628 111079 111082 116616 116621 111078 111079 116615 116616
          105558 105559 111118 111119 105556 105558 111113 111118 105553 105556 111107 111113
          105550 105553 111100 111107 105547 105550 111093 111100 105544 105547 111087 111093
          105541 105544 111082 111087 105540 105541 111079 111082 105540 105540 111078 111079
          100000 100000 105558 105559 100000 100000 105556 105558 100000 100000 105553 105556
          100000 100000 105550 105553 100000 100000 105547 105550 100000 100000 105544 105547
          100000 100000 105541 105544 100000 100000 105540 105541 100000 100000 105540 105540
          155639 150243 155538 150922 161022 155639 161113 155538 166445 161022 166531 161113
          171857 166445 171909 166531 177271 171857 177311 171909 182696 177271 182775 177311
          187999 182696 188560 182775 195436 187999 194420 188560 200000 195436 200000 194420
          155516 150050 155639 150243 160950 155516 161022 155639 166377 160950 166445 161022
          171800 166377 171857 166445 177215 171800 177271 171857 182610 177215 182696 177271
          187961 182610 187999 182696 195805 187961 195436 187999 200000 195805 200000 195436
          155419 149938 155516 150050 160875 155419 160950 155516 166317 160875 166377 160950
          171749 166317 171800 166377 177170 171749 177215 171800 182579 177170 182610 177215
          187983 182579 187961 182610 195862 187983 195805 187961 200000 195862 200000 195805
          155346 149861 155419 149938 160813 155346 160875 155419 166265 160813 166317 160875
          171706 166265 171749 166317 177138 171706 177170 171749 182563 177138 182579 177170
          187989 182563 187983 182579 195871 187989 195862 187983 200000 195871 200000 195862
          155293 149806 155346 149861 160765 155293 160813 155346 166224 160765 166265 160813
          171674 166224 171706 166265 177115 171674 177138 171706 182550 177115 182563 177138
          187986 182550 187989 182563 195869 187986 195871 187989 200000 195869 200000 195871
          155254 149767 155293 149806 160730 155254 160765 155293 166194 160730 166224 160765
          171649 166194 171674 166224 177097 171649 177115 171674 182539 177097 182550 177115
          187981 182539 187986 182550 195865 187981 195869 187986 200000 195865 200000 195869
          155228 149740 155254 149767 160706 155228 160730 155254 166173 160706 166194 160730
          171632 166173 171649 166194 177084 171632 177097 171649 182530 177084 182539 177097
          187976 182530 187981 182539 195862 187976 195865 187981 200000 195862 200000 195865
          155214 149725 155228 149740 160692 155214 160706 155228 166161 160692 166173 160706
          171622 166161 171632 166173 177076 171622 177084 171632 182525 177076 182530 177084
          187972 182525 187976 182530 195860 187972 195862 187976 200000 195860 200000 195862
          155209 149720 155214 149725 160687 155209 160692 155214 166157 160687 166161 160692
          171618 166157 171622 166161 177073 171618 177076 171622 182523 177073 182525 177076
          187971 182523 187972 182525 195859 187971 195860 187972 200000 195859 200000 195860
        </DataArray>
        <DataArray type="Float32" Name="rho_aq" NumberOfComponents="1" format="ascii">
          1000 1000 1000 1000 1000 1000 1000 1000 1000 1000 1000 1000
          1000 1000 1000 1000 1000 1000 1000 1000 1000 1000 1000 1000
          1000 1000 1000 1000 1000 1000 1000 1000 1000 1000 1000 1000
          1000 1000 1000 1000 1000 1000 1000 1000 1000 1000 1000 1000
          1000 1000 1000 1000 1000 1000 1000 1000 1000 1000 1000 1000
          1000 1000 1000 1000 1000 1000 1000 1000 1000 1000 1000 1000
          1000 1000 1000 1000 1000 1000 1000 1000 1000 1000 1000 1000
          1000 1000 1000 1000 1000 1000 1000 1000 1000 1000 1000 1000
          1000 1000 1000 1000 1000 1000 1000 1000 1000 1000 1000 1000
          1000 1000 1000 1000 1000 1000 1000 1000 1000 1000 1000 1000
          1000 1000 1000 1000 1000 1000 1000 1000 1000 1000 1000 1000
          1000 1000 1000 1000 1000 1000 1000 1000 1000 1000 1000 1000
          1000 1000 1000 1000 1000 1000 1000 1000 1000 1000 1000 1000
          1000 1000 1000 1000 1000 1000 1000 1000 1000 1000 1000 1000
          1000 1000 1000 1000 1000 1000 1000 1000 1000 1000 1000 1000
          1000 1000 1000 1000 1000 1000 1000 1000 1000 1000 1000 1000
          1000 1000 1000 1000 1000 1000 1000 1000 1000 1000 1000 1000
          1000 1000 1000 1000 1000 1000 1000 1000 1000 1000 1000 1000
          1000 1000 1000 1000 1000 1000 1000 1000 1000 1000 1000 1000
          1000 1000 1000 1000 1000 1000 1000 1000 1000 1000 1000 1000
          1000 1000 1000 1000 1000 1000 1000 1000 1000 1000 1000 1000
          1000 1000 1000 1000 1000 1000 1000 1000 1000 1000 1000 1000
          1000 1000 1000 1000 1000 1000 1000 1000 1000 1000 1000 1000
          1000 1000 1000 1000 1000 1000 1000 1000 1000 1000 1000 1000
          1000 1000 1000 1000 1000 1000 1000 1000 1000 1000 1000 1000
          1000 1000 1000 1000 1000 1000 1000 1000 1000 1000 1000 1000
          1000 1000 1000 1000 1000 1000 1000 1000 1000 1000 1000 1000
          1000 1000 1000 1000 1000 1000 1000 1000 1000 1000 1000 1000
          1000 1000 1000 1000 1000 1000 1000 1000 1000 1000 1000 1000
          1000 1000 1000 1000 1000 1000 1000 1000 1000 1000 1000 1000
          1000 1000 1000 1000 1000 1000 1000 1000 1000 1000 1000 1000
          1000 1000 1000 1000 1000 1000 1000 1000 1000 1000 1000 1000
          1000 1000 1000 1000 1000 1000 1000 1000 1000 1000 1000 1000
          1000 1000 1000 1000 1000 1000 1000 1000 1000 1000 1000 1000
          1000 1000 1000 1000 1000 1000 1000 1000 1000 1000 1000 1000
          1000 1000 1000 1000 1000 1000 1000 1000 1000 1000 1000 1000
          1000 1000 1000 1000 1000 1000 1000 1000 1000 1000 1000 1000
          1000 1000 1000 1000 1000 1000 1000 1000 1000 1000 1000 1000
          1000 1000 1000 1000 1000 1000 1000 1000 1000 1000 1000 1000
          1000 1000 1000 1000 1000 1000 1000 1000 1000 1000 1000 1000
          1000 1000 1000 1000 1000 1000 1000 1000 1000 1000 1000 1000
          1000 1000 1000 1000 1000 1000 1000 1000 1000 1000 1000 1000
          1000 1000 1000 1000 1000 1000 1000 1000 1000 1000 1000 1000
          1000 1000 1000 1000 1000 1000 1000 1000 1000 1000 1000 1000
          1000 1000 1000 1000 1000 1000 1000 1000 1000 1000 1000 1000
          1000 1000 1000 1000 1000 1000 1000 1000 1000 1000 1000 1000
          1000 1000 1000 1000 1000 1000 1000 1000 1000 1000 1000 1000
          1000 1000 1000 1000 1000 1000 1000 1000 1000 1000 1000 1000
          1000 1000 1000 1000 1000 1000 1000 1000 1000 1000 1000 1000
          1000 1000 1000 1000 1000 1000 1000 1000 1000 1000 1000 1000
          1000 1000 1000 1000 1000 1000 1000 1000 1000 1000 1000 1000
          1000 1000 1000 1000 1000 1000 1000 1000 1000 1000 1000 1000
          1000 1000 1000 1000 1000 1000 1000 1000 1000 1000 1000 1000
          1000 1000 1000 1000 1000 1000 1000 1000 1000 1000 1000 1000
          1000 1000 1000 1000 1000 1000 1000 1000 1000 1000 1000 1000
          1000 1000 1000 1000 1000 1000 1000 1000 1000 1000 1000 1000
          1000 1000 1000 1000 1000 1000 1000 1000 1000 1000 1000 1000
          1000 1000 1000 1000 1000 1000 1000 1000 1000 1000 1000 1000
          1000 1000 1000 1000 1000 1000 1000 1000 1000 1000 1000 1000
          1000 1000 1000 1000 1000 1000 1000 1000 1000 1000 1000 1000
          1000 1000 1000 1000 1000 1000 1000 1000 1000 1000 1000 1000
          1000 1000 1000 1000 1000 1000 1000 1000 1000 1000 1000 1000
          1000 1000 1000 1000 1000 1000 1000 1000 1000 1000 1000 1000
          1000 1000 1000 1000 1000 1000 1000 1000 1000 1000 1000 1000
          1000 1000 1000 1000 1000 1000 1000 1000 1000 1000 1000 1000
          1000 1000 1000 1000 1000 1000 1000 1000 1000 1000 1000 1000
          1000 1000 1000 1000 1000 1000 1000 1000 1000 1000 1000 1000
          1000 1000 1000 1000 1000 1000 1000 1000 1000 1000 1000 1000
          1000 1000 1000 1000 1000 1000 1000 1000 1000 1000 1000 1000
          1000 1000 1000 1000 1000 1000 1000 1000 1000 1000 1000 1000
          1000 1000 1000 1000 1000 1000 1000 1000 1000 1000 1000 1000
          1000 1000 1000 1000 1000 1000 1000 1000 1000 1000 1000 1000
          1000 1000 1000 1000 1000 1000 1000 1000 1000 1000 1000 1000
          1000 1000 1000 1000 1000 1000 1000 1000 1000 1000 1000 1000
          1000 1000 1000 1000 1000 1000 1000 1000 1000 1000 1000 1000
          1000 1000 1000 1000 1000 1000 1000 1000 1000 1000 1000 1000
          1000 1000 1000 1000 1000 1000 1000 1000 1000 1000 1000 1000
          1000 1000 1000 1000 1000 1000 1000 1000 1000 1000 1000 1000
          1000 1000 1000 1000 1000 1000 1000 1000 1000 1000 1000 1000
          1000 1000 1000 1000 1000 1000 1000 1000 1000 1000 1000 1000
          1000 1000 1000 1000 1000 1000 1000 1000 1000 1000 1000 1000
          1000 1000 1000 1000 1000 1000 1000 1000 1000 1000 1000 1000
          1000 1000 1000 1000 1000 1000 1000 1000 1000 1000 1000 1000
          1000 1000 1000 1000 1000 1000 1000 1000 1000 1000 1000 1000
          1000 1000 1000 1000 1000 1000 1000 1000 1000 1000 1000 1000
          1000 1000 1000 1000 1000 1000 1000 1000 1000 1000 1000 1000
          1000 1000 1000 1000 1000 1000 1000 1000 1000 1000 1000 1000
          1000 1000 1000 1000 1000 1000 1000 1000 1000 1000 1000 1000
          1000 1000 1000 1000 1000 1000 1000 1000 1000 1000 1000 1000
          1000 1000 1000 1000 1000 1000 1000 1000 1000 1000 1000 1000
          1000 1000 1000 1000 1000 1000 1000 1000 1000 1000 1000 1000
          1000 1000 1000 1000 1000 1000 1000 1000 1000 1000 1000 1000
          1000 1000 1000 1000 1000 1000 1000 1000 1000 1000 1000 1000
          1000 1000 1000 1000 1000 1000 1000 1000 1000 1000 1000 1000
          1000 1000 1000 1000 1000 1000 1000 1000 1000 1000 1000 1000
          1000 1000 1000 1000 1000 1000 1000 1000 1000 1000 1000 1000
          1000 1000 1000 1000 1000 1000 1000 1000 1000 1000 1000 1000
          1000 1000 1000 1000 1000 1000 1000 1000 1000 1000 1000 1000
          1000 1000 1000 1000 1000 1000 1000 1000 1000 1000 1000 1000
          1000 1000 1000 1000 1000 1000 1000 1000 1000 1000 1000 1000
          1000 1000 1000 1000 1000 1000 1000 1000 1000 1000 1000 1000
          1000 1000 1000 1000 1000 1000 1000 1000 1000 1000 1000 1000
          1000 1000 1000 1000 1000 1000 1000 1000 1000 1000 1000 1000
          1000 1000 1000 1000 1000 1000 1000 1000 1000 1000 1000 1000
          1000 1000 1000 1000 1000 1000 1000 1000 1000 1000 1000 1000
          1000 1000 1000 1000 1000 1000 1000 1000 1000 1000 1000 1000
          1000 1000 1000 1000 1000 1000 1000 1000 1000 1000 1000 1000
          1000 1000 1000 1000 1000 1000 1000 1000 1000 1000 1000 1000
        </DataArray>
        <DataArray type="Float32" Name="mob_aq" NumberOfComponents="1" format="ascii">
          23.1923 23.1923 687.537 687.513 687.537 687.513 999.635 999.635 999.635 999.635 1000 1000
          1000 1000 1000 1000 1000 1000 1000 1000 1000 1000 1000 1000
          1000 1000 1000 1000 1000 1000 1000 1000 1000 1000 1000 1000
          23.1923 23.1923 687.513 687.43 687.513 687.43 999.635 999.635 999.635 999.635 1000 1000
          1000 1000 1000 1000 1000 1000 1000 1000 1000 1000 1000 1000
          1000 1000 1000 1000 1000 1000 1000 1000 1000 1000 1000 1000
          23.1923 23.1923 687.43 687.256 687.43 687.256 999.635 999.634 999.635 999.634 1000 1000
          1000 1000 1000 1000 1000 1000 1000 1000 1000 1000 1000 1000
          1000 1000 1000 1000 1000 1000 1000 1000 1000 1000 1000 1000
          23.1923 23.1923 687.256 686.926 687.256 686.926 999.634 999.632 999.634 999.632 1000 1000
          1000 1000 1000 1000 1000 1000 1000 1000 1000 1000 1000 1000
          1000 1000 1000 1000 1000 1000 1000 1000 1000 1000 1000 1000
          23.1923 23.1923 686.926 686.302 686.926 686.302 999.632 999.629 999.632 999.629 1000 1000
          1000 1000 1000 1000 1000 1000 1000 1000 1000 1000 1000 1000
          1000 1000 1000 1000 1000 1000 1000 1000 1000 1000 1000 1000
          23.1923 23.1923 686.302 685.03 686.302 685.03 999.629 999.623 999.629 999.623 1000 1000
          1000 1000 1000 1000 1000 1000 1000 1000 1000 1000 1000 1000
          1000 1000 1000 1000 1000 1000 1000 1000 1000 1000 1000 1000
          23.1923 23.1923 685.03 681.654 685.03 681.654 999.623 999.611 999.623 999.611 1000 1000
          1000 1000 1000 1000 1000 1000 1000 1000 1000 1000 1000 1000
          1000 1000 1000 1000 1000 1000 1000 1000 1000 1000 1000 1000
          23.1923 23.1923 681.654 691.28 681.654 691.28 999.611 999.673 999.611 999.673 1000 1000
          1000 1000 1000 1000 1000 1000 1000 1000 1000 1000 1000 1000
          1000 1000 1000 1000 1000 1000 1000 1000 1000 1000 1000 1000
          23.1923 1000 691.28 1000 691.28 1000 999.673 1000 999.673 1000 1000 1000
          1000 1000 1000 1000 1000 1000 1000 1000 1000 1000 1000 1000
          1000 1000 1000 1000 1000 1000 1000 1000 1000 1000 1000 1000
          1000 1000 1000 1000 1000 1000 1000 1000 1000 1000 1000 1000
          1000 1000 1000 1000 1000 1000 1000 1000 1000 1000 1000 1000
          1000 1000 1000 1000 1000 1000 1000 1000 1000 1000 1000 1000
          1000 1000 1000 1000 1000 1000 1000 1000 1000 1000 1000 1000
          1000 1000 1000 1000 1000 1000 1000 1000 1000 1000 1000 1000
          1000 1000 1000 1000 1000 1000 1000 1000 1000 1000 1000 1000
          1000 1000 1000 1000 1000 1000 1000 1000 1000 1000 1000 1000
          1000 1000 1000 1000 1000 1000 1000 1000 1000 1000 1000 1000
          1000 1000 1000 1000 1000 1000 1000 1000 1000 1000 1000 1000
          1000 1000 1000 1000 1000 1000 1000 1000 1000 1000 1000 1000
          1000 1000 1000 1000 1000 1000 1000 1000 1000 1000 1000 1000
          1000 1000 1000 1000 1000 1000 1000 1000 1000 1000 1000 1000
          1000 1000 1000 1000 1000 1000 1000 1000 1000 1000 1000 1000
          1000 1000 1000 1000 1000 1000 1000 1000 1000 1000 1000 1000
          1000 1000 1000 1000 1000 1000 1000 1000 1000 1000 1000 1000
          1000 1000 1000 1000 1000 1000 1000 1000 1000 1000 1000 1000
          1000 1000 1000 1000 1000 1000 1000 1000 1000 1000 1000 1000
          1000 1000 1000 1000 1000 1000 1000 1000 1000 1000 1000 1000
          1000 1000 1000 1000 1000 1000 1000 1000 1000 1000 1000 1000
          1000 1000 1000 1000 1000 1000 1000 1000 1000 1000 1000 1000
          1000 1000 1000 1000 1000 1000 1000 1000 1000 1000 1000 1000
          1000 1000 1000 1000 1000 1000 1000 1000 1000 1000 1000 1000
          1000 1000 1000 1000 1000 1000 1000 1000 1000 1000 1000 1000
          1000 1000 1000 1000 1000 1000 1000 1000 1000 1000 1000 1000
          1000 1000 1000 1000 1000 1000 1000 1000 1000 1000 1000 1000
          1000 1000 1000 1000 1000 1000 1000 1000 1000 1000 1000 1000
          1000 1000 1000 1000 1000 1000 1000 1000 1000 1000 1000 1000
          1000 1000 1000 1000 1000 1000 1000 1000 1000 1000 1000 1000
          1000 1000 1000 1000 1000 1000 1000 1000 1000 1000 1000 1000
          1000 1000 1000 1000 1000 1000 1000 1000 1000 1000 1000 1000
          1000 1000 1000 1000 1000 1000 1000 1000 1000 1000 1000 1000
          1000 1000 1000 1000 1000 1000 1000 1000 1000 1000 1000 1000
          1000 1000 1000 1000 1000 1000 1000 1000 1000 1000 1000 1000
          1000 1000 1000 1000 1000 1000 1000 1000 1000 1000 1000 1000
          1000 1000 1000 1000 1000 1000 1000 1000 1000 1000 1000 1000
          1000 1000 1000 1000 1000 1000 1000 1000 1000 1000 1000 1000
          1000 1000 1000 1000 1000 1000 1000 1000 1000 1000 1000 1000
          1000 1000 1000 1000 1000 1000 1000 1000 1000 1000 1000 1000
          1000 1000 1000 1000 1000 1000 1000 1000 1000 1000 1000 1000
          1000 1000 1000 1000 1000 1000 1000 1000 1000 1000 1000 1000
          1000 1000 1000 1000 1000 1000 1000 1000 1000 1000 1000 1000
          1000 1000 1000 1000 1000 1000 1000 1000 1000 1000 1000 1000
          1000 1000 1000 1000 1000 1000 1000 1000 1000 1000 1000 1000
          1000 1000 1000 1000 1000 1000 1000 1000 1000 1000 1000 1000
          1000 1000 1000 1000 1000 1000 1000 1000 1000 1000 1000 1000
          1000 1000 1000 1000 1000 1000 1000 1000 1000 1000 1000 1000
          1000 1000 1000 1000 1000 1000 1000 1000 1000 1000 1000 1000
          1000 1000 1000 1000 1000 1000 1000 1000 1000 1000 1000 1000
          1000 1000 1000 1000 1000 1000 1000 1000 1000 1000 1000 1000
          1000 1000 1000 1000 1000 1000 1000 1000 1000 1000 1000 1000
          1000 1000 1000 1000 1000 1000 1000 1000 1000 1000 1000 1000
          1000 1000 1000 1000 1000 1000 1000 1000 1000 1000 1000 1000
          1000 1000 1000 1000 1000 1000 1000 1000 1000 1000 1000 1000
          1000 1000 1000 1000 1000 1000 1000 1000 1000 1000 1000 1000
          1000 1000 1000 1000 1000 1000 1000 1000 1000 1000 1000 1000
          1000 1000 1000 1000 1000 1000 1000 1000 1000 1000 1000 1000
          999.673 1000 1000 1000 691.28 999.673 1000 1000 23.1923 691.28 1000 1000
          1000 1000 1000 1000 1000 1000 1000 1000 1000 1000 1000 1000
          1000 1000 1000 1000 1000 1000 1000 1000 1000 1000 1000 1000
          999.611 1000 999.673 1000 681.654 999.611 691.28 999.673 23.1923 681.654 23.1923 691.28
          1000 1000 1000 1000 1000 1000 1000 1000 1000 1000 1000 1000
          1000 1000 1000 1000 1000 1000 1000 1000 1000 1000 1000 1000
          999.623 1000 999.611 1000 685.03 999.623 681.654 999.611 23.1923 685.03 23.1923 681.654
          1000 1000 1000 1000 1000 1000 1000 1000 1000 1000 1000 1000
          1000 1000 1000 1000 1000 1000 1000 1000 1000 1000 1000 1000
          999.629 1000 999.623 1000 686.302 999.629 685.03 999.623 23.1923 686.302 23.1923 685.03
          1000 1000 1000 1000 1000 1000 1000 1000 1000 1000 1000 1000
          1000 1000 1000 1000 1000 1000 1000 1000 1000 1000 1000 1000