<?xml version="1.0"?>
<VTKFile type="UnstructuredGrid" version="0.1" byte_order="LittleEndian">
  <UnstructuredGrid>
    <Piece NumberOfCells="100" NumberOfPoints="400">
      <PointData Scalars="p">
        <DataArray type="Float32" Name="p" NumberOfComponents="1" format="ascii">
          199947 200159 191971 192182 199740 200358 192610 193228 199584 200435 194079 194930
          199603 200302 195878 196577 199810 200063 197100 197354 200063 199810 197354 197100
          200302 199603 196577 195878 200435 199584 194930 194079 200358 199740 193228 192610
          200159 199947 192182 191971 191865 192500 183042 183677 192072 193994 184096 186018
          193075 196181 186997 190104 194749 197214 192390 194855 196807 197452 194997 195642
          197452 196807 195642 194997 197214 194749 194855 192390 196181 193075 190104 186997
          193994 192072 186018 184096 192500 191865 183677 183042 183017 183751 172824 173558
          183656 187140 173014 176497 187277 191638 175287 179649 192930 196184 179158 182412
          195920 196723 182275 183078 196723 195920 183078 182275 196184 192930 182412 179158
          191638 187277 179649 175287 187140 183656 176497 173014 183751 183017 173558 172824
          172916 173282 161623 161989 173971 174365 161652 162046 175008 177839 161242 164073
          178928 180984 163353 165409 181348 181998 164992 165642 181998 181348 165642 164992
          180984 178928 165409 163353 177839 175008 164073 161242 174365 173971 162046 161652
          173282 172916 161989 161623 161700 161755 149986 150041 161890 161952 149957 150019
          162275 163109 149613 150447 164155 164859 149585 150290 165309 165536 149829 150057
          165536 165309 150057 149829 164859 164155 150290 149585 163109 162275 150447 149613
          161952 161890 150019 149957 161755 161700 150041 149986 150014 149959 138300 138245
          150043 149981 138110 138048 150387 149553 137725 136891 150415 149710 135845 135141
          150171 149943 134691 134464 149943 150171 134464 134691 149710 150415 135141 135845
          149553 150387 136891 137725 149981 150043 138048 138110 149959 150014 138245 138300
          138377 138011 127084 126718 138348 137954 126029 125635 138758 135927 124992 122161
          136647 134591 121072 119016 135008 134358 118652 118002 134358 135008 118002 118652
          134591 136647 119016 121072 135927 138758 122161 124992 137954 138348 125635 126029
          138011 138377 126718 127084 127176 126442 116983 116249 126986 123503 116344 112860
          124713 120351 112723 108362 120842 117588 107070 103816 117725 116922 104080 103277
          116922 117725 103277 104080 117588 120842 103816 107070 120351 124713 108362 112723
          123503 126986 112860 116344 126442 127176 116249 116983 116958 116323 108135 107500
          115904 113982 107928 106006 113003 109896 106925 103819 107610 105145 105251 102786
          105003 104358 103193 102548 104358 105003 102548 103193 105145 107610 102786 105251
          109896 113003 103819 106925 113982 115904 106006 107928 116323 116958 107500 108135
          108029 107818 100053 99841.3 107390 106772 100260 99642.5 105921 105070 100416 99564.6
          104122 103423 100397 99698.3 102900 102646 100190 99936.5 102646 102900 99936.5 100190
          103423 104122 99698.3 100397 105070 105921 99564.6 100416 106772 107390 99642.5 100260
          107818 108029 99841.3 100053
        </DataArray>
      </PointData>
      <CellData Scalars="process rank">
        <DataArray type="Float32" Name="process rank" NumberOfComponents="1" format="ascii">
          0 0 0 0 0 0 0 0 0 0 0 0
          0 0 0 0 0 0 0 0 0 0 0 0
          0 0 0 0 0 0 0 0 0 0 0 0
          0 0 0 0 0 0 0 0 0 0 0 0
          0 0 0 0 0 0 0 0 0 0 0 0
          0 0 0 0 0 0 0 0 0 0 0 0
          0 0 0 0 0 0 0 0 0 0 0 0
          0 0 0 0 0 0 0 0 0 0 0 0
          0 0 0 0
        </DataArray>
      </CellData>
      <Points>
        <DataArray type="Float32" Name="Coordinates" NumberOfComponents="3" format="ascii">
          0 0 0 0.1 0 0 0 0.1 0 0.1 0.1 0
          0.1 0 0 0.2 0 0 0.1 0.1 0 0.2 0.1 0
          0.2 0 0 0.3 0 0 0.2 0.1 0 0.3 0.1 0
          0.3 0 0 0.4 0 0 0.3 0.1 0 0.4 0.1 0
          0.4 0 0 0.5 0 0 0.4 0.1 0 0.5 0.1 0
          0.5 0 0 0.6 0 0 0.5 0.1 0 0.6 0.1 0
          0.6 0 0 0.7 0 0 0.6 0.1 0 0.7 0.1 0
          0.7 0 0 0.8 0 0 0.7 0.1 0 0.8 0.1 0
          0.8 0 0 0.9 0 0 0.8 0.1 0 0.9 0.1 0
          0.9 0 0 1 0 0 0.9 0.1 0 1 0.1 0
          0 0.1 0 0.1 0.1 0 0 0.2 0 0.1 0.2 0
          0.1 0.1 0 0.2 0.1 0 0.1 0.2 0 0.2 0.2 0
          0.2 0.1 0 0.3 0.1 0 0.2 0.2 0 0.3 0.2 0
          0.3 0.1 0 0.4 0.1 0 0.3 0.2 0 0.4 0.2 0
          0.4 0.1 0 0.5 0.1 0 0.4 0.2 0 0.5 0.2 0
          0.5 0.1 0 0.6 0.1 0 0.5 0.2 0 0.6 0.2 0
          0.6 0.1 0 0.7 0.1 0 0.6 0.2 0 0.7 0.2 0
          0.7 0.1 0 0.8 0.1 0 0.7 0.2 0 0.8 0.2 0
          0.8 0.1 0 0.9 0.1 0 0.8 0.2 0 0.9 0.2 0
          0.9 0.1 0 1 0.1 0 0.9 0.2 0 1 0.2 0
          0 0.2 0 0.1 0.2 0 0 0.3 0 0.1 0.3 0
          0.1 0.2 0 0.2 0.2 0 0.1 0.3 0 0.2 0.3 0
          0.2 0.2 0 0.3 0.2 0 0.2 0.3 0 0.3 0.3 0
          0.3 0.2 0 0.4 0.2 0 0.3 0.3 0 0.4 0.3 0
          0.4 0.2 0 0.5 0.2 0 0.4 0.3 0 0.5 0.3 0
          0.5 0.2 0 0.6 0.2 0 0.5 0.3 0 0.6 0.3 0
          0.6 0.2 0 0.7 0.2 0 0.6 0.3 0 0.7 0.3 0
          0.7 0.2 0 0.8 0.2 0 0.7 0.3 0 0.8 0.3 0
          0.8 0.2 0 0.9 0.2 0 0.8 0.3 0 0.9 0.3 0
          0.9 0.2 0 1 0.2 0 0.9 0.3 0 1 0.3 0
          0 0.3 0 0.1 0.3 0 0 0.4 0 0.1 0.4 0
          0.1 0.3 0 0.2 0.3 0 0.1 0.4 0 0.2 0.4 0
          0.2 0.3 0 0.3 0.3 0 0.2 0.4 0 0.3 0.4 0
          0.3 0.3 0 0.4 0.3 0 0.3 0.4 0 0.4 0.4 0
          0.4 0.3 0 0.5 0.3 0 0.4 0.4 0 0.5 0.4 0
          0.5 0.3 0 0.6 0.3 0 0.5 0.4 0 0.6 0.4 0
          0.6 0.3 0 0.7 0.3 0 0.6 0.4 0 0.7 0.4 0
          0.7 0.3 0 0.8 0.3 0 0.7 0.4 0 0.8 0.4 0
          0.8 0.3 0 0.9 0.3 0 0.8 0.4 0 0.9 0.4 0
          0.9 0.3 0 1 0.3 0 0.9 0.4 0 1 0.4 0
          0 0.4 0 0.1 0.4 0 0 0.5 0 0.1 0.5 0
          0.1 0.4 0 0.2 0.4 0 0.1 0.5 0 0.2 0.5 0
          0.2 0.4 0 0.3 0.4 0 0.2 0.5 0 0.3 0.5 0
          0.3 0.4 0 0.4 0.4 0 0.3 0.5 0 0.4 0.5 0
          0.4 0.4 0 0.5 0.4 0 0.4 0.5 0 0.5 0.5 0
          0.5 0.4 0 0.6 0.4 0 0.5 0.5 0 0.6 0.5 0
          0.6 0.4 0 0.7 0.4 0 0.6 0.5 0 0.7 0.5 0
          0.7 0.4 0 0.8 0.4 0 0.7 0.5 0 0.8 0.5 0
          0.8 0.4 0 0.9 0.4 0 0.8 0.5 0 0.9 0.5 0
          0.9 0.4 0 1 0.4 0 0.9 0.5 0 1 0.5 0
          0 0.5 0 0.1 0.5 0 0 0.6 0 0.1 0.6 0
          0.1 0.5 0 0.2 0.5 0 0.1 0.6 0 0.2 0.6 0
          0.2 0.5 0 0.3 0.5 0 0.2 0.6 0 0.3 0.6 0
          0.3 0.5 0 0.4 0.5 0 0.3 0.6 0 0.4 0.6 0
          0.4 0.5 0 0.5 0.5 0 0.4 0.6 0 0.5 0.6 0
          0.5 0.5 0 0.6 0.5 0 0.5 0.6 0 0.6 0.6 0
          0.6 0.5 0 0.7 0.5 0 0.6 0.6 0 0.7 0.6 0
          0.7 0.5 0 0.8 0.5 0 0.7 0.6 0 0.8 0.6 0
          0.8 0.5 0 0.9 0.5 0 0.8 0.6 0 0.9 0.6 0
          0.9 0.5 0 1 0.5 0 0.9 0.6 0 1 0.6 0
          0 0.6 0 0.1 0.6 0 0 0.7 0 0.1 0.7 0
          0.1 0.6 0 0.2 0.6 0 0.1 0.7 0 0.2 0.7 0
          0.2 0.6 0 0.3 0.6 0 0.2 0.7 0 0.3 0.7 0
          0.3 0.6 0 0.4 0.6 0 0.3 0.7 0 0.4 0.7 0
          0.4 0.6 0 0.5 0.6 0 0.4 0.7 0 0.5 0.7 0
          0.5 0.6 0 0.6 0.6 0 0.5 0.7 0 0.6 0.7 0
          0.6 0.6 0 0.7 0.6 0 0.6 0.7 0 0.7 0.7 0
          0.7 0.6 0 0.8 0.6 0 0.7 0.7 0 0.8 0.7 0
          0.8 0.6 0 0.9 0.6 0 0.8 0.7 0 0.9 0.7 0
          0.9 0.6 0 1 0.6 0 0.9 0.7 0 1 0.7 0
          0 0.7 0 0.1 0.7 0 0 0.8 0 0.1 0.8 0
          0.1 0.7 0 0.2 0.7 0 0.1 0.8 0 0.2 0.8 0
          0.2 0.7 0 0.3 0.7 0 0.2 0.8 0 0.3 0.8 0
          0.3 0.7 0 0.4 0.7 0 0.3 0.8 0 0.4 0.8 0
          0.4 0.7 0 0.5 0.7 0 0.4 0.8 0 0.5 0.8 0
          0.5 0.7 0 0.6 0.7 0 0.5 0.8 0 0.6 0.8 0
          0.6 0.7 0 0.7 0.7 0 0.6 0.8 0 0.7 0.8 0
          0.7 0.7 0 0.8 0.7 0 0.7 0.8 0 0.8 0.8 0
          0.8 0.7 0 0.9 0.7 0 0.8 0.8 0 0.9 0.8 0
          0.9 0.7 0 1 0.7 0 0.9 0.8 0 1 0.8 0
          0 0.8 0 0.1 0.8 0 0 0.9 0 0.1 0.9 0
          0.1 0.8 0 0.2 0.8 0 0.1 0.9 0 0.2 0.9 0
          0.2 0.8 0 0.3 0.8 0 0.2 0.9 0 0.3 0.9 0
          0.3 0.8 0 0.4 0.8 0 0.3 0.9 0 0.4 0.9 0
          0.4 0.8 0 0.5 0.8 0 0.4 0.9 0 0.5 0.9 0
          0.5 0.8 0 0.6 0.8 0 0.5 0.9 0 0.6 0.9 0
          0.6 0.8 0 0.7 0.8 0 0.6 0.9 0 0.7 0.9 0
          0.7 0.8 0 0.8 0.8 0 0.7 0.9 0 0.8 0.9 0
          0.8 0.8 0 0.9 0.8 0 0.8 0.9 0 0.9 0.9 0
          0.9 0.8 0 1 0.8 0 0.9 0.9 0 1 0.9 0
          0 0.9 0 0.1 0.9 0 0 1 0 0.1 1 0
          0.1 0.9 0 0.2 0.9 0 0.1 1 0 0.2 1 0
          0.2 0.9 0 0.3 0.9 0 0.2 1 0 0.3 1 0
          0.3 0.9 0 0.4 0.9 0 0.3 1 0 0.4 1 0
          0.4 0.9 0 0.5 0.9 0 0.4 1 0 0.5 1 0
          0.5 0.9 0 0.6 0.9 0 0.5 1 0 0.6 1 0
          0.6 0.9 0 0.7 0.9 0 0.6 1 0 0.7 1 0
          0.7 0.9 0 0.8 0.9 0 0.7 1 0 0.8 1 0
          0.8 0.9 0 0.9 0.9 0 0.8 1 0 0.9 1 0
          0.9 0.9 0 1 0.9 0 0.9 1 0 1 1 0
        </DataArray>
      </Points>
      <Cells>
        <DataArray type="Int32" Name="connectivity" NumberOfComponents="1" format="ascii">
          0 1 3 2 4 5 7 6 8 9 11 10
          12 13 15 14 16 17 19 18 20 21 23 22
          24 25 27 26 28 29 31 30 32 33 35 34
          36 37 39 38 40 41 43 42 44 45 47 46
          48 49 51 50 52 53 55 54 56 57 59 58
          60 61 63 62 64 65 67 66 68 69 71 70
          72 73 75 74 76 77 79 78 80 81 83 82
          84 85 87 86 88 89 91 90 92 93 95 94
          96 97 99 98 100 101 103 102 104 105 107 106
          108 109 111 110 112 113 115 114 116 117 119 118
          120 121 123 122 124 125 127 126 128 129 131 130
          132 133 135 134 136 137 139 138 140 141 143 142
          144 145 147 146 148 149 151 150 152 153 155 154
          156 157 159 158 160 161 163 162 164 165 167 166
          168 169 171 170 172 173 175 174 176 177 179 178
          180 181 183 182 184 185 187 186 188 189 191 190
          192 193 195 194 196 197 199 198 200 201 203 202
          204 205 207 206 208 209 211 210 212 213 215 214
          216 217 219 218 220 221 223 222 224 225 227 226
          228 229 231 230 232 233 235 234 236 237 239 238
          240 241 243 242 244 245 247 246 248 249 251 250
          252 253 255 254 256 257 259 258 260 261 263 262
          264 265 267 266 268 269 271 270 272 273 275 274
          276 277 279 278 280 281 283 282 284 285 287 286
          288 289 291 290 292 293 295 294 296 297 299 298
          300 301 303 302 304 305 307 306 308 309 311 310
          312 313 315 314 316 317 319 318 320 321 323 322
          324 325 327 326 328 329 331 330 332 333 335 334
          336 337 339 338 340 341 343 342 344 345 347 346
          348 349 351 350 352 353 355 354 356 357 359 358
          360 361 363 362 364 365 367 366 368 369 371 370
          372 373 375 374 376 377 379 378 380 381 383 382
          384 385 387 386 388 389 391 390 392 393 395 394
          396 397 399 398
        </DataArray>
        <DataArray type="Int32" Name="offsets" NumberOfComponents="1" format="ascii">
          4 8 12 16 20 24 28 32 36 40 44 48
          52 56 60 64 68 72 76 80 84 88 92 96
          100 104 108 112 116 120 124 128 132 136 140 144
          148 152 156 160 164 168 172 176 180 184 188 192
          196 200 204 208 212 216 220 224 228 232 236 240
          244 248 252 256 260 264 268 272 276 280 284 288
          292 296 300 304 308 312 316 320 324 328 332 336
          340 344 348 352 356 360 364 368 372 376 380 384
          388 392 396 400
        </DataArray>
        <DataArray type="UInt8" Name="types" NumberOfComponents="1" format="ascii">
          9 9 9 9 9 9 9 9 9 9 9 9
          9 9 9 9 9 9 9 9 9 9 9 9
          9 9 9 9 9 9 9 9 9 9 9 9
          9 9 9 9 9 9 9 9 9 9 9 9
          9 9 9 9 9 9 9 9 9 9 9 9
          9 9 9 9 9 9 9 9 9 9 9 9
          9 9 9 9 9 9 9 9 9 9 9 9
          9 9 9 9 9 9 9 9 9 9 9 9
          9 9 9 9
        </DataArray>
      </Cells>
    </Piece>
  </UnstructuredGrid>
</VTKFile>
