<?xml version="1.0"?>
<VTKFile type="UnstructuredGrid" version="0.1" byte_order="LittleEndian">
  <UnstructuredGrid>
    <Piece NumberOfCells="246" NumberOfPoints="435">
      <CellData Scalars="wetting potential" Vectors="wetting-velocity">
        <DataArray type="Float32" Name="wetting potential" NumberOfComponents="1" format="ascii">
          1.27999 1.19198 1.17557 1.21627 1.24224 1.18534 1.16933 1.1997 1.15922 1.14006 1.13691 1.1532
          1.15905 1.14098 1.13719 1.15232 1.14458 1.13146 1.12677 1.13544 1.14346 1.13121 1.12631 1.13412
          1.15481 1.17015 1.15543 1.14029 1.13568 1.14902 1.15121 1.13814 1.13244 1.14466 1.1402 1.12941
          1.12524 1.13077 1.13457 1.12694 1.1241 1.12644 1.15516 1.15001 1.13916 1.14317 1.14771 1.14394
          1.13216 1.13538 1.13098 1.12756 1.12635 1.12879 1.13142 1.12741 1.12618 1.12874 1.12565 1.12391
          1.1261 1.1253 1.12417 1.12479 1.1259 1.12503 1.12373 1.1245 1.13087 1.12695 1.12572 1.12779
          1.12933 1.12624 1.12505 1.12659 1.1247 1.12226 1.1253 1.12439 1.12286 1.12372 1.12456 1.12354
          1.1218 1.12271 1.14098 1.13562 1.12765 1.13069 1.13769 1.1333 1.1263 1.12832 1.12825 1.12472
          1.12347 1.12523 1.12703 1.12432 1.12287 1.12456 1.1225 1.12591 1.12523 1.12437 1.12503 1.12503
          1.12438 1.12349 1.12417 1.13207 1.12886 1.12447 1.12531 1.12613 1.12482 1.12277 1.12341 1.12519
          1.12331 1.12164 1.12322 1.1236 1.12202 1.12017 1.12163 1.11949 1.1236 1.12291 1.12197 1.12269
          1.12194 1.12124 1.12017 1.12093 1.12247 1.12171 1.11978 1.12058 1.11994 1.11843 1.11323 1.11581
          1.1547 1.15129 1.14424 1.14739 1.13746 1.13534 1.13066 1.13276 1.14284 1.13272 1.12837 1.13618
          1.13068 1.12702 1.12529 1.12716 1.12823 1.12526 1.12296 1.12442 1.12478 1.12365 1.12185 1.12293
          1.1367 1.13366 1.12569 1.12771 1.12677 1.12566 1.12367 1.124 1.12686 1.12605 1.12488 1.12525
          1.12417 1.12402 1.12353 1.12371 1.12514 1.12449 1.12371 1.1244 1.12369 1.12322 1.12268 1.12318
          1.12187 1.12393 1.12372 1.12241 1.12267 1.12288 1.12266 1.12161 1.12184 1.12735 1.12527 1.124
          1.12541 1.12511 1.12364 1.12258 1.12393 1.12234 1.11904 1.12141 1.12212 1.11981 1.11637 1.11987
          1.12378 1.1232 1.12143 1.12205 1.12244 1.12195 1.12047 1.12103 1.12001 1.1162 1.11936 1.12026
          1.11899 1.11609 1.11831 1.11647 1.11204 1.09772 1.1104 1.11566 1.10765 1.10064 1.08279 1.04938
          1.08754 1.09782 1.07104 1.02039 1.08517 1.11019
        </DataArray>
        <DataArray type="Float32" Name="wetting pressure" NumberOfComponents="1" format="ascii">
          1.27999 1.19198 1.17557 1.21627 1.24224 1.18534 1.16933 1.1997 1.15922 1.14006 1.13691 1.1532
          1.15905 1.14098 1.13719 1.15232 1.14458 1.13146 1.12677 1.13544 1.14346 1.13121 1.12631 1.13412
          1.15481 1.17015 1.15543 1.14029 1.13568 1.14902 1.15121 1.13814 1.13244 1.14466 1.1402 1.12941
          1.12524 1.13077 1.13457 1.12694 1.1241 1.12644 1.15516 1.15001 1.13916 1.14317 1.14771 1.14394
          1.13216 1.13538 1.13098 1.12756 1.12635 1.12879 1.13142 1.12741 1.12618 1.12874 1.12565 1.12391
          1.1261 1.1253 1.12417 1.12479 1.1259 1.12503 1.12373 1.1245 1.13087 1.12695 1.12572 1.12779
          1.12933 1.12624 1.12505 1.12659 1.1247 1.12226 1.1253 1.12439 1.12286 1.12372 1.12456 1.12354
          1.1218 1.12271 1.14098 1.13562 1.12765 1.13069 1.13769 1.1333 1.1263 1.12832 1.12825 1.12472
          1.12347 1.12523 1.12703 1.12432 1.12287 1.12456 1.1225 1.12591 1.12523 1.12437 1.12503 1.12503
          1.12438 1.12349 1.12417 1.13207 1.12886 1.12447 1.12531 1.12613 1.12482 1.12277 1.12341 1.12519
          1.12331 1.12164 1.12322 1.1236 1.12202 1.12017 1.12163 1.11949 1.1236 1.12291 1.12197 1.12269
          1.12194 1.12124 1.12017 1.12093 1.12247 1.12171 1.11978 1.12058 1.11994 1.11843 1.11323 1.11581
          1.1547 1.15129 1.14424 1.14739 1.13746 1.13534 1.13066 1.13276 1.14284 1.13272 1.12837 1.13618
          1.13068 1.12702 1.12529 1.12716 1.12823 1.12526 1.12296 1.12442 1.12478 1.12365 1.12185 1.12293
          1.1367 1.13366 1.12569 1.12771 1.12677 1.12566 1.12367 1.124 1.12686 1.12605 1.12488 1.12525
          1.12417 1.12402 1.12353 1.12371 1.12514 1.12449 1.12371 1.1244 1.12369 1.12322 1.12268 1.12318
          1.12187 1.12393 1.12372 1.12241 1.12267 1.12288 1.12266 1.12161 1.12184 1.12735 1.12527 1.124
          1.12541 1.12511 1.12364 1.12258 1.12393 1.12234 1.11904 1.12141 1.12212 1.11981 1.11637 1.11987
          1.12378 1.1232 1.12143 1.12205 1.12244 1.12195 1.12047 1.12103 1.12001 1.1162 1.11936 1.12026
          1.11899 1.11609 1.11831 1.11647 1.11204 1.09772 1.1104 1.11566 1.10765 1.10064 1.08279 1.04938
          1.08754 1.09782 1.07104 1.02039 1.08517 1.11019
        </DataArray>
        <DataArray type="Float32" Name="nonwetting pressure" NumberOfComponents="1" format="ascii">
          1.27999 1.19198 1.17557 1.21627 1.24224 1.18534 1.16933 1.1997 1.15922 1.14006 1.13691 1.1532
          1.15905 1.14098 1.13719 1.15232 1.14458 1.13146 1.12677 1.13544 1.14346 1.13121 1.12631 1.13412
          1.15481 1.17015 1.15543 1.14029 1.13568 1.14902 1.15121 1.13814 1.13244 1.14466 1.1402 1.12941
          1.12524 1.13077 1.13457 1.12694 1.1241 1.12644 1.15516 1.15001 1.13916 1.14317 1.14771 1.14394
          1.13216 1.13538 1.13098 1.12756 1.12635 1.12879 1.13142 1.12741 1.12618 1.12874 1.12565 1.12391
          1.1261 1.1253 1.12417 1.12479 1.1259 1.12503 1.12373 1.1245 1.13087 1.12695 1.12572 1.12779
          1.12933 1.12624 1.12505 1.12659 1.1247 1.12226 1.1253 1.12439 1.12286 1.12372 1.12456 1.12354
          1.1218 1.12271 1.14098 1.13562 1.12765 1.13069 1.13769 1.1333 1.1263 1.12832 1.12825 1.12472
          1.12347 1.12523 1.12703 1.12432 1.12287 1.12456 1.1225 1.12591 1.12523 1.12437 1.12503 1.12503
          1.12438 1.12349 1.12417 1.13207 1.12886 1.12447 1.12531 1.12613 1.12482 1.12277 1.12341 1.12519
          1.12331 1.12164 1.12322 1.1236 1.12202 1.12017 1.12163 1.11949 1.1236 1.12291 1.12197 1.12269
          1.12194 1.12124 1.12017 1.12093 1.12247 1.12171 1.11978 1.12058 1.11994 1.11843 1.11323 1.11581
          1.1547 1.15129 1.14424 1.14739 1.13746 1.13534 1.13066 1.13276 1.14284 1.13272 1.12837 1.13618
          1.13068 1.12702 1.12529 1.12716 1.12823 1.12526 1.12296 1.12442 1.12478 1.12365 1.12185 1.12293
          1.1367 1.13366 1.12569 1.12771 1.12677 1.12566 1.12367 1.124 1.12686 1.12605 1.12488 1.12525
          1.12417 1.12402 1.12353 1.12371 1.12514 1.12449 1.12371 1.1244 1.12369 1.12322 1.12268 1.12318
          1.12187 1.12393 1.12372 1.12241 1.12267 1.12288 1.12266 1.12161 1.12184 1.12735 1.12527 1.124
          1.12541 1.12511 1.12364 1.12258 1.12393 1.12234 1.11904 1.12141 1.12212 1.11981 1.11637 1.11987
          1.12378 1.1232 1.12143 1.12205 1.12244 1.12195 1.12047 1.12103 1.12001 1.1162 1.11936 1.12026
          1.11899 1.11609 1.11831 1.11647 1.11204 1.09772 1.1104 1.11566 1.10765 1.10064 1.08279 1.04938
          1.08754 1.09782 1.07104 1.02039 1.08517 1.11019
        </DataArray>
        <DataArray type="Float32" Name="nonwetting potential" NumberOfComponents="1" format="ascii">
          1.27999 1.19198 1.17557 1.21627 1.24224 1.18534 1.16933 1.1997 1.15922 1.14006 1.13691 1.1532
          1.15905 1.14098 1.13719 1.15232 1.14458 1.13146 1.12677 1.13544 1.14346 1.13121 1.12631 1.13412
          1.15481 1.17015 1.15543 1.14029 1.13568 1.14902 1.15121 1.13814 1.13244 1.14466 1.1402 1.12941
          1.12524 1.13077 1.13457 1.12694 1.1241 1.12644 1.15516 1.15001 1.13916 1.14317 1.14771 1.14394
          1.13216 1.13538 1.13098 1.12756 1.12635 1.12879 1.13142 1.12741 1.12618 1.12874 1.12565 1.12391
          1.1261 1.1253 1.12417 1.12479 1.1259 1.12503 1.12373 1.1245 1.13087 1.12695 1.12572 1.12779
          1.12933 1.12624 1.12505 1.12659 1.1247 1.12226 1.1253 1.12439 1.12286 1.12372 1.12456 1.12354
          1.1218 1.12271 1.14098 1.13562 1.12765 1.13069 1.13769 1.1333 1.1263 1.12832 1.12825 1.12472
          1.12347 1.12523 1.12703 1.12432 1.12287 1.12456 1.1225 1.12591 1.12523 1.12437 1.12503 1.12503
          1.12438 1.12349 1.12417 1.13207 1.12886 1.12447 1.12531 1.12613 1.12482 1.12277 1.12341 1.12519
          1.12331 1.12164 1.12322 1.1236 1.12202 1.12017 1.12163 1.11949 1.1236 1.12291 1.12197 1.12269
          1.12194 1.12124 1.12017 1.12093 1.12247 1.12171 1.11978 1.12058 1.11994 1.11843 1.11323 1.11581
          1.1547 1.15129 1.14424 1.14739 1.13746 1.13534 1.13066 1.13276 1.14284 1.13272 1.12837 1.13618
          1.13068 1.12702 1.12529 1.12716 1.12823 1.12526 1.12296 1.12442 1.12478 1.12365 1.12185 1.12293
          1.1367 1.13366 1.12569 1.12771 1.12677 1.12566 1.12367 1.124 1.12686 1.12605 1.12488 1.12525
          1.12417 1.12402 1.12353 1.12371 1.12514 1.12449 1.12371 1.1244 1.12369 1.12322 1.12268 1.12318
          1.12187 1.12393 1.12372 1.12241 1.12267 1.12288 1.12266 1.12161 1.12184 1.12735 1.12527 1.124
          1.12541 1.12511 1.12364 1.12258 1.12393 1.12234 1.11904 1.12141 1.12212 1.11981 1.11637 1.11987
          1.12378 1.1232 1.12143 1.12205 1.12244 1.12195 1.12047 1.12103 1.12001 1.1162 1.11936 1.12026
          1.11899 1.11609 1.11831 1.11647 1.11204 1.09772 1.1104 1.11566 1.10765 1.10064 1.08279 1.04938
          1.08754 1.09782 1.07104 1.02039 1.08517 1.11019
        </DataArray>
        <DataArray type="Float32" Name="capillary pressure" NumberOfComponents="1" format="ascii">
          0 0 0 0 0 0 0 0 0 0 0 0
          0 0 0 0 0 0 0 0 0 0 0 0
          0 0 0 0 0 0 0 0 0 0 0 0
          0 0 0 0 0 0 0 0 0 0 0 0
          0 0 0 0 0 0 0 0 0 0 0 0
          0 0 0 0 0 0 0 0 0 0 0 0
          0 0 0 0 0 0 0 0 0 0 0 0
          0 0 0 0 0 0 0 0 0 0 0 0
          0 0 0 0 0 0 0 0 0 0 0 0
          0 0 0 0 0 0 0 0 0 0 0 0
          0 0 0 0 0 0 0 0 0 0 0 0
          0 0 0 0 0 0 0 0 0 0 0 0
          0 0 0 0 0 0 0 0 0 0 0 0
          0 0 0 0 0 0 0 0 0 0 0 0
          0 0 0 0 0 0 0 0 0 0 0 0
          0 0 0 0 0 0 0 0 0 0 0 0
          0 0 0 0 0 0 0 0 0 0 0 0
          0 0 0 0 0 0 0 0 0 0 0 0
          0 0 0 0 0 0 0 0 0 0 0 0
          0 0 0 0 0 0 0 0 0 0 0 0
          0 0 0 0 0 0
        </DataArray>
        <DataArray type="Float32" Name="wetting-velocity" NumberOfComponents="3" format="ascii">
          1.89556e-05 2.02497e-05 1.90801e-05 2.49831e-05 4.20997e-06 4.12148e-06 1.10216e-05 7.84058e-06 2.41296e-06 7.67056e-06 2.22502e-05 6.41523e-06
          1.19429e-05 1.15371e-05 2.5539e-05 1.65543e-05 3.45365e-06 1.04715e-05 7.82414e-06 6.55893e-06 6.53433e-06 5.35488e-06 1.50665e-05 1.3694e-05
          7.93464e-06 1.16401e-06 8.57324e-07 3.40713e-06 3.79698e-07 2.99862e-07 2.51947e-06 8.38517e-07 2.67981e-07 5.00858e-06 2.4294e-06 6.65716e-07
          6.72312e-06 1.13211e-06 2.33851e-06 3.22436e-06 4.02855e-07 8.92617e-07 2.37531e-06 8.60645e-07 7.83484e-07 4.05092e-06 2.29635e-06 1.76806e-06
          2.52065e-06 2.41425e-06 3.72639e-07 1.46513e-06 8.25804e-07 1.43191e-07 8.61366e-07 3.38538e-07 1.7649e-08 1.98324e-06 1.88002e-06 2.64447e-07
          2.24207e-06 2.21535e-06 1.06796e-06 1.33711e-06 7.98164e-07 3.92096e-07 7.51736e-07 3.10702e-07 4.7616e-08 1.77486e-06 1.75993e-06 6.83064e-07
          1.19265e-06 5.19877e-06 1.19753e-06 1.67462e-06 2.18593e-06 7.83404e-06 4.3246e-06 7.8137e-07 2.93752e-06 2.75051e-06 3.7342e-07 1.35107e-06
          2.16154e-06 7.7984e-07 1.16409e-06 3.31452e-06 1.74516e-06 2.28406e-06 3.52782e-06 5.61083e-07 2.92445e-06 2.45749e-06 3.16101e-07 1.63442e-06
          1.88413e-06 6.74594e-07 1.36132e-06 3.05932e-06 1.38316e-06 2.53945e-06 1.98436e-06 1.76939e-06 1.57198e-06 1.07428e-06 5.3748e-07 4.33858e-07
          3.52609e-07 1.20738e-07 3.04528e-08 9.67262e-07 1.05228e-06 7.20677e-07 1.77334e-06 1.54535e-06 1.75887e-06 9.06522e-07 3.55826e-07 2.59061e-07
          1.3821e-09 2.07583e-09 7.27004e-10 4.48042e-07 6.76087e-07 4.53374e-07 6.75812e-07 3.75386e-06 3.05791e-06 1.80688e-06 3.21172e-06 2.13232e-06
          1.02918e-06 2.24528e-06 1.69472e-06 4.09221e-07 2.58905e-06 1.92917e-06 4.68832e-07 3.05267e-06 3.0162e-06 1.4278e-06 2.65979e-06 2.45347e-06
          6.72171e-07 1.37133e-06 1.32e-06 2.31462e-07 1.99472e-06 1.94613e-06 1.67498e-06 1.65057e-07 1.79287e-07 6.16692e-07 4.39845e-10 2.11681e-10
          1.60453e-07 3.81222e-10 1.907e-11 9.93597e-07 2.46467e-07 6.10816e-08 1.68991e-06 1.74476e-07 4.45297e-07 6.65246e-07 3.00346e-10 4.78752e-10
          1.28596e-07 2.60305e-10 3.90568e-11 9.96891e-07 2.33561e-07 1.5131e-07 1.22779e-10 1.04319e-28 8.17339e-29 1.61915e-27 8.11372e-29 8.11372e-30
          3.98658e-07 9.12934e-08 4.58035e-09 4.32192e-11 2.06644e-14 1.03322e-15 6.73959e-23 5.42552e-27 1.10462e-27 1.75848e-09 3.79791e-11 1.89896e-12
          3.6773e-07 7.2671e-08 1.09214e-08 1.10652e-11 4.1207e-15 6.18105e-16 1.6181e-25 4.25249e-27 2.77116e-27 3.82928e-10 9.51303e-12 1.42695e-12
          1.55396e-06 1.71504e-07 5.8961e-07 5.82619e-07 3.70416e-11 2.96055e-10 2.78143e-08 3.21027e-11 8.02845e-12 9.27922e-07 1.6653e-07 1.29651e-07
          1.28778e-06 5.17116e-08 6.68566e-07 3.50507e-07 4.69021e-13 4.44456e-11 6.31926e-10 4.06485e-13 1.42271e-13 7.99097e-07 4.52634e-08 3.66547e-08
          7.54634e-12 3.12509e-34 6.03328e-29 9.63161e-29 2.43063e-34 7.29189e-35 1.61584e-07 1.57886e-08 3.9531e-09 2.68482e-14 1.84461e-18 4.61153e-19
          1.57226e-29 2.73086e-28 1.41984e-27 7.59054e-13 2.37337e-14 5.93342e-15 2.90768e-09 3.94088e-10 1.37946e-10 1.29227e-22 2.83518e-25 9.94105e-26
          1.98019e-28 2.78691e-28 2.73348e-28 4.94061e-23 1.13261e-22 3.96416e-23 4.48877e-07 2.82323e-06 3.78376e-07 1.05338e-06 2.52471e-06 2.43985e-07
          1.1617e-07 9.33169e-07 4.79854e-08 1.12301e-07 1.26078e-06 1.15699e-07 3.21765e-07 2.62205e-06 9.47909e-07 7.99129e-07 2.11185e-06 6.32715e-07
          2.08694e-08 6.81639e-07 1.03686e-07 1.87228e-08 1.02532e-06 2.38325e-07 6.25575e-07 7.82302e-07 4.69661e-08 1.88823e-08 1.6774e-09 8.38702e-11
          3.64461e-19 9.21315e-20 4.60658e-21 2.59872e-09 1.91859e-08 9.59294e-10 4.88974e-07 7.40197e-07 1.20578e-07 1.74008e-09 3.38369e-10 5.07554e-11
          5.20165e-24 4.01973e-24 6.03217e-25 5.4198e-11 1.67353e-09 2.51029e-10 1.80395e-23 4.28992e-20 4.28992e-21 1.12951e-13 2.50351e-07 1.25177e-08
          1.15989e-13 3.16356e-09 1.58178e-10 5.16584e-30 6.9202e-23 3.4601e-24 1.77519e-30 1.77032e-13 8.85162e-15 -3.16962e-15 3.92328e-08 5.88505e-09
          7.5088e-18 6.41048e-11 9.61572e-12 5.40557e-30 3.56372e-29 1.11758e-29 1.81537e-30 9.80895e-18 1.47134e-18 1.75521e-07 1.49436e-06 9.21522e-07
          2.34407e-07 1.00005e-06 4.99941e-07 7.54201e-12 6.67325e-08 1.67377e-08 -7.94018e-10 4.81026e-07 1.51147e-07 -4.52515e-09 7.63337e-07 5.08435e-07
          -1.939e-09 4.12077e-07 1.94523e-07 -6.44938e-18 4.72732e-12 1.65464e-12 -5.7099e-13 3.88127e-09 1.38033e-09 6.44533e-08 2.82539e-07 7.20367e-08
          3.75387e-13 6.48004e-13 1.62001e-13 -1.67454e-29 1.19197e-29 1.75816e-28 7.5624e-17 3.42372e-13 8.5593e-14 3.84348e-12 1.33936e-09 4.69058e-10
          8.42111e-25 4.40296e-23 1.54104e-23 1.2644e-29 1.12101e-29 1.58355e-29 3.08823e-28 7.44606e-25 2.60624e-25 3.86975e-36 4.84195e-30 1.45259e-30
          -3.33317e-19 2.09055e-11 5.2264e-12 -3.83311e-30 8.0054e-17 2.00135e-17 -2.53189e-31 1.88171e-36 3.79793e-30 -7.87225e-32 1.8312e-36 3.5426e-30
          1.84322e-36 2.95277e-22 1.03347e-22 5.28633e-36 2.83586e-28 9.92553e-29 5.76689e-36 1.69979e-36 8.52658e-36 2.02862e-36 1.64287e-36 7.70409e-36
          1.51431e-20 1.0539e-23 1.0539e-24 0 0 0 0 0 0 0 0 0
          7.90461e-30 1.35092e-28 4.05275e-29 0 0 0 0 0 0 0 0 0
          4.79293e-07 3.42673e-07 4.59995e-06 1.44902e-06 3.08827e-07 4.0701e-06 1.18956e-06 9.53169e-07 3.56214e-06 3.97248e-07 1.09512e-06 3.86928e-06
          2.01219e-07 1.58703e-07 2.6887e-06 5.31136e-07 1.45152e-07 2.29987e-06 2.43223e-07 2.91565e-07 1.50774e-06 1.1028e-07 4.35575e-07 1.89013e-06
          2.02628e-06 2.87625e-07 2.51388e-06 1.59731e-06 1.06774e-07 1.62221e-06 7.29819e-07 1.31067e-07 6.88037e-07 1.51713e-06 7.71824e-07 2.30251e-06
          6.39213e-07 7.2918e-08 1.43885e-06 1.64968e-07 2.53804e-10 8.22583e-07 -6.90833e-09 2.74109e-10 2.61913e-08 -6.21454e-09 8.11465e-08 1.03383e-06
          3.33947e-07 5.15294e-07 7.9539e-07 2.02513e-08 1.71204e-08 8.67328e-09 5.97485e-20 2.11948e-18 7.41847e-19 -3.28805e-10 1.53343e-08 6.64495e-09
          -4.58369e-09 2.60339e-09 1.58457e-08 -7.74731e-19 2.83069e-19 2.03693e-18 6.51579e-29 7.85796e-29 7.88889e-29 -1.57929e-20 5.82709e-20 6.19464e-20
          2.36744e-07 1.32043e-06 2.25096e-06 5.91517e-07 1.10775e-06 1.77784e-06 -5.24154e-08 4.75699e-07 5.14797e-07 -2.55512e-08 6.07035e-07 8.52946e-07
          -4.87086e-08 2.92857e-07 9.35977e-07 -1.05518e-07 1.46566e-07 6.35552e-07 -2.3231e-11 4.79174e-11 1.28134e-10 -1.34503e-09 6.25384e-09 2.17389e-08
          -4.7554e-08 6.4149e-09 1.04745e-06 -1.27576e-07 2.78185e-10 8.66536e-07 -4.54938e-08 3.00498e-10 2.70911e-07 -3.17658e-08 6.94824e-09 5.68497e-07
          -6.24016e-10 2.18307e-20 1.20346e-08 -9.36463e-11 4.33179e-26 6.02012e-10 -1.22957e-14 4.67978e-26 7.31889e-14 -1.36233e-12 2.35772e-20 2.43273e-11
          -9.04123e-08 1.06272e-13 3.50675e-07 -1.98936e-10 4.03506e-27 5.48851e-10 -1.43815e-19 4.36697e-27 3.66994e-19 -1.04685e-09 1.14773e-13 3.73896e-09
          -7.39099e-14 4.35844e-30 2.85081e-13 -3.40997e-27 4.57224e-30 9.46216e-27 2.05706e-29 1.42835e-29 1.24895e-29 -1.23262e-23 1.39583e-29 4.40222e-23
          -5.0637e-21 1.27655e-23 1.32633e-20 -3.49013e-10 2.18977e-11 5.73707e-09 -9.34247e-12 6.28826e-14 5.11706e-11 -5.62814e-29 5.78691e-29 3.45531e-28
          -6.16893e-20 8.88357e-22 9.25473e-19 -4.30812e-23 4.4734e-29 7.07762e-22 4.38994e-30 2.38914e-29 4.17436e-29 1.00297e-29 1.86666e-29 7.89396e-30
          3.35518e-30 1.82328e-29 7.43523e-30 7.56238e-07 4.37743e-10 3.28849e-07 1.17207e-09 3.66295e-25 5.72507e-13 2.94246e-18 3.95631e-25 3.97618e-25
          3.46877e-08 4.72763e-10 5.57507e-10 3.72262e-10 2.99469e-25 8.00687e-10 5.50918e-25 1.94844e-29 6.12045e-25 6.60472e-29 5.29863e-29 7.46819e-29
          -2.72413e-19 3.23459e-25 1.85851e-18 1.13965e-25 0 2.28451e-34 0 0 0 6.73665e-19 4.45507e-19 1.33671e-19
          -1.88944e-26 0 6.55053e-26 0 0 0 0 0 0 0 0 0
          -2.52705e-10 2.65133e-08 1.27092e-08 -8.87062e-13 1.27872e-10 4.87681e-11 -5.01367e-29 4.73452e-28 4.91693e-28 -2.56781e-23 1.79911e-18 6.3e-19
          -1.17476e-19 1.09242e-18 1.86742e-18 -5.90025e-29 4.43259e-28 5.0271e-28 2.31954e-29 2.93907e-29 3.31909e-29 8.25213e-30 2.82786e-29 3.00312e-29
          -8.07077e-26 1.57674e-20 4.73038e-21 0 0 0 -8.17068e-37 1.46104e-29 4.38311e-30 -2.11155e-30 1.09749e-29 1.46717e-29
          0 0 0 0 0 0 0 0 0 0 0 0
          0 0 0 0 0 0 0 0 0 0 0 0
          0 0 0 0 0 0 0 0 0 0 0 0
          0 0 0 0 0 0 0 0 0 0 0 0
          0 0 0 0 0 0
        </DataArray>
        <DataArray type="Float32" Name="nonwetting-velocity" NumberOfComponents="3" format="ascii">
          2.75308e-09 2.94103e-09 2.77117e-09 1.50804e-08 9.89439e-09 9.68641e-09 3.43744e-08 3.7858e-08 1.60101e-08 1.21122e-08 9.97126e-09 8.87184e-09
          9.70962e-09 8.85545e-09 7.84382e-09 2.45076e-08 1.34021e-08 3.4376e-08 3.9644e-08 4.69736e-08 5.58916e-08 1.78324e-08 2.41976e-08 3.15856e-08
          4.67585e-08 1.76121e-08 1.29717e-08 1.25171e-07 3.30641e-08 2.61119e-08 1.75891e-07 1.11225e-07 4.21997e-08 6.94584e-08 5.52829e-08 1.8096e-08
          5.2533e-08 2.03877e-08 3.97079e-08 1.20953e-07 3.56159e-08 7.85249e-08 1.77114e-07 1.17456e-07 1.26691e-07 7.28185e-08 6.14298e-08 5.36781e-08
          1.0434e-07 1.06995e-07 2.09075e-08 3.43198e-07 3.50741e-07 9.2789e-08 7.1053e-07 8.81044e-07 2.90377e-07 1.90949e-07 2.25762e-07 4.40279e-08
          1.01782e-07 1.14635e-07 6.74957e-08 3.61719e-07 4.01681e-07 2.94448e-07 7.06306e-07 9.31613e-07 8.34983e-07 2.17702e-07 2.89643e-07 1.43085e-07
          3.2109e-08 6.86971e-08 2.51137e-08 2.52682e-08 2.86074e-08 6.34142e-08 7.82967e-08 2.09389e-08 6.64411e-08 1.3035e-07 3.74393e-08 1.28772e-07
          2.02022e-07 1.2633e-07 2.15028e-07 7.76346e-08 6.28193e-08 8.53337e-08 7.26614e-08 1.89333e-08 8.88674e-08 1.42009e-07 3.71973e-08 1.79647e-07
          2.54221e-07 1.64293e-07 3.5931e-07 8.12802e-08 6.37472e-08 1.19838e-07 1.27391e-07 1.22388e-07 1.29941e-07 4.82459e-07 5.20917e-07 7.01351e-07
          9.09047e-07 1.03639e-06 1.11632e-06 4.46447e-07 4.42217e-07 4.20923e-07 2.22699e-07 1.94674e-07 2.46814e-07 7.06178e-07 7.43792e-07 1.35306e-06
          1.16915e-06 1.20655e-06 1.20902e-06 8.20119e-07 8.73559e-07 1.14234e-06 1.72032e-08 7.02778e-08 7.3322e-08 6.04783e-08 7.65347e-08 6.28545e-08
          1.02454e-07 1.66002e-07 1.16353e-07 2.77797e-08 1.09355e-07 8.70297e-08 1.98705e-08 7.62774e-08 9.1387e-08 7.82931e-08 8.39535e-08 1.05881e-07
          2.90092e-07 3.06283e-07 3.431e-07 4.35227e-08 1.96722e-07 2.1493e-07 3.0273e-07 6.05257e-08 6.57438e-08 6.00639e-07 4.06721e-07 1.9574e-07
          9.55156e-07 7.82093e-07 2.01589e-07 6.00205e-07 3.786e-07 1.72697e-07 3.15642e-07 6.9655e-08 1.72694e-07 6.27044e-07 3.87248e-07 5.54118e-07
          9.81252e-07 7.809e-07 5.5326e-07 5.95663e-07 4.26539e-07 5.23456e-07 4.59102e-07 3.68683e-07 2.88862e-07 3.018e-07 7.07918e-07 3.90472e-07
          7.43674e-07 7.72512e-07 2.17742e-07 7.90411e-07 8.46528e-07 1.96028e-07 6.73178e-07 8.8306e-07 2.46466e-07 9.9049e-07 9.25154e-07 2.43712e-07
          7.52591e-07 8.26141e-07 5.92684e-07 7.79621e-07 8.91633e-07 5.61045e-07 7.55263e-07 9.59474e-07 6.61821e-07 1.03609e-06 9.63428e-07 6.66302e-07
          3.52934e-07 9.53025e-08 2.89786e-07 6.11916e-07 3.59771e-07 8.56703e-07 1.08485e-06 7.73904e-07 8.21734e-07 6.5079e-07 5.31043e-07 9.77717e-07
          3.55669e-07 3.6887e-08 6.01224e-07 7.21604e-07 3.10635e-07 9.58551e-07 1.09193e-06 7.20048e-07 9.97228e-07 7.11799e-07 5.49776e-07 1.21361e-06
          4.52792e-07 4.10958e-07 7.13963e-07 3.38401e-07 9.89471e-07 9.64523e-07 9.1842e-07 9.34447e-07 8.46671e-07 8.30731e-07 9.35642e-07 8.34248e-07
          7.99607e-07 1.0856e-06 9.31617e-07 1.05297e-06 1.10787e-06 9.70874e-07 1.19609e-06 1.03364e-06 1.08568e-06 8.49219e-07 9.41206e-07 1.04122e-06
          7.87315e-07 1.10806e-06 1.08682e-06 1.00938e-06 1.13454e-06 1.15847e-06 3.99138e-08 1.4314e-07 2.825e-08 1.67754e-07 2.57319e-07 3.79315e-08
          7.08294e-07 9.10074e-07 3.20316e-07 1.8928e-07 5.46563e-07 1.16085e-07 4.36171e-08 1.86428e-07 9.1266e-08 2.36524e-07 3.42493e-07 1.5655e-07
          7.2971e-07 9.24413e-07 9.08053e-07 2.75025e-07 7.19116e-07 6.06072e-07 7.18995e-07 8.43811e-07 3.02823e-07 1.06909e-06 1.08197e-06 2.47643e-07
          9.36643e-07 8.19087e-07 2.82481e-07 1.06456e-06 1.07224e-06 2.93398e-07 7.64554e-07 9.14488e-07 9.30757e-07 1.08971e-06 1.1237e-06 7.34704e-07
          9.53926e-07 9.00157e-07 7.98945e-07 9.82429e-07 1.11713e-06 8.2877e-07 8.28845e-07 3.72174e-07 4.60744e-07 2.01366e-07 7.62817e-07 2.63787e-07
          5.69783e-07 9.98122e-07 2.86125e-07 5.8608e-07 3.17531e-07 2.55899e-07 2.00349e-07 3.15609e-07 2.39529e-07 1.99416e-07 8.42074e-07 7.40241e-07
          5.86515e-07 9.02885e-07 7.89208e-07 6.15019e-07 2.86334e-07 7.06284e-07 2.06586e-07 2.7975e-07 6.60557e-07 9.83311e-08 3.47814e-07 2.52381e-07
          5.83102e-07 6.95822e-07 6.41903e-07 6.32047e-07 1.04366e-06 1.22296e-06 2.4354e-07 7.72812e-07 1.08894e-06 3.00804e-07 7.0295e-07 7.94185e-07
          6.82164e-07 8.07328e-07 1.09954e-06 5.92944e-07 9.64718e-07 1.22149e-06 2.11808e-07 9.44603e-07 1.20428e-06 1.0219e-06 9.78337e-07 1.25511e-06
          1.12614e-06 1.13482e-06 1.084e-06 1.0301e-06 9.49687e-07 1.12245e-06 8.9768e-07 1.05556e-06 1.14447e-06 9.09371e-07 1.25173e-06 1.35219e-06
          1.07123e-06 1.11752e-06 1.28723e-06 1.02191e-06 9.06022e-07 1.27985e-06 8.68624e-07 9.66556e-07 1.27115e-06 1.17918e-06 3.90276e-07 1.1893e-06
          2.19302e-07 7.24035e-07 1.01006e-06 6.51679e-07 7.2477e-07 1.05699e-06 7.00514e-07 2.39388e-07 9.65313e-07 2.31013e-07 2.32962e-07 9.08947e-07
          2.34491e-07 6.17592e-07 1.06569e-06 6.72517e-07 6.33176e-07 1.13368e-06 7.33653e-07 2.16245e-07 1.08474e-06 2.58078e-07 2.09003e-07 9.801e-07
          7.0302e-07 7.90442e-07 5.19673e-07 2.53145e-07 6.54244e-07 5.71794e-07 2.65886e-07 2.62016e-07 9.76969e-07 6.85232e-07 3.01928e-07 7.4782e-07
          9.20249e-07 1.17173e-06 1.26734e-06 3.52347e-07 1.04922e-06 1.83728e-06 5.82618e-07 4.24071e-07 3.51948e-06 1.28725e-06 5.38481e-07 2.23627e-06
          1.93882e-08 1.1598e-08 9.4627e-08 7.0806e-08 1.40232e-08 9.97238e-08 9.80384e-08 6.05624e-08 1.26625e-07 2.70589e-08 5.19675e-08 1.10526e-07
          4.24721e-08 2.47041e-08 2.03493e-07 1.53175e-07 3.75682e-08 2.69755e-07 4.54233e-07 2.51201e-07 5.11903e-07 8.4165e-08 1.53929e-07 3.42106e-07
          1.41373e-07 2.54556e-08 1.43872e-07 3.23445e-07 4.26949e-08 4.03616e-07 8.08684e-07 4.74217e-07 9.8896e-07 2.02801e-07 1.17276e-07 2.73269e-07
          5.31571e-07 7.87848e-08 4.42017e-07 1.08896e-06 3.6456e-07 1.09203e-06 1.04693e-06 8.5589e-07 1.47931e-06 9.10403e-07 6.12353e-07 1.05158e-06
          8.71607e-07 6.65057e-07 8.91569e-07 1.17455e-06 1.11029e-06 1.68463e-06 1.10974e-06 1.29817e-06 1.29203e-06 8.37803e-07 1.21874e-06 1.55008e-06
          8.29766e-07 1.13305e-06 1.33401e-06 9.98489e-07 1.04347e-06 1.35814e-06 9.69348e-07 1.16902e-06 1.17362e-06 7.48663e-07 1.19807e-06 1.22732e-06
          5.22211e-08 1.40134e-07 2.28558e-07 2.19369e-07 2.275e-07 3.46787e-07 7.67332e-07 7.98421e-07 9.98755e-07 3.69401e-07 6.72285e-07 7.60713e-07
          3.15523e-07 6.67162e-07 7.76317e-07 6.99106e-07 7.50146e-07 9.52874e-07 4.34261e-07 1.10895e-06 1.27531e-06 1.47597e-07 1.05773e-06 1.12224e-06
          2.34395e-07 2.51487e-07 5.89326e-07 6.10514e-07 2.49888e-07 7.08928e-07 4.3398e-07 6.31004e-07 8.9578e-07 1.8218e-07 6.5021e-07 7.49022e-07
          1.1246e-07 1.54031e-07 4.79501e-07 3.46988e-07 1.66303e-07 5.4909e-07 3.88258e-07 4.9305e-07 4.81514e-07 1.293e-07 4.67278e-07 4.8055e-07
          7.34334e-07 1.87588e-07 8.23268e-07 5.78822e-07 2.18616e-07 1.24518e-06 6.70352e-07 6.04519e-07 1.13637e-06 5.19312e-07 5.52397e-07 1.30099e-06
          5.90226e-07 1.7526e-07 5.1198e-07 7.97319e-07 1.85138e-07 5.21894e-07 8.32939e-07 5.78364e-07 5.05723e-07 6.18315e-07 5.63878e-07 5.05765e-07
          7.91282e-07 9.00949e-07 6.12146e-07 1.10205e-07 8.29129e-07 9.56832e-07 3.1437e-07 8.26278e-07 1.06266e-06 3.76789e-07 9.21985e-07 8.70086e-07
          1.30626e-07 8.79863e-07 8.34552e-07 1.54186e-07 7.07816e-07 3.99786e-07 4.83768e-07 7.23457e-07 4.34206e-07 4.73188e-07 8.80665e-07 3.72427e-07
          1.58293e-07 8.60202e-07 3.50785e-07 8.59504e-07 3.39612e-07 1.21969e-06 1.18857e-06 2.9113e-07 1.04233e-06 1.1203e-06 7.78849e-07 1.14321e-06
          1.34199e-06 8.27315e-07 1.32885e-06 1.28288e-06 3.09348e-07 1.18556e-06 9.669e-07 2.80601e-07 9.96894e-07 9.51167e-07 7.63074e-07 1.07552e-06
          1.10384e-06 8.02098e-07 1.1956e-06 4.51042e-07 4.7619e-07 8.19802e-07 4.67541e-07 1.58987e-06 1.23095e-06 1.08788e-06 1.23506e-06 1.10012e-06
          8.96308e-07 3.75718e-07 4.25737e-07 4.30895e-07 5.92282e-07 3.52081e-07 6.07703e-07 2.22625e-06 5.63186e-07 1.17645e-06 1.16489e-06 4.27144e-07
          2.06517e-07 1.09171e-06 1.243e-06 6.22766e-07 1.1513e-06 1.2427e-06 6.71742e-07 8.93661e-07 1.12991e-06 2.2961e-07 8.54777e-07 1.05856e-06
          2.05171e-07 9.59604e-07 9.96134e-07 6.23993e-07 1.0349e-06 1.0274e-06 6.66563e-07 8.44597e-07 9.53804e-07 2.3714e-07 8.1264e-07 8.63004e-07
          1.14248e-06 1.16363e-06 1.21282e-06 1.9392e-06 6.14065e-07 1.29526e-06 5.76303e-07 4.19856e-07 9.50623e-07 4.10964e-07 8.31629e-07 4.73244e-07
          1.19581e-06 1.06789e-06 5.6257e-07 2.17832e-06 6.07914e-07 5.91435e-07 6.58878e-07 4.03519e-07 4.60671e-07 1.52698e-06 1.66227e-06 1.44393e-06
          6.90055e-07 3.4102e-06 2.84971e-06 1.39822e-06 2.77053e-06 9.06478e-06 3.58382e-06 1.02372e-06 2.51663e-06 2.21801e-06 1.78447e-06 5.77513e-07
          1.35173e-06 5.72155e-06 1.31562e-06 9.57612e-06 8.63968e-06 7.96321e-06 5.65139e-06 1.57555e-05 1.47833e-05 1.11685e-05 1.20817e-05 2.64331e-05
          1.51375e-05 4.91926e-06 1.23842e-05 1.22937e-05 9.17538e-06 2.86523e-06 8.10466e-06 2.29193e-05 6.88244e-06 2.84455e-05 3.64227e-05 4.59922e-05
          2.4186e-05 5.27389e-06 4.76872e-06 5.93875e-06 1.16153e-06 9.26213e-07
        </DataArray>
        <DataArray type="Float32" Name="wetting saturation" NumberOfComponents="1" format="ascii">
          0.77618 0.743779 0.722854 0.750068 0.759899 0.734859 0.71488 0.738086 0.704317 0.650393 0.627454 0.687065
          0.6997 0.649853 0.625792 0.682063 0.662161 0.565645 0.328686 0.62114 0.656922 0.555533 0.290997 0.607662
          0.688234 0.707905 0.688458 0.645299 0.61828 0.674943 0.681573 0.639462 0.599837 0.66751 0.64529 0.50214
          0.221494 0.546463 0.619209 0.336928 0.200075 0.320893 0.689706 0.677625 0.640039 0.659949 0.675403 0.662675
          0.578809 0.62405 0.595382 0.304414 0.210572 0.503905 0.59188 0.297191 0.20712 0.48904 0.200003 0.2
          0.259375 0.200006 0.200005 0.200083 0.242787 0.200005 0.200005 0.200018 0.578267 0.261839 0.201089 0.417449
          0.547035 0.223163 0.200022 0.300003 0.2 0.2 0.210208 0.200002 0.200002 0.200002 0.200096 0.200002
          0.200002 0.200002 0.64955 0.617241 0.342894 0.529426 0.634553 0.591128 0.262035 0.439093 0.405325 0.200489
          0.200003 0.200661 0.326071 0.200042 0.200003 0.200043 0.2 0.217641 0.200091 0.200001 0.200001 0.201685
          0.200002 0.200001 0.200001 0.578964 0.462733 0.202554 0.249848 0.355965 0.23455 0.200003 0.200122 0.218275
          0.200001 0.200001 0.200001 0.200028 0.200001 0.200001 0.200001 0.2 0.2 0.2 0.2 0.2
          0.2 0.2 0.2 0.2 0.2 0.2 0.2 0.2 0.2 0.2 0.2 0.2
          0.681421 0.67231 0.656495 0.666463 0.628852 0.609062 0.533685 0.583598 0.649739 0.591902 0.414449 0.620684
          0.549649 0.295734 0.200662 0.342054 0.399435 0.201015 0.200002 0.20042 0.200425 0.200002 0.200002 0.200002