<?xml version="1.0"?>
<VTKFile type="UnstructuredGrid" version="0.1" byte_order="LittleEndian">
  <UnstructuredGrid>
    <Piece NumberOfCells="100" NumberOfPoints="121">
      <CellData Scalars="wetting potential" Vectors="wetting-velocity">
        <DataArray type="Float32" Name="wetting potential" NumberOfComponents="1" format="ascii">
          100180 100432 100632 100796 100880 100754 100606 100456 100304 100139 100207 100446
          100641 100817 100932 100759 100607 100456 100307 100168 100282 100470 100655 100852
          101057 101169 101360 101818 101027 100234 100355 100491 100666 100884 101234 101584
          101924 103025 101582 100212 100285 101550 102375 101940 101447 101591 101717 101383
          100799 100174 100189 102475 103889 102961 101574 101599 101645 101149 100564 100150
          100131 100474 101013 103772 104036 104015 103198 100809 100424 100127 100115 100353
          100612 104806 106111 106108 104814 100580 100341 100112 100110 100324 100528 100883
          102169 102161 100859 100501 100311 100107 100109 100320 100527 100809 101239 101227
          100783 100503 100307 100105
        </DataArray>
        <DataArray type="Float32" Name="wetting pressure" NumberOfComponents="1" format="ascii">
          193375 193628 193827 193991 194075 193949 193801 193651 193499 193334 183592 183831
          184026 184202 184317 184144 183992 183841 183692 183553 173857 174045 174230 174427
          174632 174744 174935 175393 174602 173809 164120 164256 164431 164649 164999 165349
          165689 166790 165347 163977 154240 155505 156330 155895 155402 155546 155672 155338
          154754 154129 144334 146620 148034 147106 145719 145744 145790 145294 144709 144295
          134466 134809 135348 138107 138371 138350 137533 135144 134759 134462 124640 124878
          125137 129331 130636 130633 129339 125105 124866 124637 114825 115039 115243 115598
          116884 116876 115574 115216 115026 114822 105014 105225 105432 105714 106144 106132
          105688 105408 105212 105010
        </DataArray>
        <DataArray type="Float32" Name="nonwetting pressure" NumberOfComponents="1" format="ascii">
          193875 194128 194327 194491 194575 194449 194301 194151 193999 193834 184092 184331
          184526 184702 184817 184644 184492 184341 184192 184054 174362 174545 174730 174927
          175132 179744 179936 180396 179603 174331 164656 164756 164931 165149 165499 165863
          166350 167594 166104 164521 154794 160506 161334 160896 155915 156046 156178 155943
          155309 154631 144895 147456 148879 147730 146253 146244 146294 145878 145238 144795
          134973 135396 135996 143115 143386 143365 142542 135732 135283 134963 125140 125399
          125723 130261 131562 131560 130268 125693 125384 125137 115325 115540 115780 116304
          117666 117658 116290 115754 115528 115322 105514 105725 105937 106242 106739 106727
          106216 105913 105712 105510
        </DataArray>
        <DataArray type="Float32" Name="nonwetting potential" NumberOfComponents="1" format="ascii">
          57810.4 58062.8 58262.5 58426.7 58510.2 58383.9 58236.3 58086 57933.9 57769.3 62350 62588.6
          62784 62959.4 63075.2 62901.9 62749.5 62599.1 62449.6 62311.4 66942.5 67125.1 67310.6 67507.1
          67712.6 72324.9 72516.1 72976.8 72183.5 66911.1 71558.8 71659.5 71834.3 72052.4 72402.1 72766.6
          73253.4 74497.2 73007.2 71423.9 76019.5 81731.9 82559.7 82121.3 77141.1 77271.8 77404 77168.6
          76534.6 75856.6 80442.9 83004.5 84427 83278.3 81800.8 81791.9 81842 81426.6 80786.1 80343.7
          84843.5 85267.4 85866.6 92986.2 93257.1 93236.1 92413 85602.8 85153.8 84833.4 89333.8 89592.1
          89916.6 94454.2 95755.3 95753.1 94461.7 89886.5 89577.4 89330.7 93841.5 94056.6 94295.9 94820.4
          96182.1 96174.5 94805.7 94269.8 94043.8 93837.8 98352.5 98563.6 98775.4 99080.3 99577.3 99565.6
          99054.9 98751.9 98550.3 98348.5
        </DataArray>
        <DataArray type="Float32" Name="capillary pressure" NumberOfComponents="1" format="ascii">
          500 500 500 500 500 500 500 500 500 500 500.005 500
          500 500 500 500 500 500 500 500.849 505.213 500 500 500
          500 5000 5000.46 5003.01 5000.68 521.138 535.867 500.008 500 500 500.263 514.546
          661.572 803.939 756.966 543.838 553.412 5001.49 5004.38 5000.93 512.946 500.001 506.216 605.131
          554.587 501.873 560.783 835.701 844.803 623.796 533.38 500.014 503.954 584.202 528.943 500.462
          506.457 587.271 647.425 5008.1 5014.88 5014.85 5009.3 587.497 523.794 500.258 500.272 520.336
          586.211 929.835 926.174 926.18 929.404 588.074 518.171 500.133 500 501.95 536.89 706.433
          781.622 782.469 715.247 537.748 501.98 500 500 500.003 504.54 527.638 595.047 595.139
          528.403 505.078 500.004 500
        </DataArray>
        <DataArray type="Float32" Name="wetting-velocity" NumberOfComponents="3" format="ascii">
          -1.53156e-05 -1.34846e-06 0 -1.13028e-05 -6.57976e-07 0 -9.09671e-06 -4.45046e-07 0 -6.19145e-06 -1.00759e-06 0
          1.0689e-06 -2.62259e-06 0 6.8483e-06 -2.67114e-07 0 7.4468e-06 -3.21367e-08 0 7.55935e-06 -2.41356e-08 0
          7.91763e-06 -1.55003e-07 0 1.10656e-05 -1.41887e-06 0 -1.63175e-05 -4.87169e-06 0 -1.08507e-05 -1.85436e-06 0
          -9.27152e-06 -1.14127e-06 0 -7.28022e-06 -2.75965e-06 0 1.43914e-06 -8.86038e-06 0 8.14353e-06 -2.71217e-07 0
          7.56829e-06 -3.96662e-08 0 7.49792e-06 -3.76897e-08 0 7.18114e-06 -1.62201e-07 0 1.16717e-05 -3.98334e-06 0
          -1.69988e-05 -5.72993e-06 0 -9.06364e-06 -2.28773e-06 0 -9.54936e-06 -1.25462e-06 0 -1.0051e-05 -3.39112e-06 0
          -5.13906e-06 -1.50446e-05 0 -1.03811e-09 -8.23982e-09 0 -1.61902e-09 -8.0766e-09 0 8.29505e-10 -1.36242e-08 0
          5.93115e-09 -7.27124e-09 0 7.43712e-06 -2.0154e-06 0 -1.05096e-05 -8.75229e-07 0 -6.60017e-06 -1.1019e-06 0
          -9.82279e-06 -5.75363e-07 0 -1.41627e-05 -1.6496e-06 0 -1.60704e-05 -1.7971e-05 0 -7.83462e-06 -3.04986e-07 0
          -5.7455e-07 6.31871e-06 0 7.84255e-08 1.0164e-06 0 4.30285e-07 3.37278e-06 0 4.45592e-06 1.67041e-06 0
          -4.67877e-06 2.78794e-06 0 -8.35735e-09 -1.05889e-08 0 -9.69935e-10 -1.70083e-08 0 3.53978e-09 -1.29954e-08 0
          -3.08877e-06 -1.28914e-05 0 -6.02757e-06 -6.78681e-07 0 1.04355e-06 9.55424e-06 0 5.87783e-06 2.81569e-06 0
          9.11381e-06 8.4173e-06 0 1.55646e-05 2.29493e-06 0 -2.77549e-06 2.88824e-06 0 -2.1263e-07 1.15165e-06 0
          -7.12002e-08 7.26583e-07 0 3.57825e-06 -1.04619e-08 0 3.13519e-06 -3.75119e-06 0 -1.50813e-06 -4.01429e-07 0
          4.67345e-06 3.21968e-06 0 9.14188e-06 4.76211e-06 0 1.05354e-05 9.02214e-06 0 1.45892e-05 2.29637e-06 0
          -7.8424e-06 2.17983e-06 0 -2.81217e-06 3.64467e-06 0 -6.76223e-07 2.87352e-06 0 -1.42624e-08 -8.01249e-09 0
          -5.96976e-10 -2.40586e-08 0 2.05605e-09 -2.36175e-08 0 1.37668e-08 -1.53147e-08 0 2.16799e-06 4.898e-06 0
          7.68747e-06 6.63514e-06 0 1.18585e-05 1.87822e-06 0 -1.03629e-05 9.78727e-07 0 -6.16596e-06 3.64173e-06 0
          -1.56485e-06 3.57277e-06 0 -8.43312e-08 2.90192e-07 0 -3.70635e-08 2.61417e-07 0 3.68869e-08 2.61477e-07 0
          8.4772e-08 2.87476e-07 0 1.42245e-06 3.25533e-06 0 5.96795e-06 3.84557e-06 0 1.01816e-05 1.02438e-06 0
          -1.07329e-05 3.10296e-07 0 -8.33441e-06 1.32606e-06 0 -3.29067e-06 1.44893e-06 0 -3.69982e-07 1.83902e-06 0
          -1.96716e-07 1.15909e-06 0 2.04817e-07 1.15127e-06 0 3.49291e-07 1.81001e-06 0 3.01168e-06 1.25474e-06 0
          7.8561e-06 1.39099e-06 0 1.03257e-05 3.65463e-07 0 -1.07164e-05 7.96402e-08 0 -1.02022e-05 1.7731e-07 0
          -9.7322e-06 2.30537e-08 0 -6.83606e-06 1.54882e-06 0 -1.98406e-06 8.97655e-07 0 2.12407e-06 8.89776e-07 0
          6.78288e-06 1.52252e-06 0 9.34179e-06 -6.54876e-08 0 9.68521e-06 2.02873e-07 0 1.02844e-05 9.65329e-08 0
        </DataArray>
        <DataArray type="Float32" Name="nonwetting-velocity" NumberOfComponents="3" format="ascii">
          0 -1.63362e-17 0 0 0 0 0 0 0 0 0 0
          0 0 0 0 0 0 0 0 0 0 -1.15405e-36 0
          0 -1.71867e-38 0 1.60642e-26 -8.76095e-11 0 -7.45218e-19 -2.01923e-08 0 0 -1.40243e-28 0
          0 0 0 0 0 0 0 -3.29207e-29 0 0 -7.83661e-29 0
          0 -2.18405e-18 0 1.9119e-38 -6.3383e-16 0 1.93794e-38 -6.88974e-18 0 3.20436e-12 -1.24766e-06 0
          -1.17243e-09 -5.43013e-06 0 -2.66103e-30 -7.02737e-17 0 0 -7.83614e-35 0 -7.29566e-31 -2.07003e-34 0
          -1.99084e-29 -2.67675e-12 0 -1.06991e-20 -9.61996e-12 0 -7.05978e-18 -6.64966e-09 0 5.08793e-18 -1.50409e-08 0
          1.40028e-17 -8.1182e-09 0 5.24789e-08 -6.44373e-06 0 -3.20859e-07 -1.42316e-05 0 -5.09873e-19 -1.44353e-16 0
          -6.48047e-36 -2.01613e-15 0 -9.97939e-14 -1.78853e-17 0 -1.67226e-08 -3.08825e-07 0 -6.32649e-06 -9.61996e-12 0
          -2.56417e-05 -3.91069e-07 0 1.21432e-05 -6.29413e-05 0 5.30925e-05 -7.36933e-05 0 2.19341e-05 -5.19749e-06 0
          -6.8653e-07 -2.20452e-05 0 -5.99987e-17 -1.26503e-08 0 -1.83362e-17 -1.84844e-08 0 2.50825e-17 -8.76526e-09 0
          4.41803e-18 -4.50811e-06 0 -4.91272e-10 -3.63208e-16 0 -4.44863e-11 -3.92823e-07 0 3.44959e-06 -9.82431e-05 0
          4.6876e-06 -7.66412e-05 0 1.23849e-06 -1.34751e-09 0 -3.35976e-05 -1.32836e-05 0 -6.89529e-05 -5.26374e-05 0
          -2.05895e-05 -4.31605e-05 0 2.72487e-05 -8.76527e-09 0 1.18721e-05 -4.19929e-06 0 2.16745e-09 -8.31618e-14 0
          1.46854e-10 -8.40292e-09 0 2.69457e-06 -6.41487e-05 0 2.84212e-06 -4.3802e-06 0 1.4774e-07 -1.65147e-11 0
          -2.21601e-06 -6.00081e-08 0 -6.89266e-06 -5.47319e-05 0 -4.67767e-06 -9.4653e-05 0 -4.70649e-15 -1.44768e-08 0
          -4.57037e-16 -2.437e-08 0 1.53377e-15 -2.45553e-08 0 7.57351e-15 -2.01644e-08 0 2.11567e-06 -5.96572e-05 0
          2.17706e-06 -2.11891e-06 0 6.13933e-08 -2.77159e-12 0 -3.14806e-08 -3.01868e-12 0 -1.54985e-06 -2.1083e-06 0
          -5.76677e-05 -5.98181e-05 0 -9.49155e-05 -1.49947e-05 0 -3.87011e-05 -2.13148e-05 0 3.85318e-05 -2.10765e-05 0
          9.51043e-05 -1.45224e-05 0 5.81697e-05 -3.98152e-05 0 1.55368e-06 -6.96026e-07 0 2.17091e-08 -3.36961e-13 0
          -2.50465e-11 -1.32445e-22 0 -1.55273e-07 -1.22107e-09 0 -6.98406e-06 -8.32419e-06 0 -3.12375e-05 -5.17145e-05 0
          -2.42448e-05 -9.65159e-05 0 2.53963e-05 -9.63006e-05 0 3.23331e-05 -5.73748e-05 0 7.25677e-06 -9.00176e-06 0
          1.56134e-07 -1.25219e-09 0 2.50955e-11 -6.90249e-23 0 -1.14004e-19 0 0 -3.08369e-10 -4.97064e-18 0
          -8.67499e-08 -1.6976e-08 0 -2.76961e-06 -3.67342e-05 0 -2.63385e-06 -0.000109472 0 2.79696e-06 -0.000109495 0
          2.84007e-06 -4.28725e-05 0 9.28403e-08 -1.18921e-08 0 4.10024e-10 -9.65895e-18 0 2.11724e-19 0 0
        </DataArray>
        <DataArray type="Float32" Name="wetting saturation" NumberOfComponents="1" format="ascii">
          1 1 1 1 1 1 1 1 1 1 0.999963 1
          1 1 1 1 1 1 1 0.994456 0.967352 1 1 1
          1 1 0.999812 0.998791 0.999725 0.880632 0.809891 0.999949 1 1 0.998308 0.916393
          0.429265 0.240137 0.286918 0.776193 0.736584 0.999401 0.998243 0.999627 0.924723 0.999991 0.963471 0.564203
          0.731209 0.988616 0.708333 0.21374 0.207022 0.514318 0.823112 0.999916 0.976575 0.626948 0.844353 0.997207
          0.961833 0.616377 0.459967 0.996762 0.994067 0.994077 0.996284 0.616426 0.86968 0.998441 0.998367 0.887193
          0.620504 0.155376 0.157233 0.15723 0.155593 0.614612 0.89839 0.999196 0.999999 0.98836 0.807682 0.3541
          0.261495 0.260648 0.341169 0.803856 0.988185 1 1 0.99998 0.973234 0.851006 0.593224 0.592953
          0.847333 0.970125 0.999976 1
        </DataArray>
        <DataArray type="Float32" Name="nonwetting saturation" NumberOfComponents="1" format="ascii">
          6.4615e-14 4.04121e-14 -1.20348e-13 -1.20792e-13 -1.56097e-13 -1.29008e-13 -1.25899e-13 -1.82077e-14 5.25135e-14 1.25192e-07 3.66339e-05 -1.14797e-13
          -1.82521e-13 -2.22711e-13 -1.37224e-13 -1.10356e-13 -8.57092e-14 1.22856e-11 4.49674e-12 0.00554405 0.0326484 8.09873e-09 -2.17826e-13 -1.0858e-13
          4.64847e-09 6.5483e-08 0.000187901 0.00120883 0.000275275 0.119368 0.190109 5.14062e-05 4.98689e-11 8.64394e-11 0.00169191 0.0836072
          0.570735 0.759863 0.713082 0.223807 0.263416 0.00059883 0.00175726 0.000373241 0.0752766 8.63785e-06 0.0365292 0.435797
          0.268791 0.0113839 0.291667 0.78626 0.792978 0.485682 0.176888 8.38677e-05 0.0234252 0.373052 0.155647 0.00279331
          0.0381673 0.383623 0.540033 0.00323792 0.00593343 0.00592304 0.00371555 0.383574 0.13032 0.00155853 0.00163322 0.112807
          0.379496 0.844624 0.842767 0.84277 0.844406 0.385388 0.10161 0.000804016 5.89848e-07 0.0116398 0.192318 0.6459
          0.738505 0.739352 0.658831 0.196143 0.011815 4.75858e-07 7.60503e-14 1.95321e-05 0.026766 0.148994 0.406776 0.407047
          0.152667 0.0298751 2.43769e-05 3.19744e-14
        </DataArray>
      </CellData>
      <Points>
        <DataArray type="Float32" Name="Coordinates" NumberOfComponents="3" format="ascii">
          0 0 0 2 0 0 0 1 0 2 1 0
          4 0 0 4 1 0 6 0 0 6 1 0
          8 0 0 8 1 0 10 0 0 10 1 0
          12 0 0 12 1 0 14 0 0 14 1 0
          16 0 0 16 1 0 18 0 0 18 1 0
          20 0 0 20 1 0 0 2 0 2 2 0
          4 2 0 6 2 0 8 2 0 10 2 0
          12 2 0 14 2 0 16 2 0 18 2 0
          20 2 0 0 3 0 2 3 0 4 3 0
          6 3 0 8 3 0 10 3 0 12 3 0
          14 3 0 16 3 0 18 3 0 20 3 0
          0 4 0 2 4 0 4 4 0 6 4 0
          8 4 0 10 4 0 12 4 0 14 4 0
          16 4 0 18 4 0 20 4 0 0 5 0
          2 5 0 4 5 0 6 5 0 8 5 0
          10 5 0 12 5 0 14 5 0 16 5 0
          18 5 0 20 5 0 0 6 0 2 6 0
          4 6 0 6 6 0 8 6 0 10 6 0
          12 6 0 14 6 0 16 6 0 18 6 0
          20 6 0 0 7 0 2 7 0 4 7 0
          6 7 0 8 7 0 10 7 0 12 7 0
          14 7 0 16 7 0 18 7 0 20 7 0
          0 8 0 2 8 0 4 8 0 6 8 0
          8 8 0 10 8 0 12 8 0 14 8 0
          16 8 0 18 8 0 20 8 0 0 9 0
          2 9 0 4 9 0 6 9 0 8 9 0
          10 9 0 12 9 0 14 9 0 16 9 0
          18 9 0 20 9 0 0 10 0 2 10 0
          4 10 0 6 10 0 8 10 0 10 10 0
          12 10 0 14 10 0 16 10 0 18 10 0
          20 10 0
        </DataArray>
      </Points>
      <Cells>
        <DataArray type="Int32" Name="connectivity" NumberOfComponents="1" format="ascii">
          0 1 3 2 1 4 5 3 4 6 7 5
          6 8 9 7 8 10 11 9 10 12 13 11
          12 14 15 13 14 16 17 15 16 18 19 17
          18 20 21 19 2 3 23 22 3 5 24 23
          5 7 25 24 7 9 26 25 9 11 27 26
          11 13 28 27 13 15 29 28 15 17 30 29
          17 19 31 30 19 21 32 31 22 23 34 33
          23 24 35 34 24 25 36 35 25 26 37 36
          26 27 38 37 27 28 39 38 28 29 40 39
          29 30 41 40 30 31 42 41 31 32 43 42
          33 34 45 44 34 35 46 45 35 36 47 46
          36 37 48 47 37 38 49 48 38 39 50 49
          39 40 51 50 40 41 52 51 41 42 53 52
          42 43 54 53 44 45 56 55 45 46 57 56
          46 47 58 57 47 48 59 58 48 49 60 59
          49 50 61 60 50 51 62 61 51 52 63 62
          52 53 64 63 53 54 65 64 55 56 67 66
          56 57 68 67 57 58 69 68 58 59 70 69
          59 60 71 70 60 61 72 71 61 62 73 72
          62 63 74 73 63 64 75 74 64 65 76 75
          66 67 78 77 67 68 79 78 68 69 80 79
          69 70 81 80 70 71 82 81 71 72 83 82
          72 73 84 83 73 74 85 84 74 75 86 85
          75 76 87 86 77 78 89 88 78 79 90 89
          79 80 91 90 80 81 92 91 81 82 93 92
          82 83 94 93 83 84 95 94 84 85 96 95
          85 86 97 96 86 87 98 97 88 89 100 99
          89 90 101 100 90 91 102 101 91 92 103 102
          92 93 104 103 93 94 105 104 94 95 106 105
          95 96 107 106 96 97 108 107 97 98 109 108
          99 100 111 110 100 101 112 111 101 102 113 112
          102 103 114 113 103 104 115 114 104 105 116 115
          105 106 117 116 106 107 118 117 107 108 119 118
          108 109 120 119
        </DataArray>
        <DataArray type="Int32" Name="offsets" NumberOfComponents="1" format="ascii">
          4 8 12 16 20 24 28 32 36 40 44 48
          52 56 60 64 68 72 76 80 84 88 92 96
          100 104 108 112 116 120 124 128 132 136 140 144
          148 152 156 160 164 168 172 176 180 184 188 192
          196 200 204 208 212 216 220 224 228 232 236 240
          244 248 252 256 260 264 268 272 276 280 284 288
          292 296 300 304 308 312 316 320 324 328 332 336
          340 344 348 352 356 360 364 368 372 376 380 384
          388 392 396 400
        </DataArray>
        <DataArray type="UInt8" Name="types" NumberOfComponents="1" format="ascii">
          9 9 9 9 9 9 9 9 9 9 9 9
          9 9 9 9 9 9 9 9 9 9 9 9
          9 9 9 9 9 9 9 9 9 9 9 9
          9 9 9 9 9 9 9 9 9 9 9 9
          9 9 9 9 9 9 9 9 9 9 9 9
          9 9 9 9 9 9 9 9 9 9 9 9
          9 9 9 9 9 9 9 9 9 9 9 9
          9 9 9 9 9 9 9 9 9 9 9 9
          9 9 9 9
        </DataArray>
      </Cells>
    </Piece>
  </UnstructuredGrid>
</VTKFile>
