<?xml version="1.0"?>
<VTKFile type="UnstructuredGrid" version="0.1" byte_order="LittleEndian">
  <UnstructuredGrid>
    <Piece NumberOfCells="1670" NumberOfPoints="911">
      <CellData Scalars="S_aq">
        <DataArray type="Float32" Name="S_aq" NumberOfComponents="1" format="ascii">
          1 0.0661055 0.0629256 0.122353 1 0.0760707 0.854272 1 0.997466 1 0.988669 1
          0.998908 1 0.959555 1 1 0.980382 0.990862 1 1 0.94712 1 1
          0.993477 1 0.662231 1 1 0.72274 1 1 0.0639958 0.754001 1 0.067926
          1 0.893125 1 1 0.997636 0.998855 0.998294 0.998928 1 0.998887 0.963757 1
          0.837646 1 0.0824022 1 1 0.0630927 1 0.177903 0.765775 1 0.0656939 1
          0.999145 1 1 0.0676958 0.729163 0.0780006 1 0.225409 1 1 1 0.124979
          0.882395 0.99984 1 0.995172 0.995744 1 1 0.174089 0.998863 0.930591 1 1
          0.962358 0.995532 1 1 0.689059 1 1 0.0628064 1 0.676614 1 1
          0.0659094 0.999616 0.101474 0.809216 1 0.0749708 1 1 1 0.926585 0.604375 1
          0.078991 0.347915 0.998829 0.0627167 0.0756919 0.874299 1 0.794812 1 0.0669355 1 1
          1 0.0776657 0.801499 0.0659203 0.0699559 0.399725 1 0.863665 1 0.0828085 0.998361 0.135682
          1 0.993652 0.993844 0.989683 0.992525 1 1 1 1 1 0.159026 1
          0.123325 0.887162 0.869118 1 1 1 1 0.0907324 1 1 0.0701066 0.841124
          1 0.0652938 0.771308 0.0690696 1 0.68144 0.459077 0.110866 0.962813 0.96657 0.852025 1
          0.960038 0.954664 1 0.280169 1 0.998142 1 0.999063 0.849818 1 0.0703568 0.0974354
          1 0.996761 0.148735 0.919095 0.998881 1 1 0.347358 1 1 1 1
          1 0.99914 1 0.998797 1 0.392994 0.999457 0.994374 0.995686 0.988934 0.945732 0.945325
          0.65047 0.109944 0.0698394 1 0.0747376 1 0.528747 0.178399 0.923121 0.997541 0.999971 1
          1 1 0.0649402 0.0690874 1 1 0.757081 0.688685 0.868299 1 0.0620847 1
          0.598858 0.722674 1 0.0631788 1 1 0.455534 1 0.999154 0.998742 1 0.0776153
          1 0.803229 0.281979 0.999998 0.999835 0.999986 1 1 1 1 1 1
          0.113431 1 1 1 1 1 1 1 0.299653 0.396903 1 0.853255
          0.835491 1 1 1 1 1 1 1 1 0.6638 1 1
          1 1 1 0.513368 1 1 1 1 1 1 1 1
          0.0959219 1 1 1 1 1 1 1 1 1 0.817894 1
          0.877728 1 0.153556 1 1 1 1 1 1 0.987303 1 1
          1 1 1 1 1 1 1 1 1 1 1 0.56284
          1 1 1 1 1 1 1 0.758313 1 1 1 1
          1 1 0.733566 1 1 1 1 1 1 1 1 1
          1 1 1 0.653694 0.999625 1 1 1 1 1 1 1
          1 1 1 1 1 1 1 1 1 1 1 1
          1 1 0.52963 1 1 1 1 1 1 1 1 1
          1 1 1 0.84371 0.104641 1 1 0.159936 1 1 1 1
          1 1 1 1 0.998269 1 1 1 1 1 1 0.99883
          1 0.999209 1 1 1 1 0.998447 1 1 1 1 1
          0.999638 1 0.313267 1 1 1 1 1 1 1 1 1
          0.898038 1 1 1 1 1 1 1 0.999869 1 1 0.700725
          1 1 1 1 1 1 1 0.213925 1 1 0.999134 1
          1 1 1 1 1 1 1 1 1 1 0.856416 1
          1 1 1 1 1 1 0.99926 1 1 1 1 1
          1 1 1 1 1 1 1 1 1 1 1 0.698866
          0.998334 1 1 0.999276 1 1 1 1 1 1 1 1
          1 1 1 1 1 1 1 1 1 0.314249 0.999483 1
          1 1 0.994224 1 1 1 0.755163 0.874664 1 0.643158 1 1
          0.988009 1 1 1 1 1 0.93246 0.542367 1 1 1 1
          1 0.999617 1 1 1 1 1 1 0.35101 1 1 0.999703
          0.877683 1 1 0.16146 1 1 1 1 1 1 1 1
          1 1 1 0.727752 1 1 1 0.94046 1 1 1 1
          1 1 1 1 1 1 1 1 1 1 0.918029 0.994808
          1 0.73192 1 1 1 1 1 1 1 1 1 1
          1 1 1 1 1 1 0.869823 1 1 1 1 1
          0.924277 1 1 1 1 1 1 1 1 1 1 1
          1 1 1 1 1 1 1 1 1 1 1 1
          1 1 1 1 1 1 1 1 1 1 1 1
          1 1 1 1 1 0.708322 1 1 1 1 1 1
          1 1 1 1 1 1 1 1 1 1 1 1
          1 1 0.843293 1 1 1 1 1 1 1 1 1
          1 1 1 1 1 1 1 1 1 1 1 1
          0.963566 0.99955 1 0.763764 1 1 1 1 1 1 0.26864 0.769749
          0.82197 1 1 1 1 1 1 1 1 1 1 1
          1 1 1 1 1 1 1 1 0.387649 1 1 1
          1 1 1 1 1 0.993558 1 1 1 1 1 1
          0.987563 1 1 1 1 1 1 1 1 1 1 1
          1 1 1 1 1 0.99895 1 0.98756 1 1 1 1
          0.976013 1 0.838928 1 1 0.127158 1 1 1 1 1 1
          1 1 1 0.848598 1 1 1 1 1 1 1 1
          1 1 1 0.977226 1 1 1 1 1 1 1 1
          1 1 1 1 1 1 1 1 1 0.092555 1 1
          1 0.417529 0.143871 1 1 1 1 0.998814 1 1 1 1
          1 1 1 1 1 1 1 1 1 0.564626 1 1
          1 1 1 0.694759 1 1 1 1 1 1 1 1
          0.705062 1 1 1 0.936026 1 1 1 1 1 1 0.20797
          1 1 1 1 1 1 1 1 0.751487 1 0.998894 1
          1 0.165598 1 1 1 1 1 1 1 0.244632 1 1
          1 1 1 1 0.631631 1 0.480638 1 1 1 1 1
          1 1 1 1 0.501747 1 1 1 1 1 1 1
          1 0.693713 1 1 1 1 1 1 1 1 1 1
          1 1 0.601259 0.996232 1 0.247663 1 1 0.974561 1 1 1
          1 1 1 1 0.996662 1 1 1 1 1 1 1
          0.915477 1 0.830285 1 1 1 1 0.99341 0.665254 0.751469 0.982532 1
          0.856313 1 0.980538 1 1 1 1 1 0.967117 1 1 1
          1 1 0.0961824 1 1 0.142692 1 1 1 1 1 1
          1 1 0.803499 1 1 0.999193 0.995903 1 0.949806 1 0.351951 1
          1 1 1 1 1 1 1 1 1 1 1 1
          1 1 1 1 1 0.132231 0.825136 0.936946 1 1 1 1
          1 0.470581 1 0.864604 0.936807 1 1 1 1 1 1 1
          1 1 1 1 1 0.932534 1 1 1 1 0.938532 0.848969
          1 1 0.924299 1 1 1 1 1 1 1 1 1
          1 1 1 1 1 1 1 1 1 1 1 1
          1 0.91384 0.599843 1 1 1 1 1 1 1 1 1
          1 1 1 1 1 1 1 1 1 1 1 1
          1 1 1 1 1 1 0.704098 1 1 1 1 1
          1 1 1 1 1 0.77346 1 1 1 1 1 1
          1 1 1 0.921237 1 1 1 1 1 1 0.99594 1
          1 0.411016 1 1 1 1 1 1 1 1 1 1
          1 1 1 1 1 1 1 0.998351 1 1 1 1
          1 1 1 1 1 1 1 1 1 1 0.780204 0.779608
          1 1 1 1 1 1 1 1 1 1 1 1
          1 1 1 1 1 1 1 1 1 1 1 1
          1 1 1 1 1 1 0.998136 1 1 1 1 1
          1 1 1 1 1 1 1 1 1 1 1 1
          1 0.814143 1 1 1 1 1 1 1 1 1 1
          1 0.99987 1 1 1 1 1 1 1 0.988955 1 1
          1 1 1 1 1 1 1 1 1 1 1 1
          1 0.638795 1 0.628822 0.99888 0.995877 1 0.582257 0.99746 1 1 1
          1 1 1 1 1 1 1 1 1 0.299323 0.662124 0.998857
          0.836556 1 0.990577 1 1 1 1 1 0.998222 1 1 1
          1 1 1 1 1 0.846759 1 1 1 1 1 1
          1 1 1 1 1 0.99898 1 1 1 1 1 1
          1 1 1 1 1 1 1 1 1 1 1 1
          1 0.873685 1 1 1 1 1 1 1 1 1 1
          1 1 1 1 1 0.933719 1 1 1 1 0.725628 0.99736
          1 0.513849 1 0.355745 1 1 1 1 1 1 1 1
          0.969165 1 1 1 1 1 1 1 1 0.537516 0.900375 1
          1 0.954865 0.461341 1 0.882942 1 1 1 1 1 1 0.808934
          1 1 1 1 1 0.99805 0.725268 0.999506 1 1 1 0.929041
          0.208677 1 1 1 1 1 1 1 1 1 1 1
          1 1 1 1 1 1 1 1 1 1 1 1
          1 1 1 1 1 1 1 1 1 1 1 0.160527
          0.0960402 1 1 0.236565 1 0.581669 1 1 1 1 1 1
          1 1 1 1 1 1 1 1 1 1 1 1
          1 0.141046 1 1 1 0.240041 1 1 1 1 1 1
          1 1 1 1 1 1 1 0.870896 1 1 1 1
          1 0.109736 1 0.174609 1 1 1 1 1 1 1 0.293314
          1 0.998424 1 1 1 1 1 1 1 1 1 1
          1 1 1 1 1 1 1 1 1 1 1 1
          0.129141 1 1 1 1 1 1 1 0.178211 1 0.360425 1
          1 1 1 1 1 1 0.99894 1 1 1 0.953031 1
          1 0.0940017 1 0.171301 1 1 1 1 1 0.978374 0.84144 1
          1 0.158042 1 0.433098 1 0.999106 1 1 1 1 1 1
          1 1 1 1 1 1 1 1 0.99887 1 1 1
          1 1 1 1 0.791573 1 1 1 0.93167 0.186901 1 1
          1 0.295999 1 1 1 1 1 1 1 1 1 1
          1 1 1 1 1 1 1 1 1 0.818479 1 0.993392
          1 1 1 1 1 1 1 1 1 1 1 1
          1 1 1 1 1 1 1 1 1 1 1 1
          1 0.987167 0.789555 1 1 0.994211 1 1 1 1 1 1
          0.876589 1 0.222079 1 1 1 0.104206 1 0.127277 1 1 1
          1 1 1 1 1 1 1 1 0.995225 1 1 1
          1 1
        </DataArray>
        <DataArray type="Float32" Name="p_aq" NumberOfComponents="1" format="ascii">
          96414.9 100209 100624 99743.7 91012.9 100088 91300.9 91344.6 90974 96337.8 96367.3 95024.3
          97466.4 93611.9 96217.2 95204.4 93173.8 97912.9 96589.3 92631.8 97070.2 94006.4 93093.9 97289.8
          93781.7 94028.6 98429.3 92653.5 95662.7 95112.6 91009.8 95085.6 100303 94648.2 94623.1 99972.9
          91244.8 96185.2 95585.5 93812.1 97966.6 93113.8 96417.3 94622.9 96742.5 94310.7 95772.9 95238.7
          94522.9 94490.6 99357.6 91740.6 90984.3 100548 97911.3 97964.6 93135.3 93157 100195 90973.3
          95937 91283.3 95629.2 100011 95668.1 99075.5 93594.1 98936.8 92146.1 92245.3 95576.1 98823.5
          95664.1 94545 93826.4 94927.1 94455.8 96595.3 92189.6 98149.3 98117.4 92948.2 93609.3 97048.9
          95191.9 94021.6 94419 94684 96104.5 90926.5 96074.8 100496 94955.1 98308.7 92782.6 91248.9
          100234 98306.2 98366 92742.9 92766.2 99871.2 91234.5 92122.5 97503 93572.6 97531.1 92982.8
          98985.2 98866.1 92206.8 100679 98996.9 98822.1 90935.7 92216.2 92254.5 100207 90909.1 91815.5
          95806.8 99305.5 95870.6 100270 99402.8 99162.8 91265.6 91889 91924.9 99827.7 91235.6 98358.5
          92781.1 98299.5 92771.1 97245.8 97417.7 93647 96113.4 92309.8 95167.6 92102.4 98787.2 94722.4
          98992.5 95240.2 94765.8 91197.6 91689.7 93843.8 91706.3 99385.2 93656.2 91209.8 99954.2 93852.4
          97429.6 100242 93651 99605.3 97244.8 97279.7 97473.9 98723.1 97140 96661 97161.2 93175.1
          97503.1 97889.7 95883.6 98323.2 94126.5 96937.3 94092.6 96963.3 97415.4 91805.5 99485.6 98462.1
          92664.6 98412.9 99282.6 92646.6 91791.7 92512.4 92719.6 98323.9 96042.8 96506.9 94546.8 94064.9
          97322.5 93752.1 97510.9 93566.9 93176.2 97993 97905.1 93170.9 95391.5 95868.4 95003.3 94529
          97964.7 98636.1 99502.4 91818 99093.6 92146.5 98940.1 99269.7 92119.5 91793 94997.7 94563.9
          91145.6 91639.7 100257 99647.7 96558.3 96695 96727.3 96594.5 96622.4 90875.9 100627 96976.2
          97019.3 94104.6 94109.3 100378 90885.4 94509.3 98514.1 92575.4 95450.9 95232.3 91952.8 99199.3
          96389.5 96439.8 98179.9 95908.8 95012.6 95407.8 96221.2 96244.1 93399 93640.9 95795.5 98283.4
          100069 96059 98114.3 97160.5 95800.1 97603.8 95690.7 92024.5 99682.9 99759 94573.7 96221.2
          96166.2 94991.4 95129.8 96183.4 92781.6 92560.2 95178.4 94984 95639.4 98758.4 95334.7 93353.5
          93637.8 95508.8 93206 99400.3 95838.6 93337.2 95349.4 95255.1 93623.3 94617.5 91261 96853.8
          100094 93513.2 98725 96238.5 96252.7 94246.4 92549.1 95839.4 96370.4 96152.7 95156 93893.5
          94319.4 96257.2 99768.4 98563.6 95627.7 95278.6 95529.7 97905.9 95200.5 98874.7 97683.4 97369.9
          92840.4 95872.4 91626.2 92572.8 94421.9 92369 95842.6 95741 95066.4 93073.3 97183.8 99519.4
          95138.8 91447.9 95850.8 95644.4 94508.2 94158.1 93943.7 98201.2 95905.9 96760.7 93288.4 94041.7
          96903.6 94715.2 98700.2 98504.1 96344.6 98379 95300.7 95670.8 94121.1 91089 97296.7 95026.1
          94265.3 95435.4 96129.9 99005.3 97658.2 97291.6 95261.5 93549.5 95513.8 93648.8 95465.2 95350.2
          95520.3 96008.8 94494.9 91913 96191 98567.9 91958.5 94506.9 95937.9 95570.5 93455.4 97012.3
          95143.8 95181.2 99448.2 96641.2 96812.8 96665.4 91555.9 91907.2 92981.2 94668.4 98369.7 98234.7
          92278.8 93845.5 94624.4 96912.5 100099 96697.5 97781.4 99811.9 95386.7 97632 93356.5 98342.8
          94833.8 96652.8 97393 93857.2 98502.8 96921.9 96028.4 97819.6 95836.3 93131.2 97174.4 98170.6
          94811.6 92695.2 97615.9 92215.1 97207.9 94272.5 95330.3 95207.4 96153.1 95377.5 93895.7 92424
          96703 94891.4 99684.8 97416.3 92250.9 93170 94153.6 96064.5 95284.5 92229.3 95342.5 96335.8
          99183.4 92925 98471.9 95528.9 97421.9 92751.6 95480 93946.2 92240.6 98001.3 95195.4 98220.4
          94960.4 94025 96113.7 94213.3 95312.1 92635 93701.1 99939.1 93948.3 96496.9 98769 94376.3
          95710.3 96576.4 93684.6 93205.7 97454.8 95459.5 96015 94844.5 95130.2 91342.5 99180.3 91286.8
          91843.7 95993.4 95025 91267.5 91831.6 96699.2 98127.2 96967.2 94705.8 92936.5 97920.4 93112.1
          95299.4 94048.3 95133.2 93984.6 96912.6 90978.3 91303.9 91839.3 92727.7 95382 92869.3 97593.6
          94519 93653.1 95368.4 93844.6 96602.3 93091.7 94524.2 94920.9 97092.6 93363.9 94229 94539.7
          94322.1 93379.7 93181.8 93506.6 96663.9 92193.3 94499.6 96660.6 94516.6 99730.2 97655 94554.5
          94446.1 92047.4 99008.1 92890.7 95122.8 94960.5 97662.7 99258 95404.2 99310.9 94977.4 94658.4
          98835.8 95556.9 94477 94583.9 94913.7 92751.5 98867.6 99195.8 95017.1 92614.3 96321.7 97712.7
          94302.7 97185 94888.9 96043.8 94909.5 94038.6 94125.4 95337.8 99731.3 94547 96295.5 97177.2
          93293.9 97166.7 94105.8 100063 95184.8 94122.9 91527.4 91961.5 94646.1 91202.8 97565.1 91066.5
          94839.2 93783.9 96420.1 99227.1 94783.4 94418.7 97319.4 92353.1 97999.5 95374.2 96353.9 96968.2
          93604.7 94989.2 95568.1 98460.5 98209.4 91356.4 91519 94872 98968.2 91191.2 91306.9 98940.4
          93221.1 99297 95650.9 96058.6 95681.2 95158.1 96653.6 91718.7 96539.4 98088.1 93949.2 94898.5
          95486.2 92092.3 92152.4 92195 98314.8 97807.6 92498.4 97898 90873.4 97490 96836.9 94194.4
          99025.8 95275.9 92658 92729.8 94841.1 98020.5 97477.1 94848.2 95496.6 95437.2 95788.2 93638.5
          92662.3 95275.7 95286.3 98097.9 97720 97181.4 94522 96705.9 96395.1 94494.9 92827.7 95999.7
          96731.2 95355.2 95313.8 96544 95335 95229.7 95329.8 95286.3 97942.4 97810.3 95416.7 96473.2
          94942.3 95343 94647.9 95294.7 94821.2 98707.7 93558.7 90982.2 94042.3 91341.6 93126 94530
          92184.1 95996.2 94732.6 91299.6 97880.1 95967 93909.1 94938.5 95669.8 95176.5 95086.3 94843.4
          95528.1 96171.6 96309.6 95616.9 94835.3 98272.8 91787.6 95521.6 96570.8 95668.8 95429.5 98161.4
          95308.1 95379.3 95119.9 92645.5 95162.6 94908.7 95892.4 94958 96356.4 95964.8 95784.9 97306.9
          99076.2 98690.7 95206.6 98113.2 95186.2 95033.9 96036.4 96140.1 96807.1 95094.9 99879 98644.4
          96230.8 95789.5 95092.2 94723.5 96536.9 97692.4 97825.2 97249.9 97167.9 97757.2 98318.2 98671.1
          94118.4 95316.6 94915.1 92205.3 95355.8 93948.9 92403.1 96117.5 99712.7 94480.1 97603.3 97393
          94261.5 97331 92597.2 93089.6 96512 94008 96006.4 97916.6 94174.2 94091.4 94883 95217
          95409.5 95918.6 94356.8 95237.4 95481.4 93805 94583.3 95462.6 93483 97192.2 93055.8 93144.2
          95610.9 95768.9 96580.5 93904 94385.4 96714.4 95478.9 94724 91814.8 92156.7 94427 97066.4
          93364.2 95204 96930.5 95501.2 93778.9 100052 95042.9 92445 95543 93630 94594.9 94329
          96638.4 97106 97714.9 99287.2 97355.1 92221 96596.5 96750.1 91073.2 95791.2 96586.7 96140
          92817.6 94488.2 97956.6 92401.8 94756.1 94544.3 94147.9 96747.7 95802.9 95261.6 95258.7 96104
          95579.6 97514.3 95211.8 94997.9 93978.5 91972.2 93749.9 92106.8 96124.6 100127 98086.6 95543.5
          97092.2 99530.2 99801.3 96235.7 96343.1 98574.5 98040.8 98840.4 96965.1 94217.6 96155 93963.7
          92803.4 93219.2 94790.3 96109.2 93687.2 96608.1 94104.7 95839.6 91423.3 99218.7 91513.7 93302.6
          95905.9 93747.9 95010.5 99261.2 96185.8 93039.2 92916.4 93619.4 92288.9 96854.8 94509.4 96219.6
          98205 96826.4 91179.9 93483.8 98869.3 93868.7 95876.1 94143 97363.2 93530.5 97629.1 99827.7
          94457.8 91892.2 95581 98610.7 96863.2 97256.7 93066.5 95917.9 99396.7 95766.9 97164.3 92232.2
          92731.8 99869.3 94380.9 94956 98082.7 92191.7 94474.9 95372.2 95865.6 99844.9 94418.6 91857.7
          96204.5 95960 97316.1 92614 99239.7 95244.1 99538.5 94573.5 97120.4 94799.2 98513.1 98339.4
          93302.3 94261.3 92676.9 96859.8 99446.3 92475.4 92287.6 92249.7 96685.4 96541.4 91080.9 96878.1
          94324.4 97591.3 98388.8 96186.2 95610 95265.7 91394 96527.8 97698.1 94465.9 94013.6 92747
          93553.3 95256.1 99373.9 98140.8 93491.5 99771.2 91759 91716 99052 93729.6 93740 92783
          91550.6 94770 92602.7 93576.3 98183.7 96970.8 91870.8 95346.2 98346.2 93560.5 92670.5 98769.4
          91571.2 94968.5 99145.1 96436.4 93795.8 95318.3 91381.8 98981.1 99088.7 97644.3 98630.6 97743.1
          92704.3 93075.2 98578.6 95529.1 94319.9 94085.5 90937.5 97919.4 98944.8 94854.7 92182.4 94512.6
          92063.8 93810.8 100163 93381.9 96670.5 100084 95485.2 91192.3 94068.4 94399.2 97416 93310.5
          97110 91183.8 94912.9 95747.1 93396 98725.4 98807.5 92775.5 99096.5 92614 99545 98288.8
          91707.2 92969.9 91247.8 93140.6 97851.6 93158.9 94318 96579.6 96759 93261.9 91826.9 96534.5
          96336.5 96697 95330.5 98255.5 97685.4 99909 95321.4 94735.1 94169.9 97620.2 97231.4 91973.8
          92894.4 99481.4 96716.4 93852.7 93911.9 96626.4 93031.5 93140.4 97319 97247.7 94609 94570.1
          97477 97244.6 95166.5 92721.5 90965.6 94381.1 92893.6 93778.4 95170 93344.6 94787 98835.8
          91352.8 91300 96022 94548.8 94615.2 95647.1 95473.1 94572.3 98079.9 98326.2 95524.3 95696.7
          95284.6 92216.1 95580.4 97486 97210.8 94727.5 97795.4 91590.3 94427 97426.1 95258 95332.8
          97131.2 95976.4 99731.9 94068.7 90951.6 97469.6 92273.9 94477.9 94528.1 96541.8 98297.7 94815.7
          94569.4 94773.2 95540.9 97091.6 96295.3 94613.7 91270.5 92437 95310.1 95665 95105.6 93110
          95201.7 92084.2 93210.8 93516.4 98159.4 94981.9 99302.1 98367 96438 98587.4 94985.8 94587.7
          95206.4 97176.2 93048.8 91510.5 95425.8 99536.9 94839.5 95012 96106.4 96499.8 96845.7 92701.3
          94819.7 94188.8 97467.9 96643.9 93917.9 95933.9 92257.6 92452.8 94572.4 92586.1 95191.8 95328
          96758.3 99929.6 93554.2 95323.9 96632.2 95257.4 94847 91949.5 93209 93547.3 95240.8 97262.8
          95089.7 97069.9 95190.3 95140.9 95074 95973.7 94388.4 99057 94534.7 92412.8 99046.4 95919.9
          94443 94866.2 97498.6 93887.9 95399 95368.8 91580.5 94324.9 94093.8 94149.7 99382.4 98957.9
          98006.2 95962.2 92573.1 92691.7 98727.4 97079.9 95603 93983.7 90942.8 94071.9 93198.7 91220.3
          95197.8 93249 97444.6 92675.1 96027.3 94116.2 93520.2 97094.4 92429.1 94041 94667.8 93126.8
          94818.5 97176.9 93095.5 92741.8 96179.8 97666.4 92663.3 98760.4 93795.8 96535.8 95294.2 95790.6
          94805.3 95193.2 97014.5 98504.8 94105.8 96093.9 91348.3 93593.9 98733.7 97802.2 96777.4 94940.2
          95230.1 98592.6 95059.4 94553.6 91822.6 97863.7 92543.4 94845.6 93548.3 98242.2 95333.2 97045.6
          98016.8 92226.3 95276.9 92711.1 96008.6 96809 94211.7 96137.6 95187.3 98150.2 97296.8 91113.8
          96474 93852.9 92239 96276.5 95052.9 96594.3 93685.4 97742.9 93546.7 95306.3 94770.3 95964.8
          95696 99640.7 91837.9 99723.6 99151.1 94435.7 95519.8 99697.4 99142.7 94134.4 92782.6 93895
          95996.1 97875.4 93076.3 97853.1 95244.8 96644 95353.4 96735 93889.2 100045 99702.9 99157.1
          98070.8 95590.8 97916 93344.5 96043.3 97053.7 95533.1 96616.9 93760.3 97838.7 96208.5 96038.7
          93857.8 97571.7 96484.8 96145.5 96518.1 97363.6 97732.7 97398 94195.8 98803.9 96473.4 94213.4
          96106.2 91296.5 93206.7 96261.4 96533.9 98878.2 91992.5 97999.5 95722.8 96041.5 93213 91750.2
          95581.7 91698.6 95914.6 96242.6 92133.9 95424.1 95855.1 96174.1 95528.4 98230.5 92158.8 91812.8
          95860.6 98205.8 94415.2 93272.5 95957.7 93647.8 95870 94902 95646.2 96929.3 96834.4 95617.2
          91320.7 96408.7 94698.8 93644.5 97192.5 93172.5 96895.8 90996.9 95352 96820 99399.6 98950.7
          96280.7 99816.9 93343.8 99942.4 96099.1 96439.8 93800.2 91804.3 95592.4 96574.6 93664.3 98034.8
          92264.3 95414.4 94635.1 94041.9 97367.9 95795.7 94892.6 92524.6 92765.4 99603.1 99490.3 95599.1
          98957.5 91242.4 99836.3 92053.7 97517.6 91730.4 95241.1 94839 95048.1 95582.3 94346.6 99206.9
          94465.5 92905.7 96817.8 95686.4 94941.7 98813.8 98702.2 98718.8 92672.4 93156.6 97885 92395.8
          100164 93473.4 94140 96547.4 91996.1 95239.2 98309 98228.2 95738.8 92910.6 93514.4 96068.2
          95362.6 95438.6 95204.7 97135.4 98243.2 95260.1 95215.6 92842.5 93212.9 93811.8 96424 94085.7
          94365.2 96504.2 98085.9 94983.3 94256.9 95111 95143.4 94435.7 93021.3 97997.9 91296.9 99739.1
          100076 90966.6 91009.4 100028 91342.9 99674.5 92948.6 98074.1 94046.2 96977.5 96042.7 94976.2
          95830.4 95187.5 94472.4 96550.6 97053.8 98395.8 92624.8 97269.4 97932 93087.2 94011.8 97002.9
          90988.9 100041 95923.8 95083.1 91221.9 99805.8 94619.1 96388.8 93792.8 97223.6 94979.5 96040
          96358.6 94660.6 93343.4 94384.1 96634.7 97678.4 91714.5 99311.5 94483.4 96527.2 93103.9 97908.6
          90946.6 100079 90971.6 100059 93155 97852.5 95199.4 95820.2 95378.2 91263.6 95624.5 99761.6
          93465.3 98915.8 93584.4 97428.7 95384 95564.4 92257.9 98765.9 95936.3 95082.7 98432.6 93669.3
          93817.3 97351.1 97202.2 92167.6 98103.7 92177.2 98841.6 93206.3 93585.4 97815.1 97433.6 90906.8
          100122 94929.5 96072.7 96079.1 94936 92714.8 98301.1 91209 99817.6 91238 99783.2 92762.9
          98247.5 97490.4 92104 98913.4 92107.3 92896.6 98852.6 92973.2 98041.3 97971.2 98821.3 92205.4
          90893.4 100143 90927.5 100105 92253 98757.5 95142.2 91803.4 95798.1 99220.9 99153.3 91877.5
          91221.6 99812.7 91259 99764.7 91921.7 99092.3 92718.5 98288.6 92768.6 98248.4 94471 94942.8
          96568.2 96093.9 95858.6 96300.7 95155 94711.7 92090.9 92327.4 98934.3 98696.6 93577 93725.2
          97173.5 91673.1 93837.2 91180.2 99348.7 97355.3 93652.8 91673.7 99349.6 99843.3 97425 97236.2
          91182.8 99843.5 94231.5 93526.5 93544.2 97505.8 97477 92587 94027.3 95166.4 97023.8 95869.1
          94408.7 95281 95716.5 95739.1 95303.4 93058.1 92615.7 91764.7 98401.6 99259.7 91794.9 99224
          92658.1 98355.5 94940.4 96492.1 96027 92742.2 92510.9 98280 98511.1 96538.4 94479.3 96989.3
          94028.2 93126.1 97890.7 93161.1 97856.4 93918.2 94128.8 96891.5 97102.7 93992.9 93721.8 92101.3
          91774.6 98926.5 99255.6 91810.1 92140.2 99209.1 98875.5 94443 94271.7 96554.4 96687.1 91621.7
          99403.1 91127.5 99898 94030.8 96974.4 90861.5 100168 90859.2 100170 94107.8 96897.7 96522.1
          94492.2 94988.5 96031.2 94553 96466.8 94522 96379.3 91941.1 99082.7 93560.1 92532.7 98488.1
          95720.6 95298.9
        </DataArray>
        <DataArray type="Float32" Name="rho_aq" NumberOfComponents="1" format="ascii">
          1000 1000 1000 1000 1000 1000 1000 1000 1000 1000 1000 1000
          1000 1000 1000 1000 1000 1000 1000 1000 1000 1000 1000 1000
          1000 1000 1000 1000 1000 1000 1000 1000 1000 1000 1000 1000
          1000 1000 1000 1000 1000 1000 1000 1000 1000 1000 1000 1000
          1000 1000 1000 1000 1000 1000 1000 1000 1000 1000 1000 1000
          1000 1000 1000 1000 1000 1000 1000 1000 1000 1000 1000 1000
          1000 1000 1000 1000 1000 1000 1000 1000 1000 1000 1000 1000
          1000 1000 1000 1000 1000 1000 1000 1000 1000 1000 1000 1000
          1000 1000 1000 1000 1000 1000 1000 1000 1000 1000 1000 1000
          1000 1000 1000 1000 1000 1000 1000 1000 1000 1000 1000 1000
          1000 1000 1000 1000 1000 1000 1000 1000 1000 1000 1000 1000
          1000 1000 1000 1000 1000 1000 1000 1000 1000 1000 1000 1000
          1000 1000 1000 1000 1000 1000 1000 1000 1000 1000 1000 1000
          1000 1000 1000 1000 1000 1000 1000 1000 1000 1000 1000 1000
          1000 1000 1000 1000 1000 1000 1000 1000 1000 1000 1000 1000
          1000 1000 1000 1000 1000 1000 1000 1000 1000 1000 1000 1000
          1000 1000 1000 1000 1000 1000 1000 1000 1000 1000 1000 1000
          1000 1000 1000 1000 1000 1000 1000 1000 1000 1000 1000 1000
          1000 1000 1000 1000 1000 1000 1000 1000 1000 1000 1000 1000
          1000 1000 1000 1000 1000 1000 1000 1000 1000 1000 1000 1000
          1000 1000 1000 1000 1000 1000 1000 1000 1000 1000 1000 1000
          1000 1000 1000 1000 1000 1000 1000 1000 1000 1000 1000 1000
          1000 1000 1000 1000 1000 1000 1000 1000 1000 1000 1000 1000
          1000 1000 1000 1000 1000 1000 1000 1000 1000 1000 1000 1000
          1000 1000 1000 1000 1000 1000 1000 1000 1000 1000 1000 1000
          1000 1000 1000 1000 1000 1000 1000 1000 1000 1000 1000 1000
          1000 1000 1000 1000 1000 1000 1000 1000 1000 1000 1000 1000
          1000 1000 1000 1000 1000 1000 1000 1000 1000 1000 1000 1000
          1000 1000 1000 1000 1000 1000 1000 1000 1000 1000 1000 1000
          1000 1000 1000 1000 1000 1000 1000 1000 1000 1000 1000 1000
          1000 1000 1000 1000 1000 1000 1000 1000 1000 1000 1000 1000
          1000 1000 1000 1000 1000 1000 1000 1000 1000 1000 1000 1000
          1000 1000 1000 1000 1000 1000 1000 1000 1000 1000 1000 1000
          1000 1000 1000 1000 1000 1000 1000 1000 1000 1000 1000 1000
          1000 1000 1000 1000 1000 1000 1000 1000 1000 1000 1000 1000
          1000 1000 1000 1000 1000 1000 1000 1000 1000 1000 1000 1000
          1000 1000 1000 1000 1000 1000 1000 1000 1000 1000 1000 1000
          1000 1000 1000 1000 1000 1000 1000 1000 1000 1000 1000 1000
          1000 1000 1000 1000 1000 1000 1000 1000 1000 1000 1000 1000
          1000 1000 1000 1000 1000 1000 1000 1000 1000 1000 1000 1000
          1000 1000 1000 1000 1000 1000 1000 1000 1000 1000 1000 1000
          1000 1000 1000 1000 1000 1000 1000 1000 1000 1000 1000 1000
          1000 1000 1000 1000 1000 1000 1000 1000 1000 1000 1000 1000
          1000 1000 1000 1000 1000 1000 1000 1000 1000 1000 1000 1000
          1000 1000 1000 1000 1000 1000 1000 1000 1000 1000 1000 1000
          1000 1000 1000 1000 1000 1000 1000 1000 1000 1000 1000 1000
          1000 1000 1000 1000 1000 1000 1000 1000 1000 1000 1000 1000
          1000 1000 1000 1000 1000 1000 1000 1000 1000 1000 1000 1000
          1000 1000 1000 1000 1000 1000 1000 1000 1000 1000 1000 1000
          1000 1000 1000 1000 1000 1000 1000 1000 1000 1000 1000 1000
          1000 1000 1000 1000 1000 1000 1000 1000 1000 1000 1000 1000
          1000 1000 1000 1000 1000 1000 1000 1000 1000 1000 1000 1000
          1000 1000 1000 1000 1000 1000 1000 1000 1000 1000 1000 1000
          1000 1000 1000 1000 1000 1000 1000 1000 1000 1000 1000 1000
          1000 1000 1000 1000 1000 1000 1000 1000 1000 1000 1000 1000
          1000 1000 1000 1000 1000 1000 1000 1000 1000 1000 1000 1000
          1000 1000 1000 1000 1000 1000 1000 1000 1000 1000 1000 1000
          1000 1000 1000 1000 1000 1000 1000 1000 1000 1000 1000 1000
          1000 1000 1000 1000 1000 1000 1000 1000 1000 1000 1000 1000
          1000 1000 1000 1000 1000 1000 1000 1000 1000 1000 1000 1000
          1000 1000 1000 1000 1000 1000 1000 1000 1000 1000 1000 1000
          1000 1000 1000 1000 1000 1000 1000 1000 1000 1000 1000 1000
          1000 1000 1000 1000 1000 1000 1000 1000 1000 1000 1000 1000
          1000 1000 1000 1000 1000 1000 1000 1000 1000 1000 1000 1000
          1000 1000 1000 1000 1000 1000 1000 1000 1000 1000 1000 1000
          1000 1000 1000 1000 1000 1000 1000 1000 1000 1000 1000 1000
          1000 1000 1000 1000 1000 1000 1000 1000 1000 1000 1000 1000
          1000 1000 1000 1000 1000 1000 1000 1000 1000 1000 1000 1000
          1000 1000 1000 1000 1000 1000 1000 1000 1000 1000 1000 1000
          1000 1000 1000 1000 1000 1000 1000 1000 1000 1000 1000 1000
          1000 1000 1000 1000 1000 1000 1000 1000 1000 1000 1000 1000
          1000 1000 1000 1000 1000 1000 1000 1000 1000 1000 1000 1000
          1000 1000 1000 1000 1000 1000 1000 1000 1000 1000 1000 1000
          1000 1000 1000 1000 1000 1000 1000 1000 1000 1000 1000 1000
          1000 1000 1000 1000 1000 1000 1000 1000 1000 1000 1000 1000
          1000 1000 1000 1000 1000 1000 1000 1000 1000 1000 1000 1000
          1000 1000 1000 1000 1000 1000 1000 1000 1000 1000 1000 1000
          1000 1000 1000 1000 1000 1000 1000 1000 1000 1000 1000 1000
          1000 1000 1000 1000 1000 1000 1000 1000 1000 1000 1000 1000
          1000 1000 1000 1000 1000 1000 1000 1000 1000 1000 1000 1000
          1000 1000 1000 1000 1000 1000 1000 1000 1000 1000 1000 1000
          1000 1000 1000 1000 1000 1000 1000 1000 1000 1000 1000 1000
          1000 1000 1000 1000 1000 1000 1000 1000 1000 1000 1000 1000
          1000 1000 1000 1000 1000 1000 1000 1000 1000 1000 1000 1000
          1000 1000 1000 1000 1000 1000 1000 1000 1000 1000 1000 1000
          1000 1000 1000 1000 1000 1000 1000 1000 1000 1000 1000 1000
          1000 1000 1000 1000 1000 1000 1000 1000 1000 1000 1000 1000
          1000 1000 1000 1000 1000 1000 1000 1000 1000 1000 1000 1000
          1000 1000 1000 1000 1000 1000 1000 1000 1000 1000 1000 1000
          1000 1000 1000 1000 1000 1000 1000 1000 1000 1000 1000 1000
          1000 1000 1000 1000 1000 1000 1000 1000 1000 1000 1000 1000
          1000 1000 1000 1000 1000 1000 1000 1000 1000 1000 1000 1000
          1000 1000 1000 1000 1000 1000 1000 1000 1000 1000 1000 1000
          1000 1000 1000 1000 1000 1000 1000 1000 1000 1000 1000 1000
          1000 1000 1000 1000 1000 1000 1000 1000 1000 1000 1000 1000
          1000 1000 1000 1000 1000 1000 1000 1000 1000 1000 1000 1000
          1000 1000 1000 1000 1000 1000 1000 1000 1000 1000 1000 1000
          1000 1000 1000 1000 1000 1000 1000 1000 1000 1000 1000 1000
          1000 1000 1000 1000 1000 1000 1000 1000 1000 1000 1000 1000
          1000 1000 1000 1000 1000 1000 1000 1000 1000 1000 1000 1000
          1000 1000 1000 1000 1000 1000 1000 1000 1000 1000 1000 1000
          1000 1000 1000 1000 1000 1000 1000 1000 1000 1000 1000 1000
          1000 1000 1000 1000 1000 1000 1000 1000 1000 1000 1000 1000
          1000 1000 1000 1000 1000 1000 1000 1000 1000 1000 1000 1000
          1000 1000 1000 1000 1000 1000 1000 1000 1000 1000 1000 1000
          1000 1000 1000 1000 1000 1000 1000 1000 1000 1000 1000 1000
          1000 1000 1000 1000 1000 1000 1000 1000 1000 1000 1000 1000
          1000 1000 1000 1000 1000 1000 1000 1000 1000 1000 1000 1000
          1000 1000 1000 1000 1000 1000 1000 1000 1000 1000 1000 1000
          1000 1000 1000 1000 1000 1000 1000 1000 1000 1000 1000 1000
          1000 1000 1000 1000 1000 1000 1000 1000 1000 1000 1000 1000
          1000 1000 1000 1000 1000 1000 1000 1000 1000 1000 1000 1000
          1000 1000 1000 1000 1000 1000 1000 1000 1000 1000 1000 1000