<?xml version="1.0"?>
<VTKFile type="UnstructuredGrid" version="0.1" byte_order="LittleEndian">
  <UnstructuredGrid>
    <Piece NumberOfCells="2204" NumberOfPoints="2924">
      <CellData Scalars="wetting pressure">
        <DataArray type="Float32" Name="wetting pressure" NumberOfComponents="1" format="ascii">
          265460 270498 271916 270840 267774 262902 256175 247335 235839 220590 265465 270513
          271943 270882 267838 262995 256300 247470 235944 220630 265472 270536 271986 270951
          267936 263150 256526 247739 236160 220710 265479 270559 272030 271017 267998 263277
          256780 248125 236482 220829 265484 270574 272058 271072 236841 220952 265484 270574
          272059 271072 236848 220952 265479 270560 272030 271017 267998 263280 256786 248129
          236485 220829 265472 270536 271986 270951 267936 263151 256529 247741 236161 220711
          265465 270513 271943 270883 267839 262996 256301 247471 235945 220630 265460 270499
          271917 270840 267775 262903 256176 247336 235839 220590 261907 264297 264577 262979
          259711 254856 248358 240048 229679 217053 261912 264314 264610 263033 259795 254981
          248524 240225 229815 217103 261921 264342 264664 263125 259935 255208 248857 240607
          230116 217213 261930 264371 264720 263227 241259 230651 217398 261935 264388 264751
          263266 217659 261935 264388 264751 263266 217654 261930 264371 264720 263228 241266
          230653 217397 261921 264342 264664 263125 259936 255209 248857 240609 230117 217213
          261912 264314 264610 263034 259795 254981 248525 240226 229816 217103 261907 264297
          264577 262980 259712 254856 248359 240049 229679 217053 260151 260189 259084 256735
          253152 248326 242190 234644 225640 215322 260158 260211 259127 256810 253272 248507
          242427 234888 225824 215389 260169 260248 259200 256938 253483 248860 242940 235445
          226253 215540 260180 260286 259277 257082 227107 215812 260187 260309 259322 257157
          216205 260187 260309 259322 257157 216203 260180 260286 259277 257082 227099 215811
          260169 260248 259200 256939 253483 248860 242941 235446 226252 215540 260158 260211
          259127 256810 253272 248508 242428 234889 225824 215389 260151 260189 259084 256736
          253153 248327 242191 234644 225640 215322 259029 257202 254791 251652 247719 242928
          237195 230453 222730 214228 259037 257231 254848 251753 247884 243177 237513 230766
          222958 214309 259052 257280 254947 251932 248194 243695 238232 231491 223488 214492
          259067 257330 255052 252135 224531 214813 259077 257362 255118 252261 215243 259077
          257362 255118 252260 215243 259067 257330 255052 252135 224527 214812 259052 257280
          254947 251933 248194 243696 238233 231492 223487 214492 259037 257231 254849 251754
          247885 243178 237514 230767 222958 214309 259029 257202 254791 251652 247719 242929
          237196 230454 222731 214229 258159 254770 251168 247263 242978 238222 232894 226931
          220374 213386 258170 254808 251242 247394 243192 238537 233280 227296 220629 213476
          258189 254870 251370 247627 243601 239203 234155 228128 221206 213671 258209 254936
          251506 247890 222266 213992 258221 254977 251593 248062 214367 258221 254977 251593
          248062 214367 258209 254936 251506 247890 222262 213991 258189 254871 251370 247627
          243601 239204 234156 228129 221205 213670 258170 254808 251243 247394 243192 238538
          233281 227297 220630 213476 258159 254771 251168 247264 242979 238223 232896 226932
          220375 213387 257362 252516 247774 243124 238494 233775 228844 223638 218195 212617
          257377 252562 247867 243287 238757 234150 229286 224041 218467 212711 257400 252641
          248026 243575 239258 234934 230266 224928 219053 212907 257424 252722 248195 243897
          220027 213203 257440 252774 248304 244109 213499 257440 252774 248304 244109 213498
          257424 252723 248195 243897 220024 213203 257400 252641 248026 243576 239259 234935
          230268 224929 219053 212908 257377 252563 247868 243288 238758 234152 229289 224043
          218469 212712 257362 252516 247775 243125 238496 233777 228847 223641 218196 212618
          256501 250109 244196 238802 233840 229164 224630 220181 215878 211788 256518 250167
          244312 239004 234163 229612 225138 220631 216175 211889 256547 250264 244508 239359
          234769 230524 226223 221579 216784 212092 256577 250365 244716 239745 217716 212376
          256596 250429 244850 240002 212629 256596 250429 244850 240002 212629 256577 250365
          244716 239746 217714 212376 256547 250265 244509 239360 234770 230526 226226 221582
          216787 212093 256518 250168 244313 239005 234164 229615 225142 220635 216178 211891
          256501 250109 244197 238803 233842 229167 224633 220186 215881 211789 255392 247166
          239984 233845 228580 223965 219821 216132 213051 210721 255414 247237 240129 234103
          228995 224535 220450 216674 213399 210838 255449 247357 240375 234553 229768 225665
          221741 217790 214092 211066 255486 247480 240632 235034 219501 215070 211368 255509
          247559 240799 235358 216058 211630 255509 247559 240800 235358 216080 211634 255486
          247481 240633 235034 219516 215084 211372 255449 247357 240376 234554 229769 225668
          221748 217802 214102 211069 255414 247238 240130 234104 228997 224539 220457 216683
          213406 210841 255392 247166 239985 233847 228582 223969 219827 216139 213057 210723
          253651 243107 234585 227759 222256 217726 213930 210932 209128 209026 253676 243193
          234764 228091 222821 218524 214791 211643 209564 209169 253718 243336 235069 228679
          223915 220127 216587 213156 210447 209448 253761 243485 235390 229311 215168 211688
          209811 253788 243578 235598 229775 212697 210099 253788 243578 235598 229775 212733
          210105 253761 243485 235391 229311 215219 211719 209817 253719 243337 235071 228682
          223917 220134 216604 213184 210465 209453 253677 243193 234766 228092 222822 218529
          214802 211660 209576 209173 253651 243107 234587 227761 222258 217731 213939 210943
          209136 209030 250108 236939 227314 220020 214393 209959 206380 203828 203066 205519
          250136 237035 227519 220421 215148 211146 207613 204745 203597 205687 250182 237196
          227872 221134 204733 206022 250230 237362 228247 221975 206451 250258 237459 228447
          206831 250259 237460 228450 206833 250230 237363 228249 221976 206446 250183 237197
          227875 221145 204759 206028 250136 237036 227521 220422 215141 211148 207628 204773
          203614 205692 250108 236940 227315 220021 214394 209964 206391 203844 203077 205523
          271102 269207 269194 271123 266729 264763 264732 266720 266817 264058 264004 266786
          262392 259681 259596 262345 271123 269194 269207 271103 266721 264732 264762 266727
          266786 264004 264059 266817 262345 259596 259681 262391 262786 260791 260746 262771
          259249 257244 257234 259250 258446 255782 255753 258404 254969 252443 252542 255026
          262772 260746 260792 262787 259250 257234 257244 259248 258404 255753 255782 258447
          255026 252542 252444 254969 256128 254129 254182 256152 253341 251395 251498 253391
          251971 249624 249838 252139 249381 247202 247453 249601 256153 254182 254128 256127
          253391 251498 251395 253340 252139 249838 249625 251971 249601 247453 247203 249382
          250841 248935 249076 250909 248528 246673 246829 248612 247053 245002 245257 247286
          244875 242924 243175 245112 250910 249077 248935 250839 248613 246829 246672 248528
          247286 245257 245003 247053 245112 243176 242924 244876 246365 244527 244693 246458
          244262 242438 242612 244364 242786 240912 241160 243023 240736 238928 239174 240974
          246459 244694 244526 246363 244365 242612 242438 244261 243023 241160 240913 242786
          240974 239174 238928 240736 242204 240368 240548 242312 240108 238270 238455 240224
          238691 236939 237185 238930 236616 234918 235164 236857 242313 240548 240367 242201
          240226 238455 238269 240108 238930 237185 236940 238691 236857 235164 234918 236616
          237973 236115 236307 238095 235720 233866 234068 235853 234483 232839 233088 234727
          232265 230679 230934 232517 238096 236307 236114 237970 235854 234069 233866 235720
          234728 233088 232839 234483 232518 230933 230677 232264 233348 231501 231717 233492
          230794 228994 229228 230958 229942 228421 228684 230205 227502 226055 226333 227782
          233493 231723 231501 233346 230959 229237 228993 230795 230209 228684 228417 229941
          227784 226329 226046 227496 228041 226331 226593 228227 225066 223519 223831 225286
          224941 223583 223887 225252 222275 221019 221363 222630 228226 226595 226328 228040
          225282 223827 223517 225068 225248 223877 223570 224932 222626 221356 221010 222267
          221796 220583 220959 222042 218336 217538 217939 218639 219555 218409 218817 219973
          216745 215705 216147 217185 222040 220952 220581 221794 218640 217940 217537 218336
          219973 218814 218403 219552 217183 216141 215699 216742 217078 215583 215959 217467
          214392 212860 213289 214829 217461 215951 215584 217075 214822 213286 212870 214391
          222148 220631 220899 222435 219649 218183 218481 219975 218814 217635 216623 217896
          215900 214838 213670 214792 252767 249400 249422 252773 249599 246382 246509 249718
          252773 249422 249401 252768 249719 246509 246383 249600 246996 243984 244167 247194
          244733 241913 242119 244969 247194 244167 243985 246997 244970 242119 241915 244734
          242670 240015 240225 242911 240710 238200 238413 240949 242912 240225 240017 242672
          240949 238414 238202 240711 238804 236439 236644 239040 236916 234680 234877 237148
          239040 236645 236440 238805 237148 234877 234681 236917 235016 232896 233085 235245
          233078 231063 231250 233306 235245 233085 232898 235017 233306 231250 231063 233078
          231079 229168 229360 231311 228998 227182 227395 229238 231310 229359 229166 231079
          229237 227393 227178 228996 226823 225110 225342 227073 224541 222935 223182 224805
          227070 225337 225104 226817 224798 223171 222920 224529 222424 220887 220624 222135
          219967 218473 218187 219643 220715 219226 219988 221368 216900 215762 216782 217885
          217888 216624 217637 218815 214789 213663 214838 215901 221361 219987 219227 220713
          217885 216782 215764 216901 260850 257158 257250 260834 256578 252975 253002 256511
          260834 257250 257160 260852 256511 253003 252976 256578 229538 227961 227223 228959
          227061 225563 224789 226444 223775 222203 223054 224454 221002 219517 220416 221686
          258523 255805 255865 258544 254973 252338 252459 255033 258547 255867 255805 258524
          255034 252460 252339 254972 251828 249299 249479 251909 249054 246649 246916 249199
          251909 249481 249303 251828 249199 246917 246649 249051 246552 244258 244648 246798
          244262 242073 242544 244580 246798 244650 244264 246553 244580 242545 242073 244258
          242081 239974 240519 242470 239979 237944 238528 240409 242471 240521 239979 242083
          240409 238529 237943 239975 237883 235908 236533 238352 235775 233858 234505 236267
          238353 236534 235913 237885 236267 234506 233856 235771 233598 231737 232416 234122
          231343 229540 230243 231888 234122 232417 231741 233601 231886 230242 229539 231338
          228958 227220 227964 229542 226452 224790 225572 227069 233108 231203 230775 232747
          230525 228655 228192 230127 227275 225415 225944 227732 224169 222466 223053 224702
          227727 225938 225418 227272 224697 223049 222460 224172 224445 223043 222209 223773
          221676 220409 219520 220982 256037 254087 254155 256100 253187 251250 251367 253284
          256100 254155 254087 256031 253283 251367 251248 253180 250620 248679 248844 250755
          248245 246323 246531 248414 250754 248844 248681 250613 248415 246531 246320 248238
          246026 244093 244348 246229 243879 241951 242240 244108 246227 244348 244095 246019
          244108 242239 241947 243872 241779 239827 240151 242035 239650 237693 238039 239926
          242034 240151 239830 241773 239927 238039 237689 239643 237475 235492 235868 237776
          235182 233203 233601 235507 237774 235867 235494 237469 235506 233599 233199 235176
          232753 230772 231207 233111 230130 228196 228661 230527 225714 223414 223614 225880
          221658 219487 219663 221798 225881 223617 223411 225715 221799 219664 219487 221660
          262799 260862 260868 262815 259206 257272 257303 259245 262817 260869 260862 262799
          259245 257303 257271 259201 215195 213482 214842 216356 212293 210775 211972 213522
          216359 214845 213516 215210 213531 212000 210807 212308 214043 212000 212757 214385
          211142 209349 209766 211592 214351 212681 212031 214041 211598 209795 209385 211171
          245489 240824 241181 245620 242805 238583 238812 242879 245620 241184 240834 245492
          242880 238815 238592 242805 240606 236927 236915 240744 238671 235144 235272 238882
          240745 236917 236931 240609 238883 235273 235148 238672 236970 233682 233800 237178
          235348 232267 232402 235551 237178 233800 233685 236972 235552 232403 232273 235351
          233782 230922 231060 233962 232202 229251 229577 232343 233963 231060 230924 233785
          232344 229575 229235 232205 230547 227466 228056 230678 228800 225826 226455 228964
          230678 228055 227464 230547 228964 226455 225826 228799 215618 214037 215370 216806
          212462 211218 212379 213590 216819 215378 214041 215626 213595 212385 211216 212463
          246433 243123 243660 246874 243932 240806 241547 244462 246877 243664 243131 246436
          244463 241550 240811 243928 241676 238731 239744 242320 239608 236809 237886 240324
          242323 239748 238738 241678 240325 237890 236814 239605 237617 234951 236126 238408
          235681 233132 234371 236519 238410 236129 234955 237620 236520 234374 233136 235679
          233737 231301 232604 234621 231768 229431 230769 232683 234623 232606 231303 233741
          232684 230770 229434 231766 227029 224198 224848 227211 225197 222502 223217 225396
          227211 224848 224198 227030 225394 223215 222503 225197 223289 220716 221558 223507
          221276 218752 219758 221509 223499 221543 220726 223282 221477 219698 218790 221228
          219325 217706 216755 219054 216954 215167 214441 216669 229731 227491 228828 230687
          227608 225443 226682 228593 230688 228814 227487 229733 228592 226654 225441 227605
          225369 223289 224487 226395 223016 221008 222242 224085 226388 224481 223301 225372
          224065 222260 221039 223019 220519 218622 219926 221637 217924 216123 217547 219075
          219071 216669 217513 219357 216663 214383 215078 216971 221633 220009 218673 220533
          219077 217682 216180 217938 252650 249049 249263 252779 249307 245805 246147 249539
          252782 249263 249054 252650 249541 246151 245819 249307 219243 217344 218319 220019
          215232 213651 214784 216079 220017 218326 217349 219245 216082 214789 213653 215234
          211693 209943 211059 212977 209264 207463 208672 210274 213019 211105 210009 211743
          210318 208728 207634 209315 212387 210578 212116 213790 209873 207486 209543 211060
          213807 212139 210588 212391 211067 209568 207506 209842 210569 209032 208702 210107
          208183 206305 205796 207778 210072 208667 209018 210545 207745 205760 206281 208184
          252845 247704 247891 253027 248813 243843 244114 249034 253028 247892 247708 252847
          249034 244113 243862 248813 231733 225780 226666 232575 230391 224608 225586 231249
          232576 226665 225816 231734 231249 225582 224639 230397 229109 223603 224587 230008
          227817 222557 223480 228802 230008 224583 223632 229112 228802 223474 222583 227827
          235422 229130 229470 235964 233353 227126 227744 234328 235970 229471 229136 235419
          234331 227744 227161 233357 235267 231350 232389 236241 233494 229745 230866 234579
          236243 232392 231376 235271 234580 230863 229767 233499 226520 221587 222365 227778
          225066 220495 221137 226361 227777 222358 221612 226521 226364 221130 220521 225079
          239353 235095 235865 240005 237187 233057 233977 237990 240011 235863 235097 239351
          237992 233975 233080 237190 231795 228255 229399 232943 230113 226735 227839 231280
          232945 229403 228277 231800 231280 227827 226753 230119 223597 219496 219998 224447
          222176 218420 218846 222911 224448 219990 219521 223604 222912 218840 218448 222190
          208878 207416 208675 210332 205395 203764 205339 207439 210374 208724 207447 208898
          207488 205415 203804 205427 228436 225265 226293 229583 226711 223722 224714 227838
          229583 226292 225284 228439 227836 224706 223741 226717 208258 207349 208129 209276
          205104 203995 204908 206514 209322 208166 207373 208300 206571 204942 204028 205179
          220826 217440 217820 221475 219396 216277 216596 220004 221476 217815 217465 220831
          220009 216599 216286 219404 224947 222191 223145 226046 223089 220497 221431 224165
          226043 223146 222209 224948 224162 221427 220503 223088
        </DataArray>
        <DataArray type="Float32" Name="nonwetting pressure" NumberOfComponents="1" format="ascii">
          265460 270498 271916 270840 267774 262902 256175 247335 235839 220590 265465 270513
          271943 270882 267838 262995 256300 247470 235944 220630 265472 270536 271986 270951
          267936 263150 256526 247739 236160 220710 265479 270559 272030 271017 267998 263277
          256780 248125 236482 220829 265484 270574 272058 271072 236841 220952 265484 270574
          272059 271072 236848 220952 265479 270560 272030 271017 267998 263280 256786 248129
          236485 220829 265472 270536 271986 270951 267936 263151 256529 247741 236161 220711
          265465 270513 271943 270883 267839 262996 256301 247471 235945 220630 265460 270499
          271917 270840 267775 262903 256176 247336 235839 220590 261907 264297 264577 262979
          259711 254856 248358 240048 229679 217053 261912 264314 264610 263033 259795 254981
          248524 240225 229815 217103 261921 264342 264664 263125 259935 255208 248857 240607
          230116 217213 261930 264371 264720 263227 241259 230651 217398 261935 264388 264751
          263266 217659 261935 264388 264751 263266 217654 261930 264371 264720 263228 241266
          230653 217397 261921 264342 264664 263125 259936 255209 248857 240609 230117 217213
          261912 264314 264610 263034 259795 254981 248525 240226 229816 217103 261907 264297
          264577 262980 259712 254856 248359 240049 229679 217053 260151 260189 259084 256735
          253152 248326 242190 234644 225640 215322 260158 260211 259127 256810 253272 248507
          242427 234888 225824 215389 260169 260248 259200 256938 253483 248860 242940 235445
          226253 215540 260180 260286 259277 257082 227107 215812 260187 260309 259322 257157
          216205 260187 260309 259322 257157 216203 260180 260286 259277 257082 227099 215811
          260169 260248 259200 256939 253483 248860 242941 235446 226252 215540 260158 260211
          259127 256810 253272 248508 242428 234889 225824 215389 260151 260189 259084 256736
          253153 248327 242191 234644 225640 215322 259029 257202 254791 251652 247719 242928
          237195 230453 222730 214228 259037 257231 254848 251753 247884 243177 237513 230766
          222958 214309 259052 257280 254947 251932 248194 243695 238232 231491 223488 214492
          259067 257330 255052 252135 224531 214813 259077 257362 255118 252261 215243 259077
          257362 255118 252260 215243 259067 257330 255052 252135 224527 214812 259052 257280
          254947 251933 248194 243696 238233 231492 223487 214492 259037 257231 254849 251754
          247885 243178 237514 230767 222958 214309 259029 257202 254791 251652 247719 242929
          237196 230454 222731 214229 258159 254770 251168 247263 242978 238222 232894 226931
          220374 213386 258170 254808 251242 247394 243192 238537 233280 227296 220629 213476
          258189 254870 251370 247627 243601 239203 234155 228128 221206 213671 258209 254936
          251506 247890 222266 213992 258221 254977 251593 248062 214367 258221 254977 251593
          248062 214367 258209 254936 251506 247890 222262 213991 258189 254871 251370 247627
          243601 239204 234156 228129 221205 213670 258170 254808 251243 247394 243192 238538
          233281 227297 220630 213476 258159 254771 251168 247264 242979 238223 232896 226932
          220375 213387 257362 252516 247774 243124 238494 233775 228844 223638 218195 212617
          257377 252562 247867 243287 238757 234150 229286 224041 218467 212711 257400 252641
          248026 243575 239258 234934 230266 224928 219053 212907 257424 252722 248195 243897
          220027 213203 257440 252774 248304 244109 213499 257440 252774 248304 244109 213498
          257424 252723 248195 243897 220024 213203 257400 252641 248026 243576 239259 234935
          230268 224929 219053 212908 257377 252563 247868 243288 238758 234152 229289 224043
          218469 212712 257362 252516 247775 243125 238496 233777 228847 223641 218196 212618
          256501 250109 244196 238802 233840 229164 224630 220181 215878 211788 256518 250167
          244312 239004 234163 229612 225138 220631 216175 211889 256547 250264 244508 239359
          234769 230524 226223 221579 216784 212092 256577 250365 244716 239745 217716 212376
          256596 250429 244850 240002 212629 256596 250429 244850 240002 212629 256577 250365
          244716 239746 217714 212376 256547 250265 244509 239360 234770 230526 226226 221582
          216787 212093 256518 250168 244313 239005 234164 229615 225142 220635 216178 211891
          256501 250109 244197 238803 233842 229167 224633 220186 215881 211789 255392 247166
          239984 233845 228580 223965 219821 216132 213051 210721 255414 247237 240129 234103
          228995 224535 220450 216674 213399 210838 255449 247357 240375 234553 229768 225665
          221741 217790 214092 211066 255486 247480 240632 235034 219501 215070 211368 255509
          247559 240799 235358 216058 211630 255509 247559 240800 235358 216080 211634 255486
          247481 240633 235034 219516 215084 211372 255449 247357 240376 234554 229769 225668
          221748 217802 214102 211069 255414 247238 240130 234104 228997 224539 220457 216683
          213406 210841 255392 247166 239985 233847 228582 223969 219827 216139 213057 210723
          253651 243107 234585 227759 222256 217726 213930 210932 209128 209026 253676 243193
          234764 228091 222821 218524 214791 211643 209564 209169 253718 243336 235069 228679
          223915 220127 216587 213156 210447 209448 253761 243485 235390 229311 215168 211688
          209811 253788 243578 235598 229775 212697 210099 253788 243578 235598 229775 212733
          210105 253761 243485 235391 229311 215219 211719 209817 253719 243337 235071 228682
          223917 220134 216604 213184 210465 209453 253677 243193 234766 228092 222822 218529
          214802 211660 209576 209173 253651 243107 234587 227761 222258 217731 213939 210943
          209136 209030 250108 236939 227314 220020 214393 209959 206380 203828 203066 205519
          250136 237035 227519 220421 215148 211146 207613 204745 203597 205687 250182 237196
          227872 221134 204733 206022 250230 237362 228247 221975 206451 250258 237459 228447
          206831 250259 237460 228450 206833 250230 237363 228249 221976 206446 250183 237197
          227875 221145 204759 206028 250136 237036 227521 220422 215141 211148 207628 204773
          203614 205692 250108 236940 227315 220021 214394 209964 206391 203844 203077 205523
          271102 269207 269387 271123 266729 264778 265072 266720 266823 264058 264100 267030
          262428 259702 259846 262794 271123 269387 269207 271103 266721 265072 264777 266727
          267030 264100 264059 266824 262794 259846 259702 262426 262786 260831 261199 262771
          259249 257320 257778 259250 258536 255857 256170 259024 255144 252613 253081 255765
          262772 261199 260831 262787 259250 257778 257320 259248 259024 256170 255858 258537
          255766 253081 252614 255144 256128 254251 254790 256152 253341 251562 252147 253391
          252234 249887 250436 252945 249705 247519 248073 250439 256153 254790 254251 256127
          253391 252147 251561 253340 252945 250436 249888 252234 250439 248073 247519 249706
          250841 249133 249748 250909 248528 246888 247514 248612 247409 245343 245884 248140
          245248 243275 243804 245975 250910 249748 249133 250839 248613 247514 246888 248528
          248140 245884 245344 247409 245975 243804 243275 245248 246365 244750 245385 246458
          244262 242666 243307 244364 243166 241267 241789 243892 241121 239284 239802 241848
          246459 245385 244750 246363 244365 243307 242666 244261 243892 241789 241268 243167
          241848 239802 239285 241122 242204 240596 241242 242312 240108 238498 239150 240224
          239078 237296 237812 239807 237006 235276 235791 237738 242313 241242 240596 242201
          240226 239151 238498 240108 239807 237812 237297 239079 237738 235791 235276 237006
          237973 236343 237003 238095 235720 234096 234767 235853 234875 233197 233714 235614
          232661 231038 231560 233409 238096 237003 236343 237970 235854 234768 234096 235720
          235614 233714 233197 234875 233409 231559 231036 232661 233348 231734 232422 233492
          230794 229235 229945 230958 230345 228782 229311 231104 227914 226420 226961 228690
          233493 232425 231734 233346 230959 229948 229234 230795 231105 229309 228778 230343
          228689 226956 226411 227908 228041 226588 227333 228227 225066 223810 224614 225286
          225367 223953 224515 226172 222730 221404 222004 223580 228226 227331 226584 228040
          225282 224610 223806 225068 226168 224508 223943 225359 223577 222000 221398 222724
          221796 220988 221889 222042 218717 218749 219694 219332 220119 218875 219551 221043
          218113 216925 217677 219074 222040 221887 220986 221794 219333 219695 218750 218717
          221043 219550 218873 220117 219074 217676 216928 218114 217423 215815 216302 217973
          215416 213674 214275 216066 217971 216299 215820 217425 216068 214283 213695 215425
          222429 220819 221195 222867 219937 218372 218777 220411 219070 217888 216690 217955
          216861 215755 214290 215403 252816 249430 249600 253048 249736 246483 246792 250109
          253048 249601 249431 252817 250109 246792 246484 249736 247216 244154 244506 247642
          245001 242123 242477 245437 247643 244507 244156 247217 245437 242478 242125 245002
          242958 240243 240586 243383 241003 238433 238770 241419 243383 240586 240245 242959
          241419 238771 238435 241004 239099 236671 236995 239506 237210 234909 235221 237610
          239506 236996 236672 239100 237610 235221 234910 237211 235308 233120 233422 235702
          233367 231279 231580 233759 235702 233422 233121 235309 233759 231580 231280 233367
          231366 229377 229683 231759 229283 227385 227711 229681 231758 229683 229375 231366
          229680 227710 227381 229281 227105 225308 225652 227512 224823 223127 223485 225241
          227509 225647 225302 227100 225235 223475 223114 224812 222860 221187 220816 222420
          220408 218774 218382 219935 220715 219226 220113 221368 216900 216184 217547 217965
          217947 216688 217887 219071 215397 214278 215747 216859 221361 220112 219227 220713
          217966 217548 216187 216901 260850 257158 257267 260874 256578 252975 253078 256648
          260875 257268 257160 260852 256648 253078 252976 256578 229667 228114 227223 228959
          227199 225722 224789 226444 223775 222203 223220 224605 221014 219517 220597 221863
          258523 255805 255865 258544 254973 252338 252459 255033 258547 255867 255805 258524
          255034 252460 252339 254972 251828 249299 249509 251926 249054 246649 246988 249244
          251927 249511 249303 251828 249244 246989 246649 249051 246552 244258 244752 246869
          244262 242073 242667 244671 246870 244754 244264 246553 244671 242668 242073 244258
          242081 239974 240653 242573 239979 237944 238668 240519 242573 240654 239979 242083
          240518 238668 237943 239975 237883 235908 236676 238466 235775 233858 234650 236384
          238467 236677 235913 237885 236384 234651 233856 235771 233598 231737 232563 234241
          231343 229540 230392 232011 234241 232564 231741 233601 232009 230391 229539 231338
          228958 227220 228118 229670 226452 224790 225730 227206 233108 231245 230775 232747
          230525 228703 228192 230127 227275 225415 225999 227732 224169 222466 223125 224702
          227727 225994 225418 227272 224697 223120 222460 224172 224597 223212 222209 223773
          221855 220593 219520 220996 256037 254087 254155 256100 253187 251250 251367 253284
          256100 254155 254087 256031 253283 251367 251248 253180 250620 248679 248854 250755
          248245 246323 246551 248414 250754 248854 248681 250613 248415 246550 246320 248238
          246026 244093 244376 246229 243879 241951 242272 244108 246227 244376 244095 246019
          244108 242272 241947 243872 241779 239827 240186 242035 239650 237693 238075 239926
          242034 240186 239830 241773 239927 238075 237689 239643 237475 235492 235905 237776