<?xml version="1.0"?>
<VTKFile type="UnstructuredGrid" version="0.1" byte_order="LittleEndian">
  <UnstructuredGrid>
    <Piece NumberOfCells="178" NumberOfPoints="211">
      <CellData Scalars="wetting pressure">
        <DataArray type="Float32" Name="wetting pressure" NumberOfComponents="1" format="ascii">
          265456 270484 271889 270797 267712 262821 256082 247245 235774 220566 261908 264299
          264580 262981 259710 254861 248373 240071 229703 217061 260162 260224 259150 256837
          253288 248539 242478 234964 225904 215415 259054 257287 254958 251930 223534 214489
          258200 254912 251466 213874 257413 252693 248166 213209 256548 250282 244598 217634
          212297 255423 247290 240311 234639 218229 214082 211022 253657 243143 234719 228132
          215161 211638 209442 209111 250094 236906 227289 220050 214539 210102 206391 203720
          202940 205466 250336 248260 245868 247928 249713 247815 245855 247784 245777 243781
          242084 243902 241679 239392 237919 240106 241988 240271 238246 239946 245964 243433
          241256 243666 245927 243920 241905 243986 238432 236389 234612 236516 236891 234172
          232969 235536 237751 236027 233606 235372 234146 231729 230273 232524 234354 232567
          230256 231955 240603 237508 235686 238598 241959 239761 237422 239697 231251 228189
          227371 230242 230633 228555 226584 228468 232811 230964 228002 229821 229161 226435
          225272 227870 229305 227662 224696 226356 234062 230334 229009 232497 226330 223398
          220925 224011 226024 224091 220101 222564 224437 220332 219676 223757 222887 218972
          217975 221689 222434 220521 215957 217964 226274 224279 220036 222275
        </DataArray>
        <DataArray type="Float32" Name="nonwetting pressure" NumberOfComponents="1" format="ascii">
          265456 270484 271889 270797 267712 262821 256082 247245 235774 220566 261908 264299
          264580 262981 259710 254861 248373 240071 229703 217061 260162 260224 259150 256837
          253288 248539 242478 234964 225904 215415 259054 257287 254958 251930 223534 214489
          258200 254912 251466 213874 257413 252693 248166 213209 256548 250282 244598 217634
          212297 255423 247290 240311 234639 218229 214082 211022 253657 243143 234719 228132
          215161 211638 209442 209111 250094 236906 227289 220050 214539 210102 206391 203720
          202940 205466 250336 248260 245868 247928 249713 247815 245855 247784 246203 244379
          242866 244494 242052 239629 238306 240650 242337 240793 238602 240150 245964 243433
          241256 243666 245927 243920 241905 243986 238891 236756 234921 236872 237047 234281
          233178 235817 237870 236270 233771 235441 234434 231954 230478 232779 234625 232817
          230455 232158 240603 237508 235686 238598 241959 239761 237422 239697 231333 228235
          227471 230399 230847 228729 226704 228643 232848 231071 228056 229821 229333 226543
          225348 228025 229452 227813 224774 226441 234062 230334 229009 232497 226436 223398
          220925 224011 226136 224099 220101 222564 224437 220332 219676 223757 222887 218972
          217975 221689 222434 220521 215957 217964 226274 224279 220036 222275
        </DataArray>
        <DataArray type="Float32" Name="wetting saturation" NumberOfComponents="1" format="ascii">
          1 1 1 1 1 1 1 1 1 1 1 1
          1 1 1 1 1 1 1 1 1 1 1 1
          1 1 1 1 1 1 1 1 1 1 1 1
          1 1 1 1 1 1 1 1 1 1 1 1
          1 1 1 1 1 1 1 1 1 1 1 1
          1 1 1 1 1 1 1 1 1 1 1 1
          1 1 1 1 1 1 1 1 1 1 0.957355 0.940176
          0.921821 0.940792 0.962763 0.976332 0.961302 0.945609 0.965108 0.947754 0.964422 0.979604 1 1
          1 1 1 1 1 1 0.954101 0.963245 0.969081 0.964382 0.984343 0.989045
          0.979088 0.971884 0.988164 0.975687 0.983448 0.993059 0.971181 0.977538 0.979519 0.974465 0.972905 0.97494
          0.98011 0.979643 1 1 1 1 1 1 1 1 0.991792 0.99539
          0.990019 0.984316 0.978542 0.9826 0.987978 0.98257 0.996386 0.989303 0.994666 1 0.982844 0.989188
          0.992442 0.984459 0.985261 0.984876 0.992187 0.991554 1 1 1 1 0.989364 1
          1 1 0.988725 0.999213 1 1 1 1 1 1 1 1
          1 1 1 1 1 1 1 1 1 1
        </DataArray>
        <DataArray type="Float32" Name="C^w from cellData" NumberOfComponents="1" format="ascii">
          199.956 199.956 199.957 199.956 199.956 199.956 199.955 199.954 199.953 199.952 199.956 199.956
          199.956 199.956 199.955 199.955 199.954 199.954 199.953 199.951 199.956 199.955 199.955 199.955
          199.955 199.954 199.954 199.953 199.952 199.951 199.955 199.955 199.955 199.955 199.952 199.951
          199.955 199.955 199.955 199.951 199.955 199.955 199.954 199.951 199.955 199.955 199.954 199.951
          199.951 199.955 199.954 199.954 199.941 199.951 199.951 199.951 199.955 199.954 199.953 199.952
          199.951 199.951 199.951 199.951 199.955 199.953 199.952 199.952 199.951 199.951 199.95 199.95
          199.95 199.95 199.954 199.954 199.797 199.802 199.954 199.807 199.808 199.947 191.577 188.188
          184.558 188.314 192.712 195.19 192.311 189.315 193.174 189.739 192.908 195.81 199.954 199.954
          199.894 199.806 199.954 199.805 199.913 199.954 190.915 192.646 193.748 192.866 196.715 197.606
          195.668 194.317 197.45 195.048 196.517 198.352 194.151 195.341 195.717 194.757 194.485 194.851
          195.833 195.76 199.951 199.951 199.909 199.938 199.95 199.916 199.914 199.95 198.042 198.648
          197.346 196.64 195.528 196.251 196.716 196.248 198.883 197.584 198.467 199.739 196.319 197.177
          197.946 196.557 196.787 196.639 197.857 197.714 199.947 199.947 199.939 199.971 197.081 199.534
          199.951 199.267 196.902 199.06 199.952 199.405 199.825 199.935 199.935 199.35 199.446 199.94
          199.94 199.816 199.563 199.803 199.951 199.952 199.944 199.788 199.944 199.944
        </DataArray>
        <DataArray type="Float32" Name="C^n from cellData" NumberOfComponents="1" format="ascii">
          0 0 0 1.40813e-10 5.54808e-10 1.53237e-10 1.09685e-10 2.42791e-11 9.11479e-13 2.50135e-14 0 0
          0 3.27593e-08 1.35802e-07 4.04942e-08 2.49203e-08 9.34424e-09 3.12715e-10 5.39118e-12 0 0 0 2.96511e-06
          1.25951e-05 4.14136e-06 2.09724e-06 1.32193e-06 5.42127e-08 6.90347e-10 0 0 0 0.000128838 6.69898e-06 6.58124e-08
          0 0 0 3.4715e-06 0 0 0 1.52506e-06 0 0 0 3.79167e-06
          4.07116e-09 0 0 0 0 6.96916e-06 3.05587e-09 8.90645e-13 0 0 0 0
          2.70128e-07 0 0 0 0 0 0 0 0 0 0 0
          0 0 0.000302725 0.000792776 0.00796978 0.00356891 6.89242e-07 0.00485944 0.00825005 2.44205e-06 0.0343169 0.0441837
          0.0546605 0.0438431 0.0305904 0.0224223 0.0309354 0.0403646 0.0292568 0.0391426 0.0291772 0.0205772 0.000305475 0.000112646
          0.00188842 0.00359418 0 0.0019528 0 0 0.0351612 0.0296173 0.0260777 0.0289826 0.0176042 0.0147449
          0.0202618 0.024589 0.0154778 0.0224714 0.0178605 0.0125429 0.0248369 0.0210174 0.0197827 0.0228157 0.023883 0.022554
          0.0194534 0.0198606 9.41214e-05 7.91765e-05 0.00117813 0.00139461 0 0 0 0 0.013023 0.0108693
          0.0137494 0.017116 0.0203577 0.0179304 0.0147954 0.0179405 0.010535 0.014393 0.0112548 0.00241209 0.0178453 0.0141441
          0.0123184 0.016851 0.0165206 0.0166066 0.0124218 0.0128575 7.21723e-05 6.7026e-05 0.000339659 0.000598372 0.0140326 0.00467671
          5.09643e-05 0.00795427 0.0143563 0.00859902 2.20641e-05 0.00606485 0.00166508 0.000255105 0.000312224 0.00809722 0.00587675 0.000207348
          0.000180239 0.0016331 0.00422906 0.00161891 4.44606e-10 4.99091e-07 9.57974e-05 0.00180195 9.6264e-05 9.5634e-05
        </DataArray>
        <DataArray type="Float32" Name="capillary pressure" NumberOfComponents="1" format="ascii">
          0 0 0 0 0 0 0 0 0 0 0 0
          0 0 0 0 0 0 0 0 0 0 0 0
          0 0 0 0 0 0 0 0 0 0 0 0
          0 0 0 0 0 0 0 0 0 0 0 0
          0 0 0 0 0 0 0 0 0 0 0 0
          0 0 0 0 0 0 0 0 0 0 0 0
          0 0 0 0 0 0 0 0 0 0 426.449 598.237
          781.787 592.084 372.367 236.678 386.983 543.914 348.922 522.456 355.775 203.956 0 0
          0 0 0 0 0 0 458.991 367.553 309.186 356.182 156.572 109.55
          209.123 281.162 118.364 243.131 165.517 69.4105 288.189 224.621 204.806 255.346 270.949 250.605
          198.901 203.566 0 0 0 0 0 0 0 0 82.0756 46.1045
          99.8074 156.836 214.578 173.998 120.218 174.301 36.1392 106.97 53.3415 0 171.558 108.117
          75.5792 155.413 147.387 151.236 78.1262 84.462 0 0 0 0 106.36 0
          0 0 112.747 7.86698 0 0 0 0 0 0 0 0
          0 0 0 0 0 0 0 0 0 0
        </DataArray>
        <DataArray type="Float32" Name="wetting density" NumberOfComponents="1" format="ascii">
          999.78 999.783 999.783 999.783 999.781 999.779 999.776 999.771 999.766 999.759 999.779 999.78
          999.78 999.779 999.777 999.775 999.772 999.768 999.763 999.757 999.778 999.778 999.777 999.776
          999.774 999.772 999.769 999.766 999.761 999.756 999.777 999.776 999.775 999.774 999.76 999.756
          999.777 999.775 999.773 999.756 999.776 999.774 999.772 999.755 999.776 999.773 999.77 999.757
          999.755 999.775 999.771 999.768 999.765 999.758 999.756 999.754 999.775 999.77 999.766 999.762
          999.756 999.754 999.753 999.753 999.773 999.767 999.762 999.758 999.756 999.754 999.752 999.751
          999.75 999.752 999.773 999.773 999.786 999.779 999.773 999.781 999.786 999.772 999.798 999.797
          999.796 999.797 999.796 999.794 999.794 999.795 999.796 999.795 999.794 999.795 999.771 999.77
          999.772 999.777 999.771 999.774 999.769 999.77 999.794 999.793 999.792 999.793 999.793 999.791
          999.791 999.792 999.793 999.792 999.791 999.792 999.791 999.79 999.789 999.79 999.791 999.79
          999.789 999.79 999.768 999.767 999.768 999.77 999.769 999.768 999.767 999.768 999.79 999.788
          999.787 999.789 999.789 999.788 999.787 999.788 999.79 999.789 999.788 999.768 999.788 999.787
          999.786 999.788 999.788 999.787 999.786 999.787 999.765 999.764 999.763 999.766 999.787 999.769
          999.759 999.775 999.786 999.785 999.759 999.771 999.764 999.759 999.759 999.776 999.771 999.758
          999.758 999.762 999.768 999.762 999.757 999.758 999.762 999.764 999.759 999.76
        </DataArray>
        <DataArray type="Float32" Name="nonwetting density" NumberOfComponents="1" format="ascii">
          3.25972 3.32157 3.33886 3.32542 3.28748 3.22731 3.14442 3.03571 2.8946 2.70753 3.21608 3.24549
          3.24895 3.22928 3.18905 3.12939 3.04958 2.94746 2.81992 2.66441 3.1946 3.19537 3.18215 3.1537
          3.11005 3.05162 2.97707 2.88464 2.77319 2.64417 3.18098 3.15924 3.13059 3.09333 2.74403 2.63277
          3.17047 3.13002 3.08763 2.62521 3.16078 3.10273 3.04704 2.61702 3.15015 3.07307 3.00314 2.67145
          2.60581 3.13631 3.03626 2.95041 2.88064 2.67877 2.62776 2.59013 3.11458 2.98525 2.88162 2.80059
          2.64103 2.5977 2.57069 2.56661 3.07076 2.90853 2.79023 2.70118 2.63338 2.57881 2.53316 2.5003
          2.49071 2.52178 3.07372 3.04819 3.01877 3.04411 3.06607 3.04272 3.01861 3.04234 3.02289 3.00046
          2.98184 3.00187 2.97183 2.94202 2.92575 2.95458 2.97534 2.95634 2.92938 2.94843 3.01995 2.98882
          2.96204 2.99168 3.0195 2.99481 2.97002 2.99561 2.93294 2.90668 2.88411 2.90811 2.91026 2.87624
          2.86266 2.89513 2.92038 2.9007 2.86996 2.89051 2.87811 2.84761 2.82945 2.85776 2.88047 2.85823
          2.82917 2.85012 2.95401 2.91593 2.89352 2.92934 2.97068 2.94365 2.91488 2.94286 2.83998 2.80186
          2.79247 2.82848 2.834 2.80794 2.78303 2.80688 2.8586 2.83675 2.79966 2.82137 2.81537 2.78105
          2.76634 2.79928 2.81684 2.79667 2.75928 2.77979 2.87354 2.82768 2.81138 2.85428 2.77974 2.74236
          2.71193 2.7499 2.77605 2.75099 2.7018 2.7321 2.75514 2.70465 2.69658 2.74677 2.73607 2.68792
          2.67565 2.72133 2.7305 2.70697 2.65083 2.67551 2.77774 2.7532 2.70101 2.72855
        </DataArray>
        <DataArray type="Float32" Name="mobility w_phase" NumberOfComponents="1" format="ascii">
          765.842 765.844 765.845 765.845 765.843 765.84 765.837 765.832 765.826 765.818 765.84 765.841
          765.841 765.841 765.839 765.836 765.833 765.828 765.823 765.816 765.839 765.839 765.839 765.837
          765.835 765.833 765.83 765.826 765.821 765.815 765.838 765.837 765.836 765.835 765.82 765.815
          765.838 765.836 765.834 765.815 765.838 765.835 765.833 765.814 765.837 765.834 765.831 765.816
          765.814 765.836 765.832 765.828 765.826 765.817 765.815 765.813 765.836 765.83 765.826 765.822
          765.815 765.813 765.812 765.812 765.834 765.827 765.822 765.818 765.815 765.812 765.811 765.809
          765.809 765.81 765.834 765.833 765.831 765.833 765.833 765.832 765.831 765.832 733.173 720.016
          705.958 720.487 737.312 747.703 736.191 724.174 739.108 725.817 738.581 750.209 765.831 765.83
          765.829 765.83 765.831 765.83 765.829 765.83 730.677 737.678 742.147 738.549 753.836 757.436
          749.81 744.294 756.763 747.207 753.149 760.51 743.755 748.622 750.139 746.269 745.075 746.632
          750.591 750.234 765.829 765.827 765.826 765.828 765.829 765.828 765.827 765.828 759.538 762.291
          758.178 753.812 749.39 752.497 756.615 752.474 763.057 757.632 761.737 765.823 752.684 757.541
          760.033 753.92 754.535 754.24 759.837 759.353 765.825 765.823 765.823 765.824 757.676 765.82
          765.818 765.82 757.187 765.217 765.818 765.819 765.82 765.818 765.818 765.82 765.819 765.817
          765.817 765.819 765.819 765.818 765.816 765.817 765.821 765.82 765.818 765.819
        </DataArray>
        <DataArray type="Float32" Name="mobility nw_phase" NumberOfComponents="1" format="ascii">
          0 0 0 0 0 0 0 0 0 0 0 0
          0 0 0 0 0 0 0 0 0 0 0 0
          0 0 0 0 0 0 0 0 0 0 0 0
          0 0 0 0 0 0 0 0 0 0 0 0
          0 0 0 0 0 0 0 0 0 0 0 0
          0 0 0 0 0 0 0 0 0 0 0 0
          0 0 0 0 0 0 0 0 0 0 2414.61 3387.42
          4426.88 3352.57 2108.57 1340.28 2191.51 3080.07 1975.8 2958.54 2014.76 1154.97 0 0
          0 0 0 0 0 0 2599.26 2081.54 1751.07 2017.14 886.7 620.444
          1184.41 1592.32 670.308 1376.92 937.426 393.1 1632.17 1272.22 1160.03 1446.21 1534.52 1419.36
          1126.58 1152.96 0 0 0 0 0 0 0 0 464.87 261.15
          565.35 888.327 1215.37 985.571 680.974 987.284 204.683 605.875 302.144 0 971.732 612.432
          428.132 880.312 834.824 856.657 442.565 478.438 0 0 0 0 602.478 0
          0 0 638.665 44.5652 0 0 0 0 0 0 0 0
          0 0 0 0 0 0 0 0 0 0
        </DataArray>
        <DataArray type="Float32" Name="mass fraction H2O in liq-phase" NumberOfComponents="1" format="ascii">
          1 1 1 1 1 1 1 1 1 1 1 1
          1 1 1 1 1 1 1 1 1 1 1 1
          1 1 1 1 1 1 1 1 1 0.999999 1 1
          1 1 1 1 1 1 1 1 1 1 1 1
          1 1 1 1 1 1 1 1 1 1 1 1
          1 1 1 1 1 1 1 1 1 1 1 1
          1 1 0.999999 0.999996 0.99996 0.999982 1 0.999976 0.999959 1 0.999927 0.999928
          0.999928 0.999928 0.999929 0.999929 0.99993 0.999929 0.999929 0.999929 0.99993 0.999929 0.999998 0.999999
          0.999991 0.999982 1 0.99999 1 1 0.99993 0.99993 0.999931 0.99993 0.99993 0.999931
          0.999931 0.999931 0.99993 0.99993 0.999931 0.999931 0.999931 0.999932 0.999932 0.999931 0.999931 0.999931
          0.999932 0.999932 1 1 0.999994 0.999993 1 1 1 1 0.999932 0.999933
          0.999933 0.999932 0.999932 0.999933 0.999933 0.999933 0.999931 0.999932 0.999933 0.999988 0.999932 0.999933
          0.999934 0.999933 0.999932 0.999933 0.999934 0.999933 1 1 0.999998 0.999997 0.999933 0.999977
          1 0.99996 0.999933 0.999934 1 0.99997 0.999992 0.999999 0.999998 0.999959 0.999971 0.999999
          0.999999 0.999992 0.999979 0.999992 1 1 1 0.999991 1 1
        </DataArray>
        <DataArray type="Float32" Name="mass fraction H2O in gas-phase" NumberOfComponents="1" format="ascii">
          0.00288304 0.00282935 0.0028147 0.00282607 0.0028587 0.00291199 0.00298876 0.0030958 0.00324672 0.00347105 0.00292216 0.00289568
          0.0028926 0.00291022 0.00294693 0.00300311 0.00308171 0.00318849 0.00333271 0.00352722 0.00294181 0.0029411 0.00295332 0.00297996
          0.00302179 0.00307965 0.00315678 0.00325793 0.00338887 0.00355424 0.00295441 0.00297474 0.00300197 0.00303812 0.00342487 0.00356962
          0.0029642 0.00300251 0.00304374 0.0035799 0.00297328 0.00302892 0.00308428 0.00359111 0.00298332 0.00305816 0.00312937 0.00351793
          0.00360655 0.00299649 0.00309523 0.0031853 0.00326246 0.00350831 0.00357643 0.00362839 0.0030174 0.00314813 0.00326135 0.00335571
          0.00355845 0.00361782 0.00365583 0.00366164 0.00306046 0.00323117 0.00336818 0.00347921 0.00356879 0.00364432 0.00370999 0.00375875
          0.00377323 0.00372673 0.0030575 0.00308312 0.00311317 0.00308725 0.00306514 0.00308866 0.00311333 0.00308904 0.00310892 0.00313217
          0.00315173 0.00313069 0.00316235 0.00319439 0.00321215 0.0031808 0.00315862 0.00317891 0.00320817 0.00318744 0.00311195 0.00314436
          0.0031728 0.00314135 0.00311242 0.00313808 0.00316427 0.00313723 0.00320428 0.00323322 0.00325852 0.00323163 0.00322924 0.00326745
          0.00328294 0.00324613 0.00321806 0.00323989 0.00327459 0.00325132 0.00326532 0.0033003 0.00332148 0.00328857 0.00326265 0.00328803
          0.00332181 0.00329739 0.00318142 0.00322297 0.00324793 0.00320821 0.00316356 0.00319262 0.00322413 0.00319348 0.00330917 0.00335419
          0.00336547 0.00332262 0.00331615 0.00334692 0.00337688 0.00334819 0.00328761 0.00331293 0.00335683 0.00333099 0.0033381 0.00337929
          0.00339725 0.00335728 0.00333635 0.00336041 0.00340595 0.00338082 0.00327051 0.00332356 0.00334283 0.00329258 0.00338089 0.00342697
          0.00346541 0.00341757 0.00338538 0.00341622 0.00347842 0.00343984 0.00341107 0.00347475 0.00348515 0.00342146 0.00343484 0.00349638
          0.00351241 0.00345345 0.00344185 0.00347177 0.0035453 0.00351259 0.00338332 0.00341347 0.00347943 0.00344432
        </DataArray>
        <DataArray type="Float32" Name="volume Error" NumberOfComponents="1" format="ascii">
          -9.18572e-09 -3.01833e-08 -5.66888e-08 -7.03923e-08 -7.39069e-08 -6.53723e-08 -4.21826e-08 -2.19537e-09 6.11662e-08 4.73701e-08 -1.96084e-08 -4.53277e-08
          -6.74549e-08 -8.1808e-08 -8.79115e-08 -8.19425e-08 -6.00388e-08 -2.32275e-08 2.52159e-08 2.26049e-08 -1.9574e-08 -5.08947e-08 -7.54776e-08 -9.36346e-08
          -1.04088e-07 -1.04586e-07 -8.27532e-08 -4.41913e-08 -1.71476e-10 1.03289e-08 -1.93885e-08 -5.42213e-08 -8.41967e-08 -1.04794e-07 -1.92312e-08 1.59098e-09
          -1.92108e-08 -5.77532e-08 -9.91811e-08 -5.97047e-09 -1.76365e-08 -5.7265e-08 -1.07331e-07 -1.0647e-08 -1.31389e-08 -4.77138e-08 -9.50102e-08 -4.37349e-08
          -1.46044e-08 -5.46865e-09 -3.02172e-08 -7.12168e-08 -1.2046e-05 -1.59265e-07 -4.70569e-08 -1.87304e-08 5.5885e-09 -5.34164e-09 -4.69536e-08 -7.64341e-08
          -7.69639e-08 -6.44648e-08 -4.73293e-08 -2.22373e-08 2.8365e-08 2.84457e-08 -2.5545e-08 -5.75194e-08 -7.32038e-08 -7.52573e-08 -6.89396e-08 -5.69377e-08
          -3.71052e-08 -1.50102e-08 -3.63533e-07 -3.95632e-07 -0.00015266 -0.000149851 -3.65607e-07 -0.000144499 -0.000140739 -7.53763e-06 0.000159587 0.000211449
          0.000259861 0.00021536 0.000215638 -2.88721e-05 0.000102342 0.0002539 0.000207876 0.000248124 7.38908e-05 -6.34635e-05 -3.91977e-07 -1.77604e-07
          -5.8431e-05 -0.000145539 -3.77313e-07 -0.000148081 -4.04197e-05 -2.80109e-08 0.000149011 4.71116e-05 -2.047e-05 3.92634e-05 -0.000106376 -0.000155045
          -0.000102802 -1.17551e-05 -0.000134721 -4.15269e-05 -0.000125652 -0.00021119 -3.78424e-05 -0.000119693 -0.000140663 -8.91987e-05 -4.87866e-05 -8.99809e-05
          -0.000142411 -0.000121269 -2.15806e-06 -2.21872e-06 -4.34635e-05 -1.47547e-05 -3.89978e-06 -3.76736e-05 -3.91724e-05 -3.46368e-06 -0.000269097 -0.000381269
          -0.000613701 -0.000176768 -0.000133422 -0.000223391 -0.000840129 -0.00021977 -0.000344992 -0.000228858 -0.000418007 -0.000212258 -0.000203209 -0.000617126
          -0.000495366 -0.000289525 -0.000219021 -0.000290282 -0.000533975 -0.000551263 -5.78571e-06 -5.82297e-06 -1.33256e-05 1.8119e-05 -0.000749377 -0.000415285
          -7.80382e-07 -0.00068055 -0.000801684 -0.000731897 -3.73615e-08 -0.000543561 -0.000126076 -1.68408e-05 -1.6336e-05 -0.000597215 -0.000502241 -1.16346e-05
          -1.11346e-05 -0.000134872 -0.000385964 -0.000148188 1.43371e-07 1.57141e-07 -8.31019e-06 -0.000163369 -7.82833e-06 -7.84694e-06
        </DataArray>
        <DataArray type="Float32" Name="Error Correction" NumberOfComponents="1" format="ascii">
          0 0 0 0 0 0 0 0 0 0 0 0
          0 0 0 0 0 0 0 0 0 0 0 0
          0 0 0 0 0 0 0 0 0 0 0 0
          0 0 0 0 0 0 0 0 0 0 0 0
          0 0 0 0 0 0 0 0 0 0 0 0
          0 0 0 0 0 0 0 0 0 0 0 0
          0 0 0 0 0 0 0 0 0 0 0 0
          0 0 0 0 0 0 0 0 0 0 0 0
          0 0 0 0 0 0 0 0 0 0 0 0
          0 0 0 0 0 0 0 0 0 0 0 0
          0 0 0 0 0 0 0 0 0 0 0 0
          0 0 0 0 0 0 0 0 0 0 0 0
          0 0 0 0 0 0 0 0 0 0 0 0
          0 0 0 0 0 0 0 0 0 0 0 0
          0 0 0 0 0 0 0 0 0 0
        </DataArray>
        <DataArray type="Float32" Name="dv_dp" NumberOfComponents="1" format="ascii">
          -9.55392e-11 -9.5538e-11 -9.55376e-11 -9.55379e-11 -9.55387e-11 -9.55399e-11 -9.55416e-11 -9.55438e-11 -9.55466e-11 -9.55504e-11 -9.55401e-11 -9.55395e-11
          -9.55394e-11 -9.55398e-11 -9.55406e-11 -9.55418e-11 -9.55435e-11 -9.55455e-11 -9.55481e-11 -9.55512e-11 -9.55405e-11 -9.55405e-11 -9.55408e-11 -9.55413e-11
          -9.55422e-11 -9.55434e-11 -9.55449e-11 -9.55468e-11 -9.55491e-11 -9.55517e-11 -9.55408e-11 -9.55412e-11 -9.55418e-11 -9.55426e-11 -9.55497e-11 -9.55519e-11
          -9.5541e-11 -9.55418e-11 -9.55427e-11 -9.55521e-11 -9.55412e-11 -9.55424e-11 -9.55435e-11 -9.55522e-11 -9.55414e-11 -9.5543e-11 -9.55444e-11 -9.55512e-11
          -9.55524e-11 -9.55417e-11 -9.55437e-11 -9.55455e-11 -9.55418e-11 -9.5551e-11 -9.5552e-11 -9.55527e-11 -9.55422e-11 -9.55448e-11 -9.55469e-11 -9.55485e-11
          -9.55518e-11 -9.55526e-11 -9.55532e-11 -9.55532e-11 -9.55431e-11 -9.55464e-11 -9.55487e-11 -9.55505e-11 -9.55519e-11 -9.5553e-11 -9.55539e-11 -9.55546e-11
          -9.55548e-11 -9.55541e-11 -9.55428e-11 -9.55433e-11 -9.54715e-11 -9.54723e-11 -9.5543e-11 -9.54748e-11 -9.54769e-11 -9.554e-11 -4.68688e-08 -6.11224e-08
          -7.63224e-08 -6.06122e-08 -4.3126e-08 -3.22816e-08 -4.48122e-08 -5.73205e-08 -4.11939e-08 -5.55543e-08 -4.2212e-08 -2.95456e-08 -9.55439e-11 -9.55446e-11
          -9.55177e-11 -9.54755e-11 -9.55439e-11 -9.54742e-11 -9.55262e-11 -9.55445e-11 -5.06267e-08 -4.33966e-08 -3.88044e-08 -4.2445e-08 -2.59196e-08 -2.22453e-08
          -3.0684e-08 -3.63894e-08 -2.26787e-08 -3.31896e-08 -2.69747e-08 -1.87859e-08 -3.71226e-08 -3.2099e-08 -3.05894e-08 -3.45807e-08 -3.56712e-08 -3.41852e-08
          -3.01108e-08 -3.03197e-08 -9.55444e-11 -9.55451e-11 -9.55263e-11 -9.55393e-11 -9.55432e-11 -9.5528e-11 -9.55284e-11 -9.5544e-11 -2.01711e-08 -1.70827e-08
          -2.19186e-08 -2.65485e-08 -3.13842e-08 -2.81657e-08 -2.37338e-08 -2.82209e-08 -1.61237e-08 -2.22463e-08 -1.78265e-08 -9.54578e-11 -2.78786e-08 -2.26734e-08
          -1.96128e-08 -2.66027e-08 -2.58269e-08 -2.63092e-08 -1.99722e-08 -2.05918e-08 -9.55443e-11 -9.55452e-11 -9.55424e-11 -9.55566e-11 -2.2477e-08 -9.5398e-11
          -9.555e-11 -9.5283e-11 -2.31131e-08 -9.52567e-11 -9.55506e-11 -9.53474e-11 -9.55066e-11 -9.55424e-11 -9.55429e-11 -9.53021e-11 -9.53499e-11 -9.55453e-11
          -9.55458e-11 -9.55123e-11 -9.53992e-11 -9.55116e-11 -9.55517e-11 -9.55512e-11 -9.55451e-11 -9.54917e-11 -9.55468e-11 -9.55463e-11
        </DataArray>
        <DataArray type="Float32" Name="dV_dC1" NumberOfComponents="1" format="ascii">
          0.00100022 0.00100022 0.00100022 0.00100022 0.00100022 0.00100022 0.00100022 0.00100023 0.00100023 0.00100024 0.00100022 0.00100022
          0.00100022 0.00100022 0.00100022 0.00100022 0.00100023 0.00100023 0.00100024 0.00100024 0.00100022 0.00100022 0.00100022 0.00100022
          0.00100023 0.00100023 0.00100023 0.00100023 0.00100024 0.00100024 0.00100022 0.00100022 0.00100022 0.00100023 0.00100024 0.00100024
          0.00100022 0.00100022 0.00100023 0.00100024 0.00100022 0.00100023 0.00100023 0.00100024 0.00100022 0.00100023 0.00100023 0.00100024
          0.00100025 0.00100022 0.00100023 0.00100023 0.00100023 0.00100024 0.00100024 0.00100025 0.00100023 0.00100023 0.00100023 0.00100024
          0.00100024 0.00100025 0.00100025 0.00100025 0.00100023 0.00100023 0.00100024 0.00100024 0.00100024 0.00100025 0.00100025 0.00100025
          0.00100025 0.00100025 0.00100023 0.00100023 0.00100023 0.00100023 0.00100023 0.00100023 0.00100023 0.00100023 0.000985248 0.000985249
          0.000985249 0.000985249 0.000985249 0.00098525 0.00098525 0.00098525 0.000985249 0.00098525 0.00098525 0.00098525 0.00100023 0.00100023
          0.00100023 0.00100023 0.00100023 0.00100023 0.00100023 0.00100023 0.00098525 0.000985251 0.000985251 0.000985251 0.000985251 0.000985252
          0.000985252 0.000985251 0.00098525 0.000985251 0.000985252 0.000985251 0.000985252 0.000985252 0.000985253 0.000985252 0.000985252 0.000985252
          0.000985253 0.000985252 0.00100023 0.00100023 0.00100023 0.00100023 0.00100023 0.00100023 0.00100023 0.00100023 0.000985252 0.000985253
          0.000985253 0.000985253 0.000985253 0.000985253 0.000985254 0.000985253 0.000985252 0.000985252 0.000985253 0.00100024 0.000985253 0.000985254
          0.000985254 0.000985253 0.000985253 0.000985253 0.000985254 0.000985254 0.00100023 0.00100024 0.00100024 0.00100024 0.000985254 0.00100024
          0.00100024 0.00100024 0.000985254 0.00100024 0.00100024 0.00100024 0.00100024 0.00100024 0.00100024 0.00100024 0.00100024 0.00100024
          0.00100024 0.00100024 0.00100024 0.00100024 0.00100024 0.00100024 0.00100024 0.00100024 0.00100024 0.00100024
        </DataArray>
        <DataArray type="Float32" Name="dV_dC2" NumberOfComponents="1" format="ascii">
          0.000622208 0.000622206 0.000622205 0.000622207 0.000622208 0.000622209 0.000622211 0.000622213 0.000622216 0.00062222 0.00062221 0.000622208
          0.000622208 0.000622207 0.000622209 0.000622212 0.000622214 0.000622216 0.000622219 0.000622221 0.000622211 0.00062221 0.00062221 0.000622211
          0.000622212 0.000622213 0.000622215 0.000622217 0.00062222 0.000622223 0.00062221 0.000622212 0.000622212 0.000622212 0.00062222 0.000622223
          0.000622211 0.000622211 0.000622211 0.000622223 0.000622211 0.000622212 0.000622212 0.000622224 0.00062221 0.000622212 0.000622214 0.000622222
          0.000622223 0.000622211 0.000622214 0.000622216 0.000622216 0.000622222 0.000622223 0.000622227 0.000622213 0.000622214 0.000622217 0.00062222
          0.000622223 0.000622224 0.000622226 0.000622224 0.000622212 0.000622215 0.000622219 0.000622222 0.000622223 0.000622224 0.000622227 0.000622225
          0.000622225 0.000622224 0.000622212 0.000622213 0.000622214 0.000622213 0.000622212 0.000622213 0.000622214 0.000622212 0.332449 0.334917
          0.336998 0.334764 0.33816 0.341645 0.343555 0.340133 0.337772 0.339935 0.343135 0.340915 0.000622214 0.000622214
          0.000622215 0.000622214 0.000622214 0.000622214 0.000622214 0.000622214 0.34269 0.345863 0.348662 0.345696 0.345458 0.34966
          0.351352 0.347286 0.344276 0.346624 0.350457 0.347952 0.349403 0.353282 0.355676 0.352001 0.349124 0.351954
          0.35575 0.352983 0.000622215 0.000622216 0.000622217 0.000622216 0.000622214 0.000622215 0.000622217 0.000622216 0.354272 0.359146
          0.360631 0.355775 0.355125 0.358618 0.362209 0.358818 0.351956 0.354704 0.359529 0.000622219 0.357505 0.36214
          0.364039 0.359683 0.357326 0.360098 0.365004 0.362238 0.000622217 0.000622218 0.000622219 0.000622218 0.362412 0.000622221
          0.000622221 0.00062222 0.363131 0.170402 0.000622222 0.000622221 0.00062222 0.000622221 0.000622222 0.00062222 0.000622221 0.000622222
          0.000622222 0.000622221 0.000622221 0.000622221 0.000622222 0.000622223 0.00062222 0.00062222 0.00062222 0.000622221
        </DataArray>
        <DataArray type="Float32" Name="updEstimate comp 1" NumberOfComponents="1" format="ascii">
          -5.14625e-07 -1.51027e-06 -2.48274e-06 -3.16362e-06 -3.50734e-06 -3.43182e-06 -2.88741e-06 -1.88566e-06 -4.31322e-07 1.60698e-07 -6.56746e-07 -1.75822e-06
          -2.74346e-06 -3.50864e-06 -3.94683e-06 -3.91718e-06 -3.34912e-06 -2.29938e-06 -9.34107e-07 -1.54978e-07 -6.87347e-07 -1.95274e-06 -3.1073e-06 -4.16475e-06
          -4.9618e-06 -4.93119e-06 -4.2119e-06 -2.89914e-06 -1.33592e-06 -3.15648e-07 -7.19882e-07 -2.13081e-06 -3.54396e-06 -6.10025e-06 -2.1096e-06 -3.96392e-07
          -7.32819e-07 -2.24581e-06 -3.92647e-06 -6.7843e-07 -6.97732e-07 -2.20159e-06 -3.97754e-06 -2.941e-07 -5.97033e-07 -1.94616e-06 -3.59215e-06 -9.75648e-07
          -2.35235e-08 -4.3518e-07 -1.51101e-06 -2.84057e-06 -0.00137293 -3.73424e-06 -5.36023e-07 -1.77353e-07 -2.28105e-07 -9.64262e-07 -2.04723e-06 -2.95439e-06
          9.71667e-08 -3.5653e-07 -3.71917e-07 -2.06757e-07 1.09692e-07 -3.5289e-07 -1.31702e-06 -1.54264e-06 -4.30313e-07 3.82536e-07 3.39077e-07 -5.5762e-08
          -1.49064e-07 -9.70062e-08 -8.41406e-06 -1.22886e-05 0.00122609 0.00144259 -5.22179e-06 0.00127983 0.00126959 -5.41827e-06 0.0402221 0.02349
          -0.0223276 0.0283445 0.00704606 0.00613619 -0.036387 -0.0430364 0.0168598 -0.0343707 -0.0237563 0.0156453 -9.64195e-06 -8.04082e-06
          -0.000709234 0.000312697 -5.56643e-06 0.000775174 -0.000572636 -5.38038e-06 -0.0515546 -0.0542301 -0.0548184 -0.0488929 0.00430104 0.00503434
          -0.0307911 -0.0327475 0.0127713 -0.0176279 -0.01523 0.0168406 -0.0512358 -0.0486703 -0.0542173 -0.0544323 -0.0425622 -0.0513886