<?xml version="1.0"?>
<VTKFile type="UnstructuredGrid" version="0.1" byte_order="LittleEndian">
  <UnstructuredGrid>
    <Piece NumberOfCells="3200" NumberOfPoints="1681">
      <PointData Scalars="p">
        <DataArray type="Float32" Name="p" NumberOfComponents="1" format="ascii">
          0.024375 0.024375 0 -2.61394e-16 0.0477124 0.0241626 0.0475 0.0696852 0.0693754 0.0475 0.0694056 -3.55355e-16
          0.0240648 -3.76067e-07 0.0474694 0.069375 0.0903628 0.0900004 0.109747 0.109375 0.0900723 0.109462 0.127849 0.1275
          0.14468 0.12759 0.0900751 0.10948 0.12762 0.144456 0.144493 -1.01986e-15 0.0240121 0.0474277 0.0240032 -1.42179e-15
          0.0474131 0.0692999 0.06927 0.0240254 -1.56934e-15 0.0474105 0.0240702 0.0692548 0.0474187 0.0692567 0.09 0.109398
          0.0899768 0.109375 0.127543 0.144423 0.127526 0.144411 0.0899571 0.109349 0.0899517 0.109339 0.1275 0.144386
          0.127489 0.144375 0.160245 0.160001 0.160066 0.17455 0.174376 0.1876 0.187501 0.17442 0.187521 0.160105
          0.174457 0.187554 0.199399 0.199375 0.209949 0.199371 0.21 0.219252 0.219375 0.209969 0.219319 0.199397
          0.209989 0.21933 0.160046 0.160039 0.174411 0.187522 0.17441 0.187525 0.160017 0.144375 0.160008 0.174391
          0.187512 0.174385 0.187509 0.19938 0.209986 0.199387 0.209996 0.219342 0.219354 0.199379 0.209995 0.199379
          0.219358 0.209997 0.219364 -1.34703e-15 0.0241303 -5.41308e-07 0.0474342 0.0692703 -2.07422e-15 0.0242 0.0474549 0.0242746
          -2.62515e-15 0.0474788 0.0692926 0.0693208 0.0899542 0.109336 0.127483 0.144367 0.0899636 0.10934 0.0899775 0.10935
          0.127484 0.144365 0.127488 0.144366 0.0243509 -2.66099e-15 0.0475045 0.0244262 0.0693525 0.0475306 0.0693859 -2.124e-15
          0.0244983 -3.93541e-07 0.0475562 0.0694195 0.0899947 0.109363 0.0900136 0.109379 0.127496 0.144371 0.127505 0.0900333
          0.109396 0.127517 0.144378 0.144386 0.16 0.174378 0.187503 0.159997 0.159997 0.174375 0.187501 0.174374
          0.1875 0.199376 0.209997 0.219367 0.199375 0.209998 0.199375 0.209998 0.219369 0.219371 0.159999 0.160003
          0.174375 0.1875 0.174377 0.187502 0.160008 0.174381 0.187504 0.199375 0.209999 0.199376 0.219372 0.21
          0.219374 0.199378 0.210001 0.219375 0.227309 0.2275 0.234123 0.234375 0.22742 0.234272 0.239693 0.24
          0.244021 0.239877 0.227423 0.234267 0.239864 0.244235 0.244215 0.244375 0.247107 0.2475 0.247346 0.248951
          0.249375 0.249554 0.25 0.24921 0.249828 0.247319 0.249177 0.249789 0.227447 0.234303 0.227462 0.23432
          0.239911 0.244271 0.239929 0.24429 0.227472 0.234335 0.22748 0.234346 0.239948 0.244313 0.239962 0.247383
          0.247402 0.249248 0.249865 0.249267 0.249884 0.247429 0.244329 0.247446 0.249297 0.249916 0.249315 0.249935
          0.248915 0.249375 0.247034 0.249199 0.2475 0.243911 0.244375 0.247323 0.244201 0.249156 0.247277 0.244152
          0.239547 0.24 0.23394 0.234375 0.239832 0.234215 0.22709 0.2275 0.218996 0.227352 0.239781 0.234165
          0.227301 0.219241 0.219192 0.249235 0.247359 0.249254 0.247376 0.244234 0.244251 0.249287 0.24741 0.249306
          0.244285 0.247429 0.244304 0.239863 0.234244 0.239878 0.234258 0.227378 0.219264 0.22739 0.219274 0.239912
          0.234291 0.23993 0.234308 0.227421 0.219303 0.227438 0.227486 0.234354 0.239973 0.244341 0.22749 0.23436
          0.227493 0.234365 0.239981 0.244351 0.239986 0.244358 0.247461 0.249331 0.249952 0.247472 0.24748 0.249343
          0.249965 0.249352 0.249975 0.227495 0.234368 0.227497 0.234371 0.239991 0.244363 0.239994 0.227499 0.234372
          0.239996 0.244367 0.24437 0.247486 0.24749 0.249359 0.249982 0.249364 0.249988 0.247494 0.249368 0.249992
          0.249324 0.247448 0.244323 0.249338 0.247461 0.249348 0.247472 0.244336 0.244347 0.239949 0.234326 0.227455
          0.219319 0.219335 0.239962 0.234339 0.239973 0.23435 0.227467 0.219347 0.227478 0.219357 0.249356 0.24748
          0.249362 0.244356 0.247487 0.244362 0.249366 0.247491 0.244367 0.239981 0.234358 0.239988 0.234364 0.227486
          0.219364 0.227492 0.239992 0.234369 0.227497 0.21937 0.219375 -2.67504e-15 0.0245657 0.0475805 0.024627 -3.23725e-15
          0.0476028 0.0694521 0.0694827 0.0246816 -3.13696e-15 0.0476228 0.0247286 0.0695106 0.0476399 0.0695352 0.0900529 0.109413
          0.0900715 0.10943 0.127528 0.144395 0.12754 0.144404 0.0900887 0.109446 0.0901039 0.10946 0.127552 0.144413
          0.127562 -2.39857e-15 0.0247677 -7.80788e-08 0.0476539 0.0695561 -2.61897e-15 0.0247986 0.0476647 0.0248211 -3.05242e-15 0.0476721
          0.0695729 0.0695857 0.0901168 0.109473 0.127571 0.144421 0.144429 0.0901271 0.109483 0.0901347 0.109491 0.127578
          0.144435 0.127584 0.14444 0.160014 0.160021 0.174385 0.187507 0.17439 0.18751 0.160027 0.160034 0.174395
          0.187514 0.174399 0.187517 0.19938 0.210003 0.199382 0.210004 0.219376 0.219378 0.199384 0.210006 0.199387
          0.219379 0.210008 0.21938 0.160039 0.174403 0.18752 0.160044 0.160048 0.174407 0.187523 0.17441 0.187525
          0.199389 0.21001 0.219381 0.199391 0.210011 0.199393 0.210012 0.219382 0.219383 0.0248352 -2.83991e-15 0.0476761
          0.024841 0.0695941 0.0476767 0.0695982 -2.08286e-15 0.0248385 2.6882e-07 0.0476741 0.069598 0.0901395 0.109496 0.0901415
          0.109499 0.127588 0.144444 0.12759 0.0901406 0.109499 0.12759 0.144446 0.144446 -1.93512e-15 0.0248282 0.0476683
          0.0248103 -2.14673e-15 0.0476595 0.0695937 0.0695855 0.0247853 -1.8862e-15 0.0476479 0.0247538 0.0695736 0.047634 0.0695584
          0.0901369 0.109497 0.0901306 0.109492 0.127588 0.144445 0.127584 0.144442 0.090122 0.109485 0.0901112 0.109476
          0.127579 0.144437 0.127572 0.160051 0.160052 0.174412 0.187527 0.174414 0.187528 0.160052 0.174414 0.187528
          0.199394 0.210013 0.199395 0.219384 0.210013 0.219384 0.199394 0.210013 0.219383 0.160051 0.160049 0.174413
          0.187527 0.174411 0.187525 0.160045 0.144431 0.16004 0.174408 0.187522 0.174403 0.187518 0.199394 0.210012
          0.199392 0.210011 0.219383 0.219381 0.199389 0.210008 0.199386 0.219378 0.210005 0.219375 0.2275 0.234374
          0.227501 0.234375 0.239998 0.244372 0.239999 0.244373 0.227502 0.234376 0.227503 0.234377 0.24 0.244374
          0.240001 0.247496 0.247498 0.24937 0.249995 0.249372 0.249997 0.247499 0.244375 0.2475 0.249373 0.249998
          0.249374 0.249999 0.227504 0.234377 0.240001 0.244375 0.227505 0.234378 0.227505 0.234378 0.240002 0.244376
          0.240002 0.244376 0.2475 0.249375 0.25 0.2475 0.2475 0.249375 0.25 0.249375 0.25 0.249369
          0.247495 0.249372 0.247497 0.24437 0.244372 0.249373 0.247498 0.249374 0.244374 0.247499 0.244375 0.239996
          0.234373 0.239998 0.234375 0.2275 0.219378 0.227502 0.219381 0.24 0.234377 0.240001 0.234378 0.227504
          0.219383 0.227505 0.249375 0.2475 0.244376 0.249375 0.2475 0.249375 0.2475 0.244376 0.244376 0.240002
          0.234378 0.227505 0.219383 0.219384 0.240002 0.234378 0.240002 0.234378 0.227506 0.219384 0.227505 0.219383
          0.227506 0.234378 0.227505 0.234378 0.240002 0.244376 0.240002 0.227505 0.234378 0.240001 0.244376 0.244375
          0.2475 0.2475 0.249375 0.25 0.249375 0.25 0.247499 0.249374 0.249999 0.227504 0.234377 0.227502
          0.234375 0.24 0.244374 0.239998 0.244372 0.2275 0.234373 0.227497 0.234369 0.239996 0.24437 0.239992
          0.247498 0.247497 0.249373 0.249998 0.249372 0.249997 0.247495 0.244367 0.247491 0.249369 0.249995 0.249366
          0.249992 0.249375 0.2475 0.249375 0.244376 0.2475 0.244375 0.249374 0.2475 0.244375 0.240002 0.234378
          0.240001 0.234377 0.227505 0.219382 0.227504 0.240001 0.234377 0.227503 0.219381 0.21938 0.249373 0.247499
          0.249372 0.247498 0.244374 0.244373 0.24937 0.247496 0.249368 0.244372 0.247494 0.24437 0.24 0.234376
          0.239999 0.234375 0.227502 0.219379 0.227501 0.219378 0.239998 0.234374 0.239996 0.234372 0.2275 0.219376
          0.227499 0.219375 0.209659 0.209999 0.209882 0.199076 0.199374 0.187247 0.187499 0.199274 0.187418 0.209835
          0.19923 0.187377 0.174171 0.174375 0.159845 0.174312 0.16 0.144269 0.144374 0.159955 0.144347 0.174275
          0.159923 0.14432 0.209901 0.209909 0.19929 0.18743 0.199296 0.187435 0.209937 0.209951 0.199322 0.187457
          0.199334 0.187468 0.174321 0.15996 0.174323 0.159962 0.14435 0.144351 0.174343 0.159979 0.174353 0.144366
          0.159988 0.144375 0.127439 0.1275 0.109354 0.109375 0.127486 0.109372 0.0900096 0.09 0.0693992 0.0900021
          0.127465 0.109358 0.0899922 0.0693764 0.069375 0.069375 0.0475352 0.0474998 0.0475 0.024375 0.0243749 9.31879e-17
          0 0.0243398 2.31062e-16 0.0474985 0.0243508 3.89421e-16 0.127486 0.109373 0.127487 0.109375 0.09 0.0693828
          0.0900024 0.0693925 0.1275 0.109388 0.127509 0.109399 0.0900142 0.0694104 0.0900252 0.0474978 0.0475029 0.0243655
          5.81005e-16 0.0243964 7.98225e-16 0.0475143 0.0694295 0.047528 0.0244359 1.04462e-15 0.024481 1.25082e-15 0.209966 0.199348
          0.187481 0.209977 0.209987 0.199358 0.187491 0.199368 0.1875 0.174366 0.16 0.144387 0.174375 0.160009
          0.174384 0.160019 0.144397 0.144407 0.209994 0.21 0.199375 0.187507 0.199381 0.187513 0.210005 0.199386
          0.187518 0.174392 0.160027 0.174398 0.144416 0.160034 0.144424 0.174403 0.16004 0.144431 0.127521 0.109413
          0.0900398 0.0694521 0.127532 0.109427 0.127543 0.10944 0.0900544 0.0694749 0.0900698 0.069498 0.0475451 0.0245299
          1.35574e-15 0.0475632 0.047582 0.0245794 1.44212e-15 0.0246282 1.72318e-15 0.127553 0.109454 0.127563 0.109466 0.0900846
          0.06952 0.0900986 0.127572 0.109476 0.0901112 0.0695404 0.0695584 0.0476005 0.047618 0.0246742 2.0634e-15 0.0247165
          2.24433e-15 0.047634 0.0247538 2.18034e-15 0.210008 0.210011 0.199389 0.187522 0.199392 0.187525 0.210012 0.210013
          0.199394 0.187527 0.199394 0.187528 0.174408 0.160045 0.174411 0.160049 0.144437 0.144442 0.174413 0.160051
          0.174414 0.144445 0.160052 0.144446 0.210013 0.199395 0.187528 0.210013 0.210012 0.199394 0.187527 0.199393
          0.187525 0.174414 0.160052 0.144446 0.174412 0.160051 0.17441 0.160048 0.144444 0.14444 0.127579 0.109485
          0.127584 0.109492 0.090122 0.0695736 0.0901306 0.0695855 0.127588 0.109497 0.12759 0.109499 0.0901369 0.0695937
          0.0901406 0.0476479 0.0476595 0.0247853 2.03492e-15 0.0248103 2.29865e-15 0.0476683 0.069598 0.0476741 0.0248282 2.66213e-15
          0.0248386 2.76164e-15 0.12759 0.109499 0.0901415 0.0695982 0.127588 0.109496 0.127584 0.109491 0.0901395 0.0695941
          0.0901347 0.0695857 0.0476767 0.024841 2.51363e-15 0.0476761 0.0476721 0.0248352 2.13721e-15 0.0248211 2.31447e-15 0.210011
          0.21001 0.199391 0.187523 0.199389 0.18752 0.210008 0.199387 0.187517 0.174407 0.160044 0.174403 0.144435
          0.160039 0.144429 0.174399 0.160034 0.144421 0.210006 0.210004 0.199384 0.187514 0.199382 0.18751 0.210003
          0.219375 0.210001 0.19938 0.187507 0.199378 0.187504 0.174395 0.160027 0.17439 0.160021 0.144413 0.144404
          0.174385 0.160014 0.174381 0.144395 0.160008 0.144386 0.127578 0.109483 0.127571 0.109473 0.0901271 0.0695729
          0.0901168 0.127562 0.10946 0.0901039 0.0695561 0.0695352 0.0476647 0.0476539 0.0247986 2.61729e-15 0.0247677 2.61098e-15
          0.0476399 0.0247286 2.23736e-15 0.127552 0.109446 0.12754 0.10943 0.0900887 0.0695106 0.0900715 0.0694827 0.127528
          0.109413 0.127517 0.109396 0.0900529 0.0694521 0.0900333 0.0476228 0.0476029 0.0246815 1.72154e-15 0.024627 1.77441e-15
          0.0475805 0.0694195 0.0475562 0.0245656 1.95248e-15 0.0244982 1.8539e-15 -1.29933e-15 0.0247165 5.14701e-07 0.047618 0.0695404
          -8.95268e-16 0.0246741 0.0476005 0.0246281 -8.86507e-16 0.0475821 0.06952 0.069498 0.0900986 0.109466 0.127563 0.144424
          0.0900846 0.109454 0.0900698 0.10944 0.127553 0.144416 0.127543 0.144407 0.0245794 -6.71437e-16 0.0475632 0.0245299
          0.0694749 0.0475451 0.0694521 -3.83485e-16 0.024481 5.30632e-07 0.047528 0.0694295 0.0900544 0.109427 0.0900398 0.109413
          0.127532 0.144397 0.127521 0.0900252 0.109399 0.127509 0.144387 0.144375 0.160034 0.174398 0.187513 0.160027
          0.160019 0.174392 0.187507 0.174384 0.1875 0.199381 0.21 0.21937 0.199375 0.209994 0.199368 0.209987
          0.219364 0.219357 0.160009 0.16 0.174375 0.187491 0.174366 0.187481 0.159988 0.174353 0.187468 0.199358
          0.209977 0.199348 0.219347 0.209966 0.219335 0.199334 0.209951 0.219319 -1.41786e-17 0.0244358 0.0475143 0.0243964
          6.80054e-17 0.0475029 0.0694104 0.0693925 0.0243655 1.28031e-16 0.0474978 0.0243508 0.0693828 0.0474985 0.069375 0.0900142
          0.109388 0.0900024 0.109375 0.1275 0.144366 0.127487 0.144351 0.09 0.109373 0.0899922 0.109358 0.127486
          0.14435 0.127465 1.02592e-16 0.0243398 1.95049e-07 0.0475 0.0693765 -3.28049e-17 0.024375 0.0475352 0.024375 0
          0.0475 0.0693992 0.069375 0.0900022 0.109372 0.127486 0.14432 0.144347 0.0900095 0.109354 0.09 0.109375
          0.127439 0.144269 0.1275 0.144375 0.159979 0.159962 0.174343 0.187457 0.174323 0.187435 0.15996 0.159923
          0.174321 0.18743 0.174275 0.187377 0.199322 0.209937 0.199296 0.209909 0.219303 0.219274 0.19929 0.209901
          0.19923 0.219264 0.209835 0.219192 0.159955 0.174312 0.187418 0.159845 0.16 0.174171 0.187247 0.174375
          0.1875 0.199275 0.209882 0.219241 0.199076 0.209658 0.199375 0.21 0.218996 0.219375 0.227492 0.234364
          0.239988 0.244362 0.227486 0.234358 0.227478 0.23435 0.239981 0.244356 0.239973 0.244347 0.247487 0.249362
          0.249988 0.24748 0.247472 0.249356 0.249982 0.249348 0.249975 0.227467 0.234339 0.227455 0.234326 0.239962
          0.244336 0.239949 0.227438 0.234308 0.23993 0.244323 0.244304 0.247461 0.247448 0.249338 0.249965 0.249324
          0.249952 0.247429 0.249306 0.249935 0.249364 0.24749 0.244367 0.249359 0.247486 0.249352 0.24748 0.244363
          0.244358 0.239994 0.234371 0.227497 0.219374 0.239991 0.234368 0.239986 0.234365 0.227495 0.219372 0.227493
          0.219371 0.249343 0.247472 0.249331 0.244351 0.247461 0.244341 0.249315 0.247446 0.244329 0.239981 0.23436
          0.239973 0.234354 0.22749 0.219369 0.227486 0.239962 0.234346 0.22748 0.219367 0.219364 0.227421 0.234291
          0.22739 0.234258 0.239912 0.244285 0.239878 0.244251 0.227378 0.234244 0.227301 0.234165 0.239863 0.244234
          0.239781 0.24741 0.247376 0.249287 0.249916 0.249254 0.249884 0.247359 0.244152 0.247277 0.249235 0.249865
          0.249156 0.249789 0.227352 0.234216 0.239832 0.244201 0.22709 0.23394 0.2275 0.234375 0.239547 0.243911
          0.24 0.244375 0.247323 0.249199 0.249828 0.247034 0.2475 0.248915 0.249554 0.249375 0.25 0.249297
          0.247429 0.249267 0.247402 0.244313 0.24429 0.249248 0.247383 0.249177 0.244271 0.247319 0.244215 0.239948
          0.234335 0.239929 0.23432 0.227472 0.219358 0.227462 0.219354 0.239911 0.234303 0.239864 0.234267 0.227447
          0.219342 0.227423 0.24921 0.247346 0.244235 0.248951 0.247107 0.249375 0.2475 0.244021 0.244375 0.239877
          0.234272 0.227419 0.21933 0.219319 0.239693 0.234123 0.24 0.234375 0.227309 0.219252 0.2275 0.219375
          0.21 0.199376 0.187502 0.209999 0.209998 0.199375 0.1875 0.199375 0.1875 0.174377 0.160003 0.144378
          0.174375 0.159999 0.174374 0.159997 0.144371 0.144366 0.209998 0.209997 0.199375 0.187501 0.199376 0.187503
          0.209997 0.199379 0.187509 0.174375 0.159997 0.174378 0.144365 0.16 0.144367 0.174385 0.160008 0.144375
          0.127505 0.109379 0.0900136 0.0693859 0.127496 0.109363 0.127488 0.10935 0.0899947 0.0693525 0.0899775 0.0693208
          0.0475306 0.0244261 1.45965e-15 0.0475045 0.0474788 0.0243509 9.4841e-16 0.0242746 8.90314e-16 0.127484 0.10934 0.127483
          0.109336 0.0899636 0.0692926 0.0899542 0.127489 0.109339 0.0899517 0.0692703 0.0692567 0.0474549 0.0474342 0.0241999
          9.32835e-16 0.0241303 7.99603e-16 0.0474187 0.0240702 5.09369e-16 0.209995 0.209996 0.199379 0.187512 0.199387 0.187525
          0.209986 0.209989 0.19938 0.187522 0.199397 0.187554 0.174391 0.160017 0.17441 0.160039 0.144386 0.144411
          0.174411 0.160046 0.174457 0.144423 0.160105 0.144493 0.209969 0.199371 0.187521 0.209949 0.21 0.199399
          0.1876 0.199375 0.1875 0.17442 0.160066 0.144456 0.17455 0.160245 0.174375 0.16 0.14468 0.144375
          0.1275 0.109349 0.127526 0.109375 0.0899571 0.0692547 0.0899768 0.06927 0.127543 0.109398 0.12762 0.10948
          0.09 0.0692999 0.0900751 0.0474105 0.0474131 0.0240254 1.61052e-16 0.0240032 7.59193e-17 0.0474277 0.069375 0.0474694
          0.0240121 5.975e-17 0.0240648 5.02977e-18 0.127589 0.109462 0.0900723 0.0694056 0.12785 0.109747 0.1275 0.109375
          0.0903629 0.0696852 0.09 0.069375 0.0475 0.0241626 -5.40085e-17 0.0477124 0.0475 0.024375 -6.6482e-17 0.024375
          0
        </DataArray>
        <DataArray type="Float32" Name="rho" NumberOfComponents="1" format="ascii">
          1 1 1 1 1 1 1 1 1 1 1 1
          1 1 1 1 1 1 1 1 1 1 1 1
          1 1 1 1 1 1 1 1 1 1 1 1
          1 1 1 1 1 1 1 1 1 1 1 1
          1 1 1 1 1 1 1 1 1 1 1 1
          1 1 1 1 1 1 1 1 1 1 1 1
          1 1 1 1 1 1 1 1 1 1 1 1
          1 1 1 1 1 1 1 1 1 1 1 1
          1 1 1 1 1 1 1 1 1 1 1 1
          1 1 1 1 1 1 1 1 1 1 1 1
          1 1 1 1 1 1 1 1 1 1 1 1
          1 1 1 1 1 1 1 1 1 1 1 1
          1 1 1 1 1 1 1 1 1 1 1 1
          1 1 1 1 1 1 1 1 1 1 1 1
          1 1 1 1 1 1 1 1 1 1 1 1
          1 1 1 1 1 1 1 1 1 1 1 1
          1 1 1 1 1 1 1 1 1 1 1 1
          1 1 1 1 1 1 1 1 1 1 1 1
          1 1 1 1 1 1 1 1 1 1 1 1
          1 1 1 1 1 1 1 1 1 1 1 1
          1 1 1 1 1 1 1 1 1 1 1 1
          1 1 1 1 1 1 1 1 1 1 1 1
          1 1 1 1 1 1 1 1 1 1 1 1
          1 1 1 1 1 1 1 1 1 1 1 1
          1 1 1 1 1 1 1 1 1 1 1 1
          1 1 1 1 1 1 1 1 1 1 1 1
          1 1 1 1 1 1 1 1 1 1 1 1
          1 1 1 1 1 1 1 1 1 1 1 1
          1 1 1 1 1 1 1 1 1 1 1 1
          1 1 1 1 1 1 1 1 1 1 1 1
          1 1 1 1 1 1 1 1 1 1 1 1
          1 1 1 1 1 1 1 1 1 1 1 1
          1 1 1 1 1 1 1 1 1 1 1 1
          1 1 1 1 1 1 1 1 1 1 1 1
          1 1 1 1 1 1 1 1 1 1 1 1
          1 1 1 1 1 1 1 1 1 1 1 1
          1 1 1 1 1 1 1 1 1 1 1 1
          1 1 1 1 1 1 1 1 1 1 1 1
          1 1 1 1 1 1 1 1 1 1 1 1
          1 1 1 1 1 1 1 1 1 1 1 1
          1 1 1 1 1 1 1 1 1 1 1 1
          1 1 1 1 1 1 1 1 1 1 1 1
          1 1 1 1 1 1 1 1 1 1 1 1
          1 1 1 1 1 1 1 1 1 1 1 1
          1 1 1 1 1 1 1 1 1 1 1 1
          1 1 1 1 1 1 1 1 1 1 1 1
          1 1 1 1 1 1 1 1 1 1 1 1
          1 1 1 1 1 1 1 1 1 1 1 1
          1 1 1 1 1 1 1 1 1 1 1 1
          1 1 1 1 1 1 1 1 1 1 1 1
          1 1 1 1 1 1 1 1 1 1 1 1
          1 1 1 1 1 1 1 1 1 1 1 1
          1 1 1 1 1 1 1 1 1 1 1 1
          1 1 1 1 1 1 1 1 1 1 1 1
          1 1 1 1 1 1 1 1 1 1 1 1
          1 1 1 1 1 1 1 1 1 1 1 1
          1 1 1 1 1 1 1 1 1 1 1 1
          1 1 1 1 1 1 1 1 1 1 1 1
          1 1 1 1 1 1 1 1 1 1 1 1
          1 1 1 1 1 1 1 1 1 1 1 1
          1 1 1 1 1 1 1 1 1 1 1 1
          1 1 1 1 1 1 1 1 1 1 1 1
          1 1 1 1 1 1 1 1 1 1 1 1
          1 1 1 1 1 1 1 1 1 1 1 1
          1 1 1 1 1 1 1 1 1 1 1 1
          1 1 1 1 1 1 1 1 1 1 1 1
          1 1 1 1 1 1 1 1 1 1 1 1
          1 1 1 1 1 1 1 1 1 1 1 1
          1 1 1 1 1 1 1 1 1 1 1 1
          1 1 1 1 1 1 1 1 1 1 1 1
          1 1 1 1 1 1 1 1 1 1 1 1
          1 1 1 1 1 1 1 1 1 1 1 1
          1 1 1 1 1 1 1 1 1 1 1 1
          1 1 1 1 1 1 1 1 1 1 1 1
          1 1 1 1 1 1 1 1 1 1 1 1
          1 1 1 1 1 1 1 1 1 1 1 1
          1 1 1 1 1 1 1 1 1 1 1 1
          1 1 1 1 1 1 1 1 1 1 1 1
          1 1 1 1 1 1 1 1 1 1 1 1
          1 1 1 1 1 1 1 1 1 1 1 1
          1 1 1 1 1 1 1 1 1 1 1 1
          1 1 1 1 1 1 1 1 1 1 1 1
          1 1 1 1 1 1 1 1 1 1 1 1
          1 1 1 1 1 1 1 1 1 1 1 1
          1 1 1 1 1 1 1 1 1 1 1 1
          1 1 1 1 1 1 1 1 1 1 1 1
          1 1 1 1 1 1 1 1 1 1 1 1
          1 1 1 1 1 1 1 1 1 1 1 1
          1 1 1 1 1 1 1 1 1 1 1 1
          1 1 1 1 1 1 1 1 1 1 1 1
          1 1 1 1 1 1 1 1 1 1 1 1
          1 1 1 1 1 1 1 1 1 1 1 1
          1 1 1 1 1 1 1 1 1 1 1 1
          1 1 1 1 1 1 1 1 1 1 1 1
          1 1 1 1 1 1 1 1 1 1 1 1
          1 1 1 1 1 1 1 1 1 1 1 1
          1 1 1 1 1 1 1 1 1 1 1 1
          1 1 1 1 1 1 1 1 1 1 1 1
          1 1 1 1 1 1 1 1 1 1 1 1
          1 1 1 1 1 1 1 1 1 1 1 1
          1 1 1 1 1 1 1 1 1 1 1 1
          1 1 1 1 1 1 1 1 1 1 1 1
          1 1 1 1 1 1 1 1 1 1 1 1
          1 1 1 1 1 1 1 1 1 1 1 1
          1 1 1 1 1 1 1 1 1 1 1 1
          1 1 1 1 1 1 1 1 1 1 1 1
          1 1 1 1 1 1 1 1 1 1 1 1
          1 1 1 1 1 1 1 1 1 1 1 1
          1 1 1 1 1 1 1 1 1 1 1 1
          1 1 1 1 1 1 1 1 1 1 1 1
          1 1 1 1 1 1 1 1 1 1 1 1
          1 1 1 1 1 1 1 1 1 1 1 1
          1 1 1 1 1 1 1 1 1 1 1 1
          1 1 1 1 1 1 1 1 1 1 1 1
          1 1 1 1 1 1 1 1 1 1 1 1
          1 1 1 1 1 1 1 1 1 1 1 1
          1 1 1 1 1 1 1 1 1 1 1 1
          1 1 1 1 1 1 1 1 1 1 1 1
          1 1 1 1 1 1 1 1 1 1 1 1
          1 1 1 1 1 1 1 1 1 1 1 1
          1 1 1 1 1 1 1 1 1 1 1 1
          1 1 1 1 1 1 1 1 1 1 1 1
          1 1 1 1 1 1 1 1 1 1 1 1
          1 1 1 1 1 1 1 1 1 1 1 1
          1 1 1 1 1 1 1 1 1 1 1 1
          1 1 1 1 1 1 1 1 1 1 1 1
          1 1 1 1 1 1 1 1 1 1 1 1
          1 1 1 1 1 1 1 1 1 1 1 1
          1 1 1 1 1 1 1 1 1 1 1 1
          1 1 1 1 1 1 1 1 1 1 1 1
          1 1 1 1 1 1 1 1 1 1 1 1
          1 1 1 1 1 1 1 1 1 1 1 1
          1 1 1 1 1 1 1 1 1 1 1 1
          1 1 1 1 1 1 1 1 1 1 1 1
          1 1 1 1 1 1 1 1 1 1 1 1
          1 1 1 1 1 1 1 1 1 1 1 1
          1 1 1 1 1 1 1 1 1 1 1 1
          1 1 1 1 1 1 1 1 1 1 1 1
          1 1 1 1 1 1 1 1 1 1 1 1
          1 1 1 1 1 1 1 1 1 1 1 1
          1
        </DataArray>
        <DataArray type="Float32" Name="pressureExact" NumberOfComponents="1" format="ascii">
          0.024375 0.024375 0 0 0.0475 0.024375 0.0475 0.069375 0.069375 0.0475 0.069375 0
          0.024375 0 0.0475 0.069375 0.09 0.09 0.109375 0.109375 0.09 0.109375 0.1275 0.1275
          0.144375 0.1275 0.09 0.109375 0.1275 0.144375 0.144375 0 0.024375 0.0475 0.024375 0
          0.0475 0.069375 0.069375 0.024375 0 0.0475 0.024375 0.069375 0.0475 0.069375 0.09 0.109375
          0.09 0.109375 0.1275 0.144375 0.1275 0.144375 0.09 0.109375 0.09 0.109375 0.1275 0.144375
          0.1275 0.144375 0.16 0.16 0.16 0.174375 0.174375 0.1875 0.1875 0.174375 0.1875 0.16
          0.174375 0.1875 0.199375 0.199375 0.21 0.199375 0.21 0.219375 0.219375 0.21 0.219375 0.199375
          0.21 0.219375 0.16 0.16 0.174375 0.1875 0.174375 0.1875 0.16 0.144375 0.16 0.174375
          0.1875 0.174375 0.1875 0.199375 0.21 0.199375 0.21 0.219375 0.219375 0.199375 0.21 0.199375
          0.219375 0.21 0.219375 0 0.024375 0 0.0475 0.069375 0 0.024375 0.0475 0.024375
          0 0.0475 0.069375 0.069375 0.09 0.109375 0.1275 0.144375 0.09 0.109375 0.09 0.109375
          0.1275 0.144375 0.1275 0.144375 0.024375 0 0.0475 0.024375 0.069375 0.0475 0.069375 0
          0.024375 0 0.0475 0.069375 0.09 0.109375 0.09 0.109375 0.1275 0.144375 0.1275 0.09
          0.109375 0.1275 0.144375 0.144375 0.16 0.174375 0.1875 0.16 0.16 0.174375 0.1875 0.174375
          0.1875 0.199375 0.21 0.219375 0.199375 0.21 0.199375 0.21 0.219375 0.219375 0.16 0.16
          0.174375 0.1875 0.174375 0.1875 0.16 0.174375 0.1875 0.199375 0.21 0.199375 0.219375 0.21
          0.219375 0.199375 0.21 0.219375 0.2275 0.2275 0.234375 0.234375 0.2275 0.234375 0.24 0.24
          0.244375 0.24 0.2275 0.234375 0.24 0.244375 0.244375 0.244375 0.2475 0.2475 0.2475 0.249375
          0.249375 0.25 0.25 0.249375 0.25 0.2475 0.249375 0.25 0.2275 0.234375 0.2275 0.234375
          0.24 0.244375 0.24 0.244375 0.2275 0.234375 0.2275 0.234375 0.24 0.244375 0.24 0.2475
          0.2475 0.249375 0.25 0.249375 0.25 0.2475 0.244375 0.2475 0.249375 0.25 0.249375 0.25
          0.249375 0.249375 0.2475 0.249375 0.2475 0.244375 0.244375 0.2475 0.244375 0.249375 0.2475 0.244375
          0.24 0.24 0.234375 0.234375 0.24 0.234375 0.2275 0.2275 0.219375 0.2275 0.24 0.234375
          0.2275 0.219375 0.219375 0.249375 0.2475 0.249375 0.2475 0.244375 0.244375 0.249375 0.2475 0.249375
          0.244375 0.2475 0.244375 0.24 0.234375 0.24 0.234375 0.2275 0.219375 0.2275 0.219375 0.24
          0.234375 0.24 0.234375 0.2275 0.219375 0.2275 0.2275 0.234375 0.24 0.244375 0.2275 0.234375
          0.2275 0.234375 0.24 0.244375 0.24 0.244375 0.2475 0.249375 0.25 0.2475 0.2475 0.249375
          0.25 0.249375 0.25 0.2275 0.234375 0.2275 0.234375 0.24 0.244375 0.24 0.2275 0.234375
          0.24 0.244375 0.244375 0.2475 0.2475 0.249375 0.25 0.249375 0.25 0.2475 0.249375 0.25
          0.249375 0.2475 0.244375 0.249375 0.2475 0.249375 0.2475 0.244375 0.244375 0.24 0.234375 0.2275
          0.219375 0.219375 0.24 0.234375 0.24 0.234375 0.2275 0.219375 0.2275 0.219375 0.249375 0.2475
          0.249375 0.244375 0.2475 0.244375 0.249375 0.2475 0.244375 0.24 0.234375 0.24 0.234375 0.2275
          0.219375 0.2275 0.24 0.234375 0.2275 0.219375 0.219375 0 0.024375 0.0475 0.024375 0
          0.0475 0.069375 0.069375 0.024375 0 0.0475 0.024375 0.069375 0.0475 0.069375 0.09 0.109375
          0.09 0.109375 0.1275 0.144375 0.1275 0.144375 0.09 0.109375 0.09 0.109375 0.1275 0.144375
          0.1275 0 0.024375 0 0.0475 0.069375 0 0.024375 0.0475 0.024375 0 0.0475
          0.069375 0.069375 0.09 0.109375 0.1275 0.144375 0.144375 0.09 0.109375 0.09 0.109375 0.1275
          0.144375 0.1275 0.144375 0.16 0.16 0.174375 0.1875 0.174375 0.1875 0.16 0.16 0.174375
          0.1875 0.174375 0.1875 0.199375 0.21 0.199375 0.21 0.219375 0.219375 0.199375 0.21 0.199375
          0.219375 0.21 0.219375 0.16 0.174375 0.1875 0.16 0.16 0.174375 0.1875 0.174375 0.1875
          0.199375 0.21 0.219375 0.199375 0.21 0.199375 0.21 0.219375 0.219375 0.024375 0 0.0475
          0.024375 0.069375 0.0475 0.069375 0 0.024375 0 0.0475 0.069375 0.09 0.109375 0.09
          0.109375 0.1275 0.144375 0.1275 0.09 0.109375 0.1275 0.144375 0.144375 0 0.024375 0.0475
          0.024375 0 0.0475 0.069375 0.069375 0.024375 0 0.0475 0.024375 0.069375 0.0475 0.069375
          0.09 0.109375 0.09 0.109375 0.1275 0.144375 0.1275 0.144375 0.09 0.109375 0.09 0.109375
          0.1275 0.144375 0.1275 0.16 0.16 0.174375 0.1875 0.174375 0.1875 0.16 0.174375 0.1875
          0.199375 0.21 0.199375 0.219375 0.21 0.219375 0.199375 0.21 0.219375 0.16 0.16 0.174375
          0.1875 0.174375 0.1875 0.16 0.144375 0.16 0.174375 0.1875 0.174375 0.1875 0.199375 0.21
          0.199375 0.21 0.219375 0.219375 0.199375 0.21 0.199375 0.219375 0.21 0.219375 0.2275 0.234375
          0.2275 0.234375 0.24 0.244375 0.24 0.244375 0.2275 0.234375 0.2275 0.234375 0.24 0.244375
          0.24 0.2475 0.2475 0.249375 0.25 0.249375 0.25 0.2475 0.244375 0.2475 0.249375 0.25
          0.249375 0.25 0.2275 0.234375 0.24 0.244375 0.2275 0.234375 0.2275 0.234375 0.24 0.244375
          0.24 0.244375 0.2475 0.249375 0.25 0.2475 0.2475 0.249375 0.25 0.249375 0.25 0.249375
          0.2475 0.249375 0.2475 0.244375 0.244375 0.249375 0.2475 0.249375 0.244375 0.2475 0.244375 0.24
          0.234375 0.24 0.234375 0.2275 0.219375 0.2275 0.219375 0.24 0.234375 0.24 0.234375 0.2275
          0.219375 0.2275 0.249375 0.2475 0.244375 0.249375 0.2475 0.249375 0.2475 0.244375 0.244375 0.24
          0.234375 0.2275 0.219375 0.219375 0.24 0.234375 0.24 0.234375 0.2275 0.219375 0.2275 0.219375
          0.2275 0.234375 0.2275 0.234375 0.24 0.244375 0.24 0.2275 0.234375 0.24 0.244375 0.244375
          0.2475 0.2475 0.249375 0.25 0.249375 0.25 0.2475 0.249375 0.25 0.2275 0.234375 0.2275
          0.234375 0.24 0.244375 0.24 0.244375 0.2275 0.234375 0.2275 0.234375 0.24 0.244375 0.24
          0.2475 0.2475 0.249375 0.25 0.249375 0.25 0.2475 0.244375 0.2475 0.249375 0.25 0.249375
          0.25 0.249375 0.2475 0.249375 0.244375 0.2475 0.244375 0.249375 0.2475 0.244375 0.24 0.234375
          0.24 0.234375 0.2275 0.219375 0.2275 0.24 0.234375 0.2275 0.219375 0.219375 0.249375 0.2475
          0.249375 0.2475 0.244375 0.244375 0.249375 0.2475 0.249375 0.244375 0.2475 0.244375 0.24 0.234375
          0.24 0.234375 0.2275 0.219375 0.2275 0.219375 0.24 0.234375 0.24 0.234375 0.2275 0.219375
          0.2275 0.219375 0.21 0.21 0.21 0.199375 0.199375 0.1875 0.1875 0.199375 0.1875 0.21
          0.199375 0.1875 0.174375 0.174375 0.16 0.174375 0.16 0.144375 0.144375 0.16 0.144375 0.174375
          0.16 0.144375 0.21 0.21 0.199375 0.1875 0.199375 0.1875 0.21 0.21 0.199375 0.1875
          0.199375 0.1875 0.174375 0.16 0.174375 0.16 0.144375 0.144375 0.174375 0.16 0.174375 0.144375
          0.16 0.144375 0.1275 0.1275 0.109375 0.109375 0.1275 0.109375 0.09 0.09 0.069375 0.09
          0.1275 0.109375 0.09 0.069375 0.069375 0.069375 0.0475 0.0475 0.0475 0.024375 0.024375 0
          0 0.024375 0 0.0475 0.024375 0 0.1275 0.109375 0.1275 0.109375 0.09 0.069375
          0.09 0.069375 0.1275 0.109375 0.1275 0.109375 0.09 0.069375 0.09 0.0475 0.0475 0.024375
          0 0.024375 0 0.0475 0.069375 0.0475 0.024375 0 0.024375 0 0.21 0.199375
          0.1875 0.21 0.21 0.199375 0.1875 0.199375 0.1875 0.174375 0.16 0.144375 0.174375 0.16
          0.174375 0.16 0.144375 0.144375 0.21 0.21 0.199375 0.1875 0.199375 0.1875 0.21 0.199375
          0.1875 0.174375 0.16 0.174375 0.144375 0.16 0.144375 0.174375 0.16 0.144375 0.1275 0.109375
          0.09 0.069375 0.1275 0.109375 0.1275 0.109375 0.09 0.069375 0.09 0.069375 0.0475 0.024375
          0 0.0475 0.0475 0.024375 0 0.024375 0 0.1275 0.109375 0.1275 0.109375 0.09
          0.069375 0.09 0.1275 0.109375 0.09 0.069375 0.069375 0.0475 0.0475 0.024375 0 0.024375
          0 0.0475 0.024375 0 0.21 0.21 0.199375 0.1875 0.199375 0.1875 0.21 0.21