<?xml version="1.0"?>
<VTKFile type="UnstructuredGrid" version="0.1" byte_order="LittleEndian">
  <UnstructuredGrid>
    <Piece NumberOfCells="3200" NumberOfPoints="1681">
      <PointData Scalars="p">
        <DataArray type="Float32" Name="p" NumberOfComponents="1" format="ascii">
          0.0245019 0.0244815 0.000126915 0.000147322 0.0475603 0.0245685 0.0475343 0.0693985 0.0693735 0.0476269 0.0694608 0.000219499
          0.0246053 0.000255342 0.047668 0.0695019 0.0900051 0.0899866 0.109378 0.109367 0.0900608 0.109425 0.127513 0.127509
          0.144405 0.127551 0.0900993 0.109459 0.127579 0.144435 0.144457 0.000267228 0.0246237 0.047693 0.0246258 0.000261843
          0.0477034 0.0695296 0.0695446 0.0246163 0.000244906 0.0477028 0.0245988 0.0695497 0.0476942 0.0695472 0.0901269 0.109485
          0.0901439 0.109502 0.127601 0.144475 0.127617 0.144488 0.0901524 0.109512 0.0901541 0.109516 0.127627 0.144497
          0.127632 0.144408 0.160053 0.160062 0.160074 0.174453 0.174467 0.187605 0.187623 0.174467 0.187611 0.16009
          0.174476 0.187616 0.199507 0.199527 0.210158 0.199507 0.21018 0.219557 0.219581 0.210152 0.219547 0.199506
          0.210147 0.219537 0.160103 0.160113 0.174486 0.18762 0.174493 0.187624 0.160121 0.144502 0.160125 0.174498
          0.187627 0.174501 0.187628 0.199507 0.210144 0.199507 0.210141 0.219531 0.219526 0.199507 0.210139 0.199507
          0.219521 0.210137 0.219518 0.000220662 0.0245761 0.000192203 0.04768 0.0695392 0.000161796 0.0245506 0.0476622 0.0245237
          0.00013111 0.0476424 0.0695274 0.0695132 0.0901506 0.109515 0.127633 0.144504 0.0901433 0.109511 0.0901335 0.109505
          0.127631 0.144503 0.127627 0.144501 0.024497 0.000101373 0.0476219 0.0244712 0.0694977 0.0476016 0.0694819 7.34827e-05
          0.0244472 4.80857e-05 0.0475823 0.0694665 0.0901222 0.109497 0.0901102 0.109488 0.127621 0.144497 0.127615 0.0900982
          0.109478 0.127608 0.144492 0.144486 0.160127 0.174502 0.187629 0.160127 0.160125 0.174502 0.187628 0.174501
          0.187627 0.199507 0.210135 0.219515 0.199506 0.210133 0.199504 0.210131 0.219512 0.219509 0.160122 0.160118
          0.174498 0.187625 0.174495 0.187622 0.160114 0.174492 0.18762 0.199502 0.210129 0.1995 0.219507 0.210127
          0.219504 0.199497 0.210125 0.219502 0.227704 0.227728 0.234598 0.234622 0.227689 0.23458 0.240239 0.240263
          0.244627 0.240219 0.227677 0.234565 0.240201 0.244605 0.244586 0.24465 0.247762 0.247784 0.247738 0.249644
          0.249664 0.250273 0.250291 0.249619 0.250247 0.247718 0.249598 0.250225 0.227667 0.234553 0.22766 0.234543
          0.240187 0.24457 0.240175 0.244557 0.227653 0.234535 0.227648 0.234528 0.240166 0.244546 0.240158 0.247701
          0.247687 0.24958 0.250207 0.249565 0.250192 0.247675 0.244537 0.247666 0.249553 0.250179 0.249543 0.250169
          0.249648 0.249664 0.24777 0.249622 0.247784 0.24464 0.24465 0.247745 0.244614 0.2496 0.247723 0.244594
          0.240256 0.240263 0.234619 0.234624 0.240231 0.234596 0.22773 0.227731 0.219587 0.227708 0.240212 0.234578
          0.227691 0.219567 0.219553 0.249582 0.247705 0.249567 0.24769 0.244576 0.244562 0.249554 0.247678 0.249544
          0.24455 0.247668 0.24454 0.240195 0.234562 0.240181 0.23455 0.227677 0.21954 0.227666 0.219531 0.24017
          0.23454 0.240162 0.234532 0.227657 0.219524 0.227651 0.227644 0.234523 0.240152 0.24453 0.22764 0.234519
          0.227637 0.234515 0.240147 0.244524 0.240142 0.24452 0.247658 0.249535 0.250161 0.247652 0.247646 0.249528
          0.250154 0.249523 0.250149 0.227634 0.234511 0.227631 0.234509 0.240139 0.244516 0.240135 0.227629 0.234506
          0.240133 0.244512 0.244509 0.247642 0.247639 0.249518 0.250144 0.249515 0.250141 0.247636 0.249512 0.250138
          0.249536 0.24766 0.244533 0.249529 0.247653 0.249524 0.247648 0.244527 0.244522 0.240155 0.234526 0.227646
          0.219519 0.219515 0.240149 0.234521 0.240145 0.234518 0.227642 0.219513 0.22764 0.219511 0.249519 0.247644
          0.249516 0.244518 0.247641 0.244516 0.249513 0.247639 0.244514 0.240142 0.234515 0.24014 0.234514 0.227638
          0.219511 0.227637 0.240138 0.234513 0.227637 0.21951 0.219511 2.56392e-05 0.0244254 0.0475646 0.0244063 6.45335e-06
          0.0475488 0.0694521 0.0694391 0.0243901 -9.27433e-06 0.0475353 0.024377 0.0694279 0.0475244 0.0694186 0.0900867 0.109469
          0.0900762 0.109461 0.127601 0.144481 0.127594 0.144476 0.0900671 0.109454 0.0900595 0.109447 0.127588 0.144471
          0.127583 -2.14328e-05 0.0243671 -2.9977e-05 0.0475161 0.0694116 -3.49117e-05 0.0243605 0.0475105 0.0243571 -3.62778e-05 0.0475077
          0.0694069 0.0694045 0.0900537 0.109443 0.127579 0.144467 0.144464 0.0900497 0.109439 0.0900478 0.109438 0.127577
          0.144461 0.127575 0.14446 0.16011 0.160106 0.174489 0.187617 0.174485 0.187614 0.160102 0.160099 0.174482
          0.187612 0.17448 0.187609 0.199495 0.210122 0.199492 0.21012 0.2195 0.219498 0.19949 0.210118 0.199488
          0.219496 0.210116 0.219494 0.160096 0.174477 0.187607 0.160094 0.160094 0.174476 0.187606 0.174475 0.187605
          0.199487 0.210115 0.219493 0.199485 0.210114 0.199485 0.210113 0.219491 0.219491 0.0243569 -3.41418e-05 0.0475078
          0.0243599 0.0694045 0.0475106 0.069407 -2.85862e-05 0.024366 -1.9701e-05 0.0475162 0.0694119 0.0900479 0.109438 0.0900501
          0.10944 0.127576 0.144461 0.127577 0.0900544 0.109444 0.12758 0.144462 0.144465 -7.57666e-06 0.0243752 0.0475245
          0.0243873 7.70412e-06 0.0475354 0.0694191 0.0694287 0.0244024 2.60742e-05 0.047549 0.0244205 0.0694406 0.0475652 0.0694548
          0.0900607 0.109449 0.0900691 0.109456 0.127585 0.144469 0.127591 0.144474 0.0900795 0.109465 0.0900918 0.109476
          0.127599 0.14448 0.127608 0.160094 0.160095 0.174475 0.187605 0.174476 0.187606 0.160097 0.174478 0.187607
          0.199484 0.210113 0.199485 0.21949 0.210113 0.21949 0.199485 0.210113 0.21949 0.1601 0.160104 0.17448
          0.187609 0.174484 0.187612 0.160109 0.144487 0.160116 0.174488 0.187615 0.174492 0.187618 0.199487 0.210114
          0.199489 0.210115 0.21949 0.219491 0.199491 0.210116 0.199494 0.219491 0.210118 0.219493 0.227627 0.234504
          0.227625 0.234502 0.24013 0.244507 0.240128 0.244505 0.227623 0.2345 0.227621 0.234498 0.240127 0.244503
          0.240125 0.247633 0.247631 0.249509 0.250135 0.249507 0.250133 0.247629 0.244501 0.247628 0.249506 0.250132
          0.249504 0.25013 0.22762 0.234497 0.240124 0.2445 0.227619 0.234496 0.227618 0.234495 0.240122 0.244499
          0.240121 0.244497 0.247626 0.249503 0.250129 0.247625 0.247624 0.249501 0.250127 0.2495 0.250126 0.249511
          0.247637 0.249509 0.247635 0.244512 0.244511 0.249508 0.247634 0.249506 0.244509 0.247632 0.244508 0.240137
          0.234512 0.240136 0.234511 0.227637 0.219511 0.227636 0.219512 0.240135 0.234511 0.240134 0.23451 0.227636
          0.219512 0.227636 0.249505 0.247631 0.244507 0.249504 0.24763 0.249502 0.247629 0.244506 0.244505 0.240134
          0.23451 0.227636 0.219512 0.219513 0.240133 0.234509 0.240132 0.234508 0.227636 0.219513 0.227635 0.219512
          0.227617 0.234494 0.227616 0.234493 0.24012 0.244496 0.240119 0.227616 0.234492 0.240118 0.244495 0.244494
          0.247622 0.247621 0.249498 0.250124 0.249497 0.250123 0.24762 0.249495 0.250121 0.227616 0.234492 0.227616
          0.234491 0.240117 0.244493 0.240116 0.244491 0.227616 0.234491 0.227617 0.234491 0.240116 0.24449 0.240115
          0.247618 0.247617 0.249494 0.250119 0.249492 0.250118 0.247615 0.244489 0.247614 0.24949 0.250115 0.249488
          0.250113 0.249501 0.247627 0.249499 0.244504 0.247625 0.244502 0.249497 0.247624 0.2445 0.24013 0.234507
          0.240129 0.234506 0.227634 0.219511 0.227633 0.240127 0.234504 0.227631 0.21951 0.219509 0.249495 0.247622
          0.249493 0.247619 0.244498 0.244496 0.249491 0.247617 0.249489 0.244493 0.247614 0.244491 0.240125 0.234502
          0.240123 0.2345 0.227629 0.219507 0.227627 0.219505 0.24012 0.234497 0.240117 0.234494 0.227624 0.219502
          0.227621 0.219585 0.210192 0.210186 0.210174 0.199544 0.199535 0.187643 0.18763 0.199529 0.187631 0.210162
          0.199519 0.187624 0.174489 0.174472 0.160082 0.17448 0.160061 0.144421 0.144395 0.160077 0.144421 0.174477
          0.160078 0.144427 0.210152 0.210144 0.199511 0.187619 0.199506 0.187617 0.210139 0.210136 0.199503 0.187616
          0.199501 0.187617 0.174475 0.16008 0.174476 0.160085 0.144434 0.144442 0.174478 0.16009 0.174481 0.144451
          0.160096 0.14446 0.127506 0.127474 0.109335 0.109296 0.127511 0.109349 0.0899061 0.0898582 0.0692148 0.0899332
          0.127524 0.10937 0.0899668 0.0692653 0.0693171 0.0691475 0.0472611 0.0471566 0.0473549 0.023978 0.0238345 -0.000221446
          -0.00154547 0.0242008 -9.44122e-05 0.0474325 0.024292 -5.08415e-05 0.127537 0.109391 0.127551 0.10941 0.0899966 0.0693573
          0.0900214 0.0693872 0.127563 0.109426 0.127575 0.10944 0.0900416 0.0694097 0.090058 0.0474803 0.0475115 0.0243371
          -2.88335e-05 0.0243653 -9.84394e-06 0.0475335 0.0694273 0.0475504 0.0243862 7.61021e-06 0.0244035 2.43525e-05 0.210133 0.199501
          0.187618 0.210132 0.210132 0.199502 0.18762 0.199503 0.187623 0.174485 0.160101 0.144468 0.174489 0.160107
          0.174493 0.160113 0.144476 0.144483 0.210133 0.210133 0.199504 0.187626 0.199506 0.187628 0.210134 0.199508
          0.187631 0.174497 0.160118 0.174501 0.144489 0.160123 0.144495 0.174505 0.160128 0.144501 0.127585 0.109453
          0.0900718 0.0694417 0.127594 0.109464 0.127603 0.109473 0.0900837 0.0694541 0.0900941 0.069465 0.0475643 0.0244189
          4.06887e-05 0.0475764 0.0475872 0.024433 5.67602e-05 0.0244465 7.25853e-05 0.127611 0.109482 0.127618 0.10949 0.0901036
          0.069475 0.0901121 0.127624 0.109497 0.09012 0.0694841 0.0694926 0.0475972 0.0476066 0.0244593 8.81184e-05 0.0244717
          0.000103277 0.0476154 0.0244837 0.000117959 0.210136 0.210137 0.19951 0.187634 0.199512 0.187637 0.210138 0.210138
          0.199513 0.187639 0.199515 0.187641 0.174508 0.160132 0.174511 0.160136 0.144506 0.144511 0.174514 0.16014
          0.174517 0.144515 0.160143 0.144519 0.210139 0.199516 0.187642 0.210139 0.210139 0.199516 0.187643 0.199516
          0.187644 0.174519 0.160145 0.144522 0.17452 0.160147 0.174521 0.160149 0.144524 0.144526 0.12763 0.109504
          0.127635 0.10951 0.0901273 0.0695004 0.0901339 0.0695077 0.12764 0.109515 0.127644 0.10952 0.0901399 0.0695143
          0.0901453 0.0476236 0.0476314 0.0244951 0.000132047 0.0245059 0.000145418 0.0476386 0.0695204 0.0476451 0.0245161 0.000157942
          0.0245256 0.000169484 0.127648 0.109524 0.09015 0.0695257 0.127651 0.109528 0.127653 0.10953 0.090154 0.0695304
          0.0901572 0.0695342 0.047651 0.0245343 0.000179904 0.0476562 0.0476605 0.024542 0.000189059 0.0245486 0.000196799 0.210139
          0.210138 0.199516 0.187644 0.199516 0.187643 0.210137 0.199514 0.187642 0.174522 0.160149 0.174521 0.144527
          0.160149 0.144528 0.174521 0.160149 0.144527 0.210135 0.210133 0.199513 0.187641 0.199511 0.187639 0.21013
          0.219499 0.210127 0.199508 0.187637 0.199505 0.187634 0.174519 0.160148 0.174518 0.160146 0.144526 0.144525
          0.174515 0.160144 0.174512 0.144523 0.160141 0.14452 0.127655 0.109532 0.127656 0.109533 0.0901597 0.0695371
          0.0901612 0.127656 0.109534 0.0901619 0.0695392 0.0695403 0.047664 0.0476665 0.0245541 0.000202971 0.0245583 0.000207421
          0.047668 0.0245611 0.000209987 0.127655 0.109533 0.127653 0.109532 0.0901617 0.0695404 0.0901605 0.0695394 0.127651
          0.10953 0.127648 0.109527 0.0901585 0.0695374 0.0901555 0.0476684 0.0476676 0.0245624 0.00021051 0.0245621 0.000208828
          0.0476656 0.0695343 0.0476624 0.0245601 0.000204784 0.0245563 0.000198224 4.74917e-05 0.0244414 7.19514e-05 0.047584 0.0694713
          9.95012e-05 0.0244652 0.0476054 0.0244921 0.000130265 0.0476294 0.0694899 0.0695108 0.090106 0.109488 0.127618 0.144496
          0.0901221 0.109502 0.09014 0.109517 0.127629 0.144505 0.127642 0.144515 0.0245223 0.000164479 0.0476561 0.0245559
          0.0695339 0.0476857 0.0695591 0.000202551 0.0245935 0.000245165 0.0477184 0.0695864 0.0901596 0.109533 0.0901806 0.10955
          0.127655 0.144526 0.127669 0.0902028 0.109568 0.127683 0.144537 0.144548 0.160122 0.174498 0.187623 0.16013
          0.160138 0.174504 0.187627 0.17451 0.187632 0.199497 0.21012 0.219494 0.1995 0.210123 0.199504 0.210125
          0.219495 0.219497 0.160147 0.160155 0.174517 0.187637 0.174524 0.187642 0.160164 0.17453 0.187647 0.199507
          0.210128 0.199511 0.219498 0.21013 0.2195 0.199515 0.210133 0.219502 0.000293456 0.024636 0.0477544 0.0246846
          0.000349626 0.047794 0.0696155 0.0696457 0.0247418 0.000416746 0.047837 0.0248124 0.0696754 0.0478822 0.0697011 0.0902257
          0.109586 0.090248 0.109602 0.127697 0.144559 0.127709 0.144568 0.0902679 0.109616 0.0902824 0.109625 0.127719
          0.144575 0.127725 0.000507647 0.0248966 0.000634101 0.0479198 0.0697113 0.00083852 0.0250562 0.0479442 0.0248721 0.00186397
          0.047858 0.0697215 0.0696864 0.0902844 0.109625 0.127726 0.144581 0.144582 0.0902976 0.109642 0.090287 0.109641
          0.127744 0.1446 0.127747 0.144604 0.160172 0.160179 0.174537 0.187652 0.174542 0.187656 0.160185 0.16019
          0.174547 0.18766 0.174551 0.187664 0.199518 0.210135 0.199522 0.210138 0.219503 0.219505 0.199525 0.21014
          0.199528 0.219507 0.210143 0.219509 0.160192 0.174554 0.187667 0.160208 0.160211 0.174568 0.187678 0.174569
          0.187677 0.199531 0.210145 0.219511 0.199539 0.210151 0.199536 0.210145 0.219513 0.219504 0.227617 0.234491
          0.240114 0.244488 0.227618 0.23449 0.227618 0.23449 0.240113 0.244487 0.240113 0.244485 0.247612 0.249486
          0.250111 0.24761 0.247608 0.249484 0.250108 0.249482 0.250106 0.227619 0.23449 0.22762 0.23449 0.240112
          0.244484 0.240111 0.227621 0.23449 0.240111 0.244483 0.244481 0.247607 0.247605 0.24948 0.250103 0.249477
          0.2501 0.247603 0.249475 0.250098 0.249486 0.247612 0.244488 0.249483 0.247609 0.24948 0.247605 0.244484
          0.244481 0.240114 0.234491 0.227618 0.219496 0.240111 0.234487 0.240107 0.234484 0.227615 0.219492 0.227611
          0.219488 0.249477 0.247602 0.249474 0.244477 0.247599 0.244474 0.249471 0.247595 0.24447 0.240103 0.23448
          0.2401 0.234476 0.227607 0.219484 0.227603 0.240096 0.234472 0.227599 0.21948 0.219476 0.227622 0.234491
          0.227623 0.234491 0.24011 0.24448 0.24011 0.244479 0.227624 0.234491 0.227625 0.234492 0.24011 0.244479
          0.24011 0.247601 0.2476 0.249473 0.250095 0.249471 0.250092 0.247598 0.244478 0.247597 0.249469 0.25009
          0.249467 0.250088 0.227627 0.234493 0.24011 0.244478 0.227626 0.234489 0.227614 0.234475 0.240104 0.244468
          0.240087 0.24445 0.247597 0.249466 0.250086 0.247584 0.247564 0.249451 0.250069 0.249429 0.250046 0.249468
          0.247592 0.249465 0.247588 0.244466 0.244463 0.249462 0.247585 0.249459 0.244459 0.247582 0.244455 0.240092
          0.234468 0.240088 0.234464 0.227595 0.219472 0.227591 0.219468 0.240084 0.23446 0.24008 0.234455 0.227587
          0.219464 0.227582 0.249457 0.247579 0.244452 0.249438 0.247558 0.249414 0.247534 0.24443 0.244407 0.240077
          0.234452 0.227579 0.21946 0.219457 0.240054 0.234429 0.240031 0.234407 0.227555 0.219434 0.227536 0.219417
          0.210124 0.199502 0.18763 0.21012 0.210116 0.199498 0.187627 0.199495 0.187623 0.174509 0.160138 0.144516
          0.174505 0.160134 0.174502 0.16013 0.144513 0.144509 0.210112 0.210108 0.199491 0.187619 0.199487 0.187615
          0.210104 0.199483 0.187612 0.174498 0.160126 0.174494 0.144505 0.160123 0.144501 0.17449 0.160119 0.144497
          0.127645 0.109523 0.0901517 0.0695302 0.127641 0.109519 0.127637 0.109515 0.0901472 0.0695252 0.0901421 0.0695195
          0.047658 0.0245506 0.000189011 0.0476524 0.0476457 0.0245431 0.000177026 0.0245337 0.000162183 0.127633 0.10951 0.127628
          0.109505 0.0901368 0.0695132 0.0901315 0.127625 0.109501 0.0901267 0.0695067 0.0695006 0.0476383 0.0476303 0.0245226
          0.000144453 0.02451 0.000123899 0.0476222 0.0244962 0.00010073 0.210101 0.210097 0.199479 0.187608 0.199476 0.187605
          0.210093 0.210089 0.199472 0.187602 0.199469 0.187599 0.174487 0.160116 0.174485 0.160114 0.144495 0.144493
          0.174482 0.160113 0.174481 0.144492 0.160112 0.144493 0.210086 0.199467 0.187598 0.210064 0.210051 0.199447
          0.187581 0.199438 0.187578 0.174481 0.160114 0.144497 0.174467 0.160105 0.174471 0.160116 0.144494 0.144515
          0.127622 0.109498 0.127621 0.109497 0.090123 0.0694954 0.0901211 0.0694922 0.127621 0.109498 0.127623 0.109501
          0.0901219 0.0694921 0.0901266 0.0476149 0.0476094 0.0244821 7.54249e-05 0.0244687 4.89093e-05 0.0476074 0.0694968 0.0476104
          0.024458 2.32616e-05 0.0244502 1.10386e-06 0.127629 0.10951 0.0901367 0.0695087 0.127633 0.109521 0.127665 0.109567
          0.0901574 0.0695404 0.0902177 0.0696153 0.0476226 0.0244583 -3.32045e-06 0.0476585 0.0477462 0.0244918 -4.83783e-05 0.024666
          0.000133769
        </DataArray>
        <DataArray type="Float32" Name="rho" NumberOfComponents="1" format="ascii">
          1 1 1 1 1 1 1 1 1 1 1 1
          1 1 1 1 1 1 1 1 1 1 1 1
          1 1 1 1 1 1 1 1 1 1 1 1
          1 1 1 1 1 1 1 1 1 1 1 1
          1 1 1 1 1 1 1 1 1 1 1 1
          1 1 1 1 1 1 1 1 1 1 1 1
          1 1 1 1 1 1 1 1 1 1 1 1
          1 1 1 1 1 1 1 1 1 1 1 1
          1 1 1 1 1 1 1 1 1 1 1 1
          1 1 1 1 1 1 1 1 1 1 1 1
          1 1 1 1 1 1 1 1 1 1 1 1
          1 1 1 1 1 1 1 1 1 1 1 1
          1 1 1 1 1 1 1 1 1 1 1 1
          1 1 1 1 1 1 1 1 1 1 1 1
          1 1 1 1 1 1 1 1 1 1 1 1
          1 1 1 1 1 1 1 1 1 1 1 1
          1 1 1 1 1 1 1 1 1 1 1 1
          1 1 1 1 1 1 1 1 1 1 1 1
          1 1 1 1 1 1 1 1 1 1 1 1
          1 1 1 1 1 1 1 1 1 1 1 1
          1 1 1 1 1 1 1 1 1 1 1 1
          1 1 1 1 1 1 1 1 1 1 1 1
          1 1 1 1 1 1 1 1 1 1 1 1
          1 1 1 1 1 1 1 1 1 1 1 1
          1 1 1 1 1 1 1 1 1 1 1 1
          1 1 1 1 1 1 1 1 1 1 1 1
          1 1 1 1 1 1 1 1 1 1 1 1
          1 1 1 1 1 1 1 1 1 1 1 1
          1 1 1 1 1 1 1 1 1 1 1 1
          1 1 1 1 1 1 1 1 1 1 1 1
          1 1 1 1 1 1 1 1 1 1 1 1
          1 1 1 1 1 1 1 1 1 1 1 1
          1 1 1 1 1 1 1 1 1 1 1 1
          1 1 1 1 1 1 1 1 1 1 1 1
          1 1 1 1 1 1 1 1 1 1 1 1
          1 1 1 1 1 1 1 1 1 1 1 1
          1 1 1 1 1 1 1 1 1 1 1 1
          1 1 1 1 1 1 1 1 1 1 1 1
          1 1 1 1 1 1 1 1 1 1 1 1
          1 1 1 1 1 1 1 1 1 1 1 1
          1 1 1 1 1 1 1 1 1 1 1 1
          1 1 1 1 1 1 1 1 1 1 1 1
          1 1 1 1 1 1 1 1 1 1 1 1
          1 1 1 1 1 1 1 1 1 1 1 1
          1 1 1 1 1 1 1 1 1 1 1 1
          1 1 1 1 1 1 1 1 1 1 1 1
          1 1 1 1 1 1 1 1 1 1 1 1
          1 1 1 1 1 1 1 1 1 1 1 1
          1 1 1 1 1 1 1 1 1 1 1 1
          1 1 1 1 1 1 1 1 1 1 1 1
          1 1 1 1 1 1 1 1 1 1 1 1
          1 1 1 1 1 1 1 1 1 1 1 1
          1 1 1 1 1 1 1 1 1 1 1 1
          1 1 1 1 1 1 1 1 1 1 1 1
          1 1 1 1 1 1 1 1 1 1 1 1
          1 1 1 1 1 1 1 1 1 1 1 1
          1 1 1 1 1 1 1 1 1 1 1 1
          1 1 1 1 1 1 1 1 1 1 1 1
          1 1 1 1 1 1 1 1 1 1 1 1
          1 1 1 1 1 1 1 1 1 1 1 1
          1 1 1 1 1 1 1 1 1 1 1 1
          1 1 1 1 1 1 1 1 1 1 1 1
          1 1 1 1 1 1 1 1 1 1 1 1
          1 1 1 1 1 1 1 1 1 1 1 1
          1 1 1 1 1 1 1 1 1 1 1 1
          1 1 1 1 1 1 1 1 1 1 1 1
          1 1 1 1 1 1 1 1 1 1 1 1
          1 1 1 1 1 1 1 1 1 1 1 1
          1 1 1 1 1 1 1 1 1 1 1 1
          1 1 1 1 1 1 1 1 1 1 1 1
          1 1 1 1 1 1 1 1 1 1 1 1
          1 1 1 1 1 1 1 1 1 1 1 1
          1 1 1 1 1 1 1 1 1 1 1 1
          1 1 1 1 1 1 1 1 1 1 1 1
          1 1 1 1 1 1 1 1 1 1 1 1
          1 1 1 1 1 1 1 1 1 1 1 1
          1 1 1 1 1 1 1 1 1 1 1 1
          1 1 1 1 1 1 1 1 1 1 1 1
          1 1 1 1 1 1 1 1 1 1 1 1
          1 1 1 1 1 1 1 1 1 1 1 1
          1 1 1 1 1 1 1 1 1 1 1 1
          1 1 1 1 1 1 1 1 1 1 1 1
          1 1 1 1 1 1 1 1 1 1 1 1
          1 1 1 1 1 1 1 1 1 1 1 1
          1 1 1 1 1 1 1 1 1 1 1 1
          1 1 1 1 1 1 1 1 1 1 1 1
          1 1 1 1 1 1 1 1 1 1 1 1
          1 1 1 1 1 1 1 1 1 1 1 1
          1 1 1 1 1 1 1 1 1 1 1 1
          1 1 1 1 1 1 1 1 1 1 1 1
          1 1 1 1 1 1 1 1 1 1 1 1
          1 1 1 1 1 1 1 1 1 1 1 1
          1 1 1 1 1 1 1 1 1 1 1 1
          1 1 1 1 1 1 1 1 1 1 1 1
          1 1 1 1 1 1 1 1 1 1 1 1
          1 1 1 1 1 1 1 1 1 1 1 1
          1 1 1 1 1 1 1 1 1 1 1 1
          1 1 1 1 1 1 1 1 1 1 1 1
          1 1 1 1 1 1 1 1 1 1 1 1
          1 1 1 1 1 1 1 1 1 1 1 1
          1 1 1 1 1 1 1 1 1 1 1 1
          1 1 1 1 1 1 1 1 1 1 1 1
          1 1 1 1 1 1 1 1 1 1 1 1
          1 1 1 1 1 1 1 1 1 1 1 1
          1 1 1 1 1 1 1 1 1 1 1 1
          1 1 1 1 1 1 1 1 1 1 1 1
          1 1 1 1 1 1 1 1 1 1 1 1
          1 1 1 1 1 1 1 1 1 1 1 1
          1 1 1 1 1 1 1 1 1 1 1 1
          1 1 1 1 1 1 1 1 1 1 1 1
          1 1 1 1 1 1 1 1 1 1 1 1
          1 1 1 1 1 1 1 1 1 1 1 1
          1 1 1 1 1 1 1 1 1 1 1 1
          1 1 1 1 1 1 1 1 1 1 1 1
          1 1 1 1 1 1 1 1 1 1 1 1
          1 1 1 1 1 1 1 1 1 1 1 1
          1 1 1 1 1 1 1 1 1 1 1 1
          1 1 1 1 1 1 1 1 1 1 1 1
          1 1 1 1 1 1 1 1 1 1 1 1
          1 1 1 1 1 1 1 1 1 1 1 1
          1 1 1 1 1 1 1 1 1 1 1 1
          1 1 1 1 1 1 1 1 1 1 1 1
          1 1 1 1 1 1 1 1 1 1 1 1
          1 1 1 1 1 1 1 1 1 1 1 1
          1 1 1 1 1 1 1 1 1 1 1 1
          1 1 1 1 1 1 1 1 1 1 1 1
          1 1 1 1 1 1 1 1 1 1 1 1
          1 1 1 1 1 1 1 1 1 1 1 1
          1 1 1 1 1 1 1 1 1 1 1 1
          1 1 1 1 1 1 1 1 1 1 1 1
          1 1 1 1 1 1 1 1 1 1 1 1
          1 1 1 1 1 1 1 1 1 1 1 1
          1 1 1 1 1 1 1 1 1 1 1 1
          1 1 1 1 1 1 1 1 1 1 1 1
          1 1 1 1 1 1 1 1 1 1 1 1
          1 1 1 1 1 1 1 1 1 1 1 1
          1 1 1 1 1 1 1 1 1 1 1 1
          1 1 1 1 1 1 1 1 1 1 1 1
          1 1 1 1 1 1 1 1 1 1 1 1
          1 1 1 1 1 1 1 1 1 1 1 1
          1
        </DataArray>
        <DataArray type="Float32" Name="pressureExact" NumberOfComponents="1" format="ascii">
          0.024375 0.024375 0 0 0.0475 0.024375 0.0475 0.069375 0.069375 0.0475 0.069375 0
          0.024375 0 0.0475 0.069375 0.09 0.09 0.109375 0.109375 0.09 0.109375 0.1275 0.1275
          0.144375 0.1275 0.09 0.109375 0.1275 0.144375 0.144375 0 0.024375 0.0475 0.024375 0
          0.0475 0.069375 0.069375 0.024375 0 0.0475 0.024375 0.069375 0.0475 0.069375 0.09 0.109375
          0.09 0.109375 0.1275 0.144375 0.1275 0.144375 0.09 0.109375 0.09 0.109375 0.1275 0.144375
          0.1275 0.144375 0.16 0.16 0.16 0.174375 0.174375 0.1875 0.1875 0.174375 0.1875 0.16
          0.174375 0.1875 0.199375 0.199375 0.21 0.199375 0.21 0.219375 0.219375 0.21 0.219375 0.199375
          0.21 0.219375 0.16 0.16 0.174375 0.1875 0.174375 0.1875 0.16 0.144375 0.16 0.174375
          0.1875 0.174375 0.1875 0.199375 0.21 0.199375 0.21 0.219375 0.219375 0.199375 0.21 0.199375
          0.219375 0.21 0.219375 0 0.024375 0 0.0475 0.069375 0 0.024375 0.0475 0.024375
          0 0.0475 0.069375 0.069375 0.09 0.109375 0.1275 0.144375 0.09 0.109375 0.09 0.109375
          0.1275 0.144375 0.1275 0.144375 0.024375 0 0.0475 0.024375 0.069375 0.0475 0.069375 0
          0.024375 0 0.0475 0.069375 0.09 0.109375 0.09 0.109375 0.1275 0.144375 0.1275 0.09
          0.109375 0.1275 0.144375 0.144375 0.16 0.174375 0.1875 0.16 0.16 0.174375 0.1875 0.174375
          0.1875 0.199375 0.21 0.219375 0.199375 0.21 0.199375 0.21 0.219375 0.219375 0.16 0.16
          0.174375 0.1875 0.174375 0.1875 0.16 0.174375 0.1875 0.199375 0.21 0.199375 0.219375 0.21
          0.219375 0.199375 0.21 0.219375 0.2275 0.2275 0.234375 0.234375 0.2275 0.234375 0.24 0.24
          0.244375 0.24 0.2275 0.234375 0.24 0.244375 0.244375 0.244375 0.2475 0.2475 0.2475 0.249375
          0.249375 0.25 0.25 0.249375 0.25 0.2475 0.249375 0.25 0.2275 0.234375 0.2275 0.234375
          0.24 0.244375 0.24 0.244375 0.2275 0.234375 0.2275 0.234375 0.24 0.244375 0.24 0.2475
          0.2475 0.249375 0.25 0.249375 0.25 0.2475 0.244375 0.2475 0.249375 0.25 0.249375 0.25
          0.249375 0.249375 0.2475 0.249375 0.2475 0.244375 0.244375 0.2475 0.244375 0.249375 0.2475 0.244375
          0.24 0.24 0.234375 0.234375 0.24 0.234375 0.2275 0.2275 0.219375 0.2275 0.24 0.234375
          0.2275 0.219375 0.219375 0.249375 0.2475 0.249375 0.2475 0.244375 0.244375 0.249375 0.2475 0.249375
          0.244375 0.2475 0.244375 0.24 0.234375 0.24 0.234375 0.2275 0.219375 0.2275 0.219375 0.24
          0.234375 0.24 0.234375 0.2275 0.219375 0.2275 0.2275 0.234375 0.24 0.244375 0.2275 0.234375
          0.2275 0.234375 0.24 0.244375 0.24 0.244375 0.2475 0.249375 0.25 0.2475 0.2475 0.249375
          0.25 0.249375 0.25 0.2275 0.234375 0.2275 0.234375 0.24 0.244375 0.24 0.2275 0.234375
          0.24 0.244375 0.244375 0.2475 0.2475 0.249375 0.25 0.249375 0.25 0.2475 0.249375 0.25
          0.249375 0.2475 0.244375 0.249375 0.2475 0.249375 0.2475 0.244375 0.244375 0.24 0.234375 0.2275
          0.219375 0.219375 0.24 0.234375 0.24 0.234375 0.2275 0.219375 0.2275 0.219375 0.249375 0.2475
          0.249375 0.244375 0.2475 0.244375 0.249375 0.2475 0.244375 0.24 0.234375 0.24 0.234375 0.2275
          0.219375 0.2275 0.24 0.234375 0.2275 0.219375 0.219375 0 0.024375 0.0475 0.024375 0
          0.0475 0.069375 0.069375 0.024375 0 0.0475 0.024375 0.069375 0.0475 0.069375 0.09 0.109375
          0.09 0.109375 0.1275 0.144375 0.1275 0.144375 0.09 0.109375 0.09 0.109375 0.1275 0.144375
          0.1275 0 0.024375 0 0.0475 0.069375 0 0.024375 0.0475 0.024375 0 0.0475
          0.069375 0.069375 0.09 0.109375 0.1275 0.144375 0.144375 0.09 0.109375 0.09 0.109375 0.1275
          0.144375 0.1275 0.144375 0.16 0.16 0.174375 0.1875 0.174375 0.1875 0.16 0.16 0.174375
          0.1875 0.174375 0.1875 0.199375 0.21 0.199375 0.21 0.219375 0.219375 0.199375 0.21 0.199375
          0.219375 0.21 0.219375 0.16 0.174375 0.1875 0.16 0.16 0.174375 0.1875 0.174375 0.1875
          0.199375 0.21 0.219375 0.199375 0.21 0.199375 0.21 0.219375 0.219375 0.024375 0 0.0475
          0.024375 0.069375 0.0475 0.069375 0 0.024375 0 0.0475 0.069375 0.09 0.109375 0.09
          0.109375 0.1275 0.144375 0.1275 0.09 0.109375 0.1275 0.144375 0.144375 0 0.024375 0.0475
          0.024375 0 0.0475 0.069375 0.069375 0.024375 0 0.0475 0.024375 0.069375 0.0475 0.069375
          0.09 0.109375 0.09 0.109375 0.1275 0.144375 0.1275 0.144375 0.09 0.109375 0.09 0.109375
          0.1275 0.144375 0.1275 0.16 0.16 0.174375 0.1875 0.174375 0.1875 0.16 0.174375 0.1875
          0.199375 0.21 0.199375 0.219375 0.21 0.219375 0.199375 0.21 0.219375 0.16 0.16 0.174375
          0.1875 0.174375 0.1875 0.16 0.144375 0.16 0.174375 0.1875 0.174375 0.1875 0.199375 0.21
          0.199375 0.21 0.219375 0.219375 0.199375 0.21 0.199375 0.219375 0.21 0.219375 0.2275 0.234375
          0.2275 0.234375 0.24 0.244375 0.24 0.244375 0.2275 0.234375 0.2275 0.234375 0.24 0.244375
          0.24 0.2475 0.2475 0.249375 0.25 0.249375 0.25 0.2475 0.244375 0.2475 0.249375 0.25
          0.249375 0.25 0.2275 0.234375 0.24 0.244375 0.2275 0.234375 0.2275 0.234375 0.24 0.244375
          0.24 0.244375 0.2475 0.249375 0.25 0.2475 0.2475 0.249375 0.25 0.249375 0.25 0.249375
          0.2475 0.249375 0.2475 0.244375 0.244375 0.249375 0.2475 0.249375 0.244375 0.2475 0.244375 0.24
          0.234375 0.24 0.234375 0.2275 0.219375 0.2275 0.219375 0.24 0.234375 0.24 0.234375 0.2275
          0.219375 0.2275 0.249375 0.2475 0.244375 0.249375 0.2475 0.249375 0.2475 0.244375 0.244375 0.24
          0.234375 0.2275 0.219375 0.219375 0.24 0.234375 0.24 0.234375 0.2275 0.219375 0.2275 0.219375
          0.2275 0.234375 0.2275 0.234375 0.24 0.244375 0.24 0.2275 0.234375 0.24 0.244375 0.244375
          0.2475 0.2475 0.249375 0.25 0.249375 0.25 0.2475 0.249375 0.25 0.2275 0.234375 0.2275
          0.234375 0.24 0.244375 0.24 0.244375 0.2275 0.234375 0.2275 0.234375 0.24 0.244375 0.24
          0.2475 0.2475 0.249375 0.25 0.249375 0.25 0.2475 0.244375 0.2475 0.249375 0.25 0.249375
          0.25 0.249375 0.2475 0.249375 0.244375 0.2475 0.244375 0.249375 0.2475 0.244375 0.24 0.234375
          0.24 0.234375 0.2275 0.219375 0.2275 0.24 0.234375 0.2275 0.219375 0.219375 0.249375 0.2475
          0.249375 0.2475 0.244375 0.244375 0.249375 0.2475 0.249375 0.244375 0.2475 0.244375 0.24 0.234375
          0.24 0.234375 0.2275 0.219375 0.2275 0.219375 0.24 0.234375 0.24 0.234375 0.2275 0.219375
          0.2275 0.219375 0.21 0.21 0.21 0.199375 0.199375 0.1875 0.1875 0.199375 0.1875 0.21
          0.199375 0.1875 0.174375 0.174375 0.16 0.174375 0.16 0.144375 0.144375 0.16 0.144375 0.174375
          0.16 0.144375 0.21 0.21 0.199375 0.1875 0.199375 0.1875 0.21 0.21 0.199375 0.1875
          0.199375 0.1875 0.174375 0.16 0.174375 0.16 0.144375 0.144375 0.174375 0.16 0.174375 0.144375
          0.16 0.144375 0.1275 0.1275 0.109375 0.109375 0.1275 0.109375 0.09 0.09 0.069375 0.09
          0.1275 0.109375 0.09 0.069375 0.069375 0.069375 0.0475 0.0475 0.0475 0.024375 0.024375 0
          0 0.024375 0 0.0475 0.024375 0 0.1275 0.109375 0.1275 0.109375 0.09 0.069375
          0.09 0.069375 0.1275 0.109375 0.1275 0.109375 0.09 0.069375 0.09 0.0475 0.0475 0.024375
          0 0.024375 0 0.0475 0.069375 0.0475 0.024375 0 0.024375 0 0.21 0.199375
          0.1875 0.21 0.21 0.199375 0.1875 0.199375 0.1875 0.174375 0.16 0.144375 0.174375 0.16
          0.174375 0.16 0.144375 0.144375 0.21 0.21 0.199375 0.1875 0.199375 0.1875 0.21 0.199375
          0.1875 0.174375 0.16 0.174375 0.144375 0.16 0.144375 0.174375 0.16 0.144375 0.1275 0.109375
          0.09 0.069375 0.1275 0.109375 0.1275 0.109375 0.09 0.069375 0.09 0.069375 0.0475 0.024375
          0 0.0475 0.0475 0.024375 0 0.024375 0 0.1275 0.109375 0.1275 0.109375 0.09