<?xml version="1.0"?>
<VTKFile type="UnstructuredGrid" version="0.1" byte_order="LittleEndian">
  <UnstructuredGrid>
    <Piece NumberOfCells="13826" NumberOfPoints="55304">
      <PointData Scalars="p">
        <DataArray type="Float32" Name="p" NumberOfComponents="1" format="ascii">
          0.0389323 0.0401462 0.0385655 0.0397794 0.0293769 0.0294891 0.0298049 0.0299171 0.0126992 0.0128292 0.0127095 0.0128395
          0.0404316 0.0397105 0.0405448 0.0398237 0.00672802 0.00661656 0.00671674 0.00660528 0.000616006 0.000466471 0.000485763 0.000336228
          0.0303061 0.0298976 0.0306513 0.0302427 0.0443391 0.0439689 0.043315 0.0429448 0.0350401 0.0355238 0.0356673 0.036151
          0.0513734 0.0513356 0.0518643 0.0518266 0.0226551 0.0227877 0.0226769 0.0228094 0.0225693 0.0222247 0.0224505 0.0221059
          0.0520361 0.0517575 0.0521249 0.0518463 0.0236211 0.0234996 0.0235854 0.023464 0.037079 0.0370778 0.0364934 0.0364922
          0.0272201 0.0275483 0.0276512 0.0279794 0.050432 0.0503665 0.0505209 0.0504554 0.0155091 0.0153673 0.0154549 0.015313
          0.0182478 0.0183818 0.0182541 0.0183881 0.028354 0.0279122 0.028755 0.0283132 0.0533897 0.0532739 0.0538407 0.0537248
          0.024024 0.0239928 0.0241493 0.0241181 0.0335173 0.0332985 0.034121 0.0339022 0.0239777 0.0240881 0.0239788 0.0240891
          0.0505526 0.050714 0.0508679 0.0510293 0.0578457 0.0574018 0.0585721 0.0581281 0.00356364 0.00369206 0.00356255 0.00369097
          0.0283531 0.0286041 0.0282588 0.0285098 0.0385469 0.0396204 0.0388943 0.0399679 0.0238795 0.0238651 0.0237656 0.0237512
          0.0212648 0.0214129 0.0212839 0.021432 0.027339 0.0277633 0.0273451 0.0277693 0.0181164 0.0182554 0.0181264 0.0182654
          0.0541293 0.0540664 0.0544106 0.0543476 0.0253863 0.0252256 0.025321 0.0251604 0.0279184 0.0284239 0.0275339 0.0280393
          0.00996696 0.009837 0.00995532 0.00982536 0.0535104 0.0531737 0.0533594 0.0530227 0.0255885 0.0254993 0.0257425 0.0256532
          0.0449181 0.0453719 0.0454347 0.0458884 0.0502208 0.0499134 0.0504763 0.0501688 0.00800189 0.00804009 0.00813087 0.00816907
          0.0198104 0.0198176 0.0199446 0.0199519 0.0516697 0.0516002 0.0512991 0.0512296 0.0246319 0.0246647 0.0247631 0.0247959
          0.0516231 0.0515071 0.0522451 0.0521291 0.0372393 0.0375683 0.0384164 0.0387454 0.0329684 0.0330042 0.0336169 0.0336526
          0.0110891 0.0110907 0.0112419 0.0112435 0.0110967 0.0109559 0.0110604 0.0109196 0.0131343 0.0131231 0.0132542 0.013243
          0.0506155 0.0508061 0.050917 0.0511075 0.0598578 0.0601879 0.0589369 0.0592671 0.0250099 0.0249532 0.0248947 0.024838
          0.00522296 0.00524469 0.00535298 0.0053747 0.0483557 0.0479603 0.0476146 0.0472191 0.017807 0.0176654 0.0177756 0.017634
          0.0266501 0.0267533 0.0264869 0.0265901 0.0221926 0.0217038 0.0215762 0.0210874 0.0479167 0.048432 0.0484688 0.048984
          0.0265903 0.0261252 0.0265486 0.0260834 0.022204 0.0223447 0.0222275 0.0223682 0.0258936 0.0259574 0.0260051 0.0260689
          0.023701 0.0237357 0.0238221 0.0238567 0.0282584 0.0282944 0.0277472 0.0277832 0.0501416 0.0495173 0.0495568 0.0489326
          0.0188221 0.0179286 0.0188549 0.0179614 0.0504161 0.0503476 0.0505556 0.0504872 0.0515504 0.0514797 0.0513215 0.0512507
          0.0252114 0.025047 0.0251523 0.0249879 0.0178304 0.0178628 0.0179692 0.0180016 0.0238849 0.0238706 0.0237512 0.0237369
          0.0236205 0.0236102 0.0234959 0.0234855 0.00843616 0.00840828 0.00832233 0.00829444 0.0256121 0.0256655 0.025722 0.0257754
          0.0457273 0.0464841 0.0458922 0.046649 0.0394169 0.0390704 0.03865 0.0383035 0.0436949 0.0441176 0.0442025 0.0446251
          0.0240191 0.0238901 0.0239893 0.0238603 0.0152649 0.0152836 0.0153807 0.0153995 0.0279186 0.0276408 0.0277772 0.0274994
          0.00969927 0.00982745 0.00971687 0.00984505 0.0178601 0.0179843 0.0178987 0.0180229 0.0536323 0.0542731 0.0531034 0.0537442
          0.0247919 0.0248626 0.024884 0.0249547 0.0298049 0.0297401 0.029297 0.0292323 0.0391587 0.0394793 0.0398066 0.0401272
          0.0526627 0.0530098 0.0528117 0.0531588 0.0248097 0.0248579 0.0249531 0.0250013 0.0432884 0.0428078 0.0433557 0.0428751
          0.021653 0.0220301 0.0224173 0.0227944 0.0311399 0.0314583 0.0314871 0.0318055 0.0321941 0.0326595 0.0318671 0.0323326
          0.0191095 0.0193666 0.0197256 0.0199827 0.0471828 0.0479319 0.0477689 0.0485181 0.0209324 0.0207881 0.0208842 0.02074
          0.0522931 0.0526372 0.0521425 0.0524866 0.0275108 0.0273521 0.0276644 0.0275057 0.0518186 0.0515313 0.0518515 0.0515643
          0.054728 0.0555063 0.0547254 0.0555038 0.0260418 0.025903 0.0260331 0.0258943 0.0250846 0.0253804 0.025296 0.0255918
          0.0251125 0.025155 0.0252346 0.025277 0.0232848 0.0232626 0.023156 0.0231338 0.050954 0.0510719 0.0513697 0.0514877
          0.0185711 0.0187595 0.0177932 0.0179816 0.0235709 0.0235835 0.0234559 0.0234685 0.0203342 0.0204663 0.02037 0.0205021
          0.0227873 0.0227535 0.0226725 0.0226386 0.0230304 0.0230467 0.0228728 0.0228891 0.0136471 0.0135002 0.0136597 0.0135128
          0.0561409 0.0562006 0.0567082 0.0567678 0.000245902 0.000249792 0.000194676 0.000198567 0.0562147 0.0564306 0.0565673 0.0567833
          0.0272151 0.0269262 0.0268771 0.0265883 0.0448924 0.0455215 0.0446003 0.0452295 0.0550795 0.0553989 0.0552445 0.0555639
          0.0200796 0.0202119 0.0200901 0.0202225 0.0527655 0.0527011 0.0532599 0.0531955 0.0365515 0.0371061 0.0360644 0.036619
          0.0382314 0.0386469 0.0389914 0.0394069 0.041893 0.0422742 0.0411352 0.0415165 0.0220587 0.0225249 0.0215916 0.0220578
          0.0303238 0.0302251 0.0298724 0.0297737 0.0243122 0.0240059 0.0243826 0.0240763 0.0160939 0.0159474 0.0160588 0.0159124
          0.00699532 0.0070026 0.00686561 0.00687289 0.0276341 0.0273782 0.0275117 0.0272557 0.0206282 0.0206298 0.0207774 0.020779
          0.0488292 0.0494895 0.0487448 0.049405 0.0197905 0.019929 0.0198065 0.019945 0.00686202 0.00674038 0.0068518 0.00673016
          0.0257688 0.0258129 0.0258855 0.0259296 0.0261683 0.02636 0.0262598 0.0264515 0.0240496 0.023964 0.0239638 0.0238782
          0.0528046 0.0528293 0.0521391 0.0521639 0.0018768 0.00177249 0.00178938 0.00168507 0.0196618 0.0195213 0.019641 0.0195005
          0.0138147 0.0138236 0.0139323 0.0139412 0.0532852 0.0528823 0.0535225 0.0531196 0.059722 0.0596092 0.059087 0.0589742
          0.0163195 0.0164589 0.0163158 0.0164552 0.0443841 0.0436092 0.0439469 0.043172 0.0233501 0.0233393 0.023212 0.0232012
          0.000732541 0.000589496 0.000649116 0.000506071 0.0544708 0.0540145 0.0543789 0.0539226 0.0416123 0.0412977 0.0409243 0.0406098
          0.0193773 0.0192349 0.0193538 0.0192114 0.0257558 0.0260214 0.0264047 0.0266703 0.0494443 0.0489361 0.0489453 0.0484371
          0.0299151 0.0302573 0.0290881 0.0294302 0.0229132 0.0231169 0.0235644 0.0237681 0.0227197 0.0228774 0.0227278 0.0228856
          0.0538954 0.0533492 0.0533699 0.0528238 0.019091 0.0189495 0.0190658 0.0189244 0.0383346 0.0378268 0.0385585 0.0380507
          0.0260068 0.026094 0.026117 0.0262042 0.0515957 0.0515551 0.0512633 0.0512227 0.0583627 0.0577703 0.0576131 0.0570206
          0.0468513 0.0473022 0.0470432 0.0474942 0.0188059 0.018665 0.0187789 0.0186381 0.0140946 0.0142213 0.0141102 0.0142369
          0.0209053 0.0209128 0.0210376 0.0210451 0.0595571 0.0602431 0.0591162 0.0598022 0.0243628 0.0242395 0.0243384 0.0242151
          0.0487584 0.0487138 0.0480208 0.0479762 0.0185214 0.0183811 0.0184952 0.0183549 0.0165977 0.0164495 0.016617 0.0164688
          0.0245927 0.0242965 0.0244975 0.0242012 0.0280153 0.0283167 0.0279286 0.02823 0.0170663 0.0170447 0.016928 0.0169064
          0.0308394 0.0310835 0.030407 0.0306511 0.0549285 0.0553655 0.0552103 0.0556473 0.0456046 0.0462458 0.045256 0.0458972
          0.0354577 0.0361398 0.0352317 0.0359139 0.0309919 0.0302801 0.0303619 0.0296501 0.00341838 0.00329712 0.00339815 0.0032769
          0.0265395 0.0264499 0.0264553 0.0263657 0.02132 0.0212005 0.0214011 0.0212816 0.028369 0.0288493 0.0279703 0.0284506
          0.048152 0.0482872 0.0477374 0.0478727 0.0568423 0.0564414 0.0570538 0.0566529 0.0417989 0.0424199 0.0421607 0.0427816
          0.0263196 0.0259874 0.0258311 0.0254989 0.0271196 0.0273639 0.0272483 0.0274926 0.000252682 0.000194437 0.00031886 0.000260615
          0.0515959 0.0517781 0.0514884 0.0516706 0.000233579 0.000317799 3.64978e-05 0.000120718 0.0234431 0.0233402 0.0234189 0.023316
          0.0195197 0.019504 0.0193811 0.0193654 0.049202 0.0489565 0.0488917 0.0486462 0.0546728 0.0545475 0.0546611 0.0545358
          0.0184467 0.01834 0.0185277 0.018421 0.0576977 0.0571507 0.0577638 0.0572167 0.00771649 0.00782521 0.00780162 0.00791033
          0.0407389 0.0410683 0.0412362 0.0415655 0.0254032 0.0253129 0.0257359 0.0256456 0.0510269 0.0510394 0.050589 0.0506015
          0.0571702 0.0569931 0.056768 0.056591 0.0211231 0.0212628 0.021138 0.0212778 0.0415042 0.0419658 0.0406207 0.0410823
          0.017726 0.0176079 0.0177202 0.0176022 0.0242223 0.0243683 0.0242066 0.0243526 0.02059 0.0211212 0.0204266 0.0209578
          0.0253694 0.0254537 0.0255149 0.0255992 0.0531692 0.0528332 0.0533242 0.0529882 0.00613902 0.00612913 0.00630395 0.00629406
          0.0182608 0.018367 0.0182776 0.0183838 0.0303404 0.0295817 0.0305131 0.0297544 0.00820565 0.00816971 0.00807858 0.00804264
          0.0496932 0.0502521 0.0496559 0.0502147 0.0253878 0.0255396 0.0253205 0.0254723 0.0476106 0.0479888 0.0477644 0.0481426
          0.0483827 0.047997 0.0491173 0.0487316 0.0174568 0.017326 0.0174512 0.0173204 0.0319224 0.0323891 0.0322297 0.0326964
          0.0171727 0.0170457 0.0171767 0.0170496 0.0533331 0.0532022 0.0535721 0.0534412 0.0323315 0.0321407 0.0327712 0.0325803
          0.023872 0.0237433 0.0238477 0.0237191 0.0166439 0.0166193 0.0165176 0.016493 0.0206382 0.0208376 0.0211666 0.0213659
          0.0228195 0.0229432 0.0228503 0.022974 0.0264423 0.0266432 0.0263584 0.0265593 0.0517147 0.0519135 0.0512448 0.0514435
          0.0227428 0.0227275 0.0229116 0.0228962 0.0450139 0.0442915 0.045162 0.0444397 0.0100881 0.0100734 0.0102445 0.0102298
          0.0211806 0.0211891 0.0213156 0.021324 0.0505178 0.0500996 0.0499425 0.0495244 0.0577195 0.0572178 0.0576356 0.0571339
          0.0425807 0.0420536 0.0425547 0.0420275 0.0541933 0.0536357 0.0541784 0.0536208 0.0243584 0.0243706 0.0244957 0.0245079
          0.0401026 0.0404973 0.0406696 0.0410642 0.0230549 0.0230556 0.0229098 0.0229104 0.0103949 0.0102407 0.0103797 0.0102255
          0.0542021 0.0546681 0.0534758 0.0539417 0.00671439 0.00684418 0.00671767 0.00684746 0.0372072 0.0377116 0.0364616 0.036966
          0.0403542 0.0396131 0.0404808 0.0397397 0.0217419 0.0210549 0.021632 0.0209451 0.0466333 0.0471031 0.0462903 0.04676
          0.00633238 0.00626452 0.00618307 0.00611521 0.0507848 0.0513731 0.0509514 0.0515397 0.0258736 0.0258843 0.0258139 0.0258246
          0.0319804 0.0319428 0.0313071 0.0312695 0.0462663 0.0461195 0.046828 0.0466812 0.0254375 0.0254983 0.0253815 0.0254423
          0.0360486 0.0367842 0.0361192 0.0368549 0.0181027 0.0179658 0.0181002 0.0179632 0.0269358 0.0269922 0.0267054 0.0267619
          0.0155588 0.0155272 0.015432 0.0154005 0.0266589 0.0264807 0.0267934 0.0266151 0.0272803 0.0270454 0.0271335 0.0268985
          0.0152551 0.015397 0.0153102 0.015452 0.0165339 0.0165358 0.0166741 0.016676 0.0532191 0.0530421 0.0529132 0.0527362
          0.049958 0.0492282 0.0509169 0.0501872 0.024244 0.0246591 0.0244237 0.0248387 0.0551775 0.0549051 0.0548853 0.0546129
          0.0257741 0.0258196 0.0257801 0.0258256 0.0250902 0.0249562 0.0251705 0.0250365 0.0204271 0.0203051 0.0210201 0.0208981
          0.0306003 0.0310062 0.0316468 0.0320527 0.0250317 0.0250557 0.0251341 0.0251581 0.0413054 0.0417019 0.041806 0.0422024
          0.0256358 0.0256679 0.0257553 0.0257874 0.0124479 0.0125831 0.0124666 0.0126017 0.0109522 0.0110945 0.0109748 0.0111171
          0.0297487 0.0292389 0.030104 0.0295942 0.0167255 0.0168444 0.0166676 0.0167866 0.0263411 0.0262245 0.0262122 0.0260956
          0.0129687 0.0129803 0.0131059 0.0131175 0.0257933 0.025789 0.0257482 0.0257438 0.0214596 0.0214697 0.0215978 0.0216079
          0.0239646 0.0240078 0.0238397 0.0238828 0.0446809 0.0451414 0.0439839 0.0444445 0.0225673 0.0225647 0.0227325 0.0227298
          0.0305471 0.0300141 0.0303675 0.0298346 0.0575986 0.0571534 0.0575225 0.0570773 0.0508021 0.0513161 0.0506848 0.0511988
          0.0255229 0.0255879 0.0255602 0.0256251 0.0282742 0.0279638 0.028339 0.0280286 0.0249146 0.024938 0.0250305 0.0250539
          0.0113947 0.0114076 0.0112596 0.0112725 0.0435368 0.0428543 0.0431386 0.0424561 0.0160027 0.0160141 0.0161165 0.0161279
          0.0493487 0.0488533 0.0495496 0.0490542 0.0521928 0.0525458 0.0522038 0.0525568 0.0261711 0.0262198 0.0260603 0.026109
          0.0543187 0.053758 0.0538623 0.0533016 0.02662 0.0264771 0.0268495 0.0267066 0.0233635 0.0233287 0.0228982 0.0228634
          0.025244 0.0253052 0.0253152 0.0253765 0.0352279 0.0352309 0.0359159 0.0359189 0.0490194 0.0487345 0.0486524 0.0483675
          0.0238732 0.0238869 0.023982 0.0239957 0.0376686 0.0369258 0.0378999 0.0371571 0.0125537 0.0126499 0.0126732 0.0127694
          0.0614136 0.0622574 0.0615859 0.0624297 0.0521241 0.0517004 0.0521983 0.0517746 0.0476053 0.0471964 0.047953 0.047544
          0.0324097 0.0313781 0.0330955 0.0320639 0.0466904 0.0461407 0.0461692 0.0456195 0.0240634 0.024165 0.0241325 0.0242341
          0.00299578 0.0031337 0.00300068 0.0031386 0.0533149 0.0530823 0.0540625 0.0538299 0.020783 0.0209303 0.0208347 0.020982
          0.0109352 0.0109412 0.0110866 0.0110926 0.0225743 0.0225621 0.0224186 0.0224064 0.0230139 0.0229919 0.0228883 0.0228663
          0.00147511 0.00153045 0.00160353 0.00165887 0.0389841 0.0384584 0.0394591 0.0389333 0.0143573 0.0144089 0.0142093 0.0142609
          0.0255068 0.0250754 0.0252335 0.0248021 0.0165321 0.0164684 0.0163946 0.0163309 0.0494435 0.0491411 0.0491662 0.0488637
          0.021744 0.0217536 0.0218824 0.0218921 0.0495213 0.0501679 0.0494495 0.0500961 0.00529522 0.0052456 0.00515311 0.00510349
          0.00745804 0.00731093 0.00747313 0.00732602 0.0236215 0.023634 0.0237396 0.023752 0.0246058 0.0247103 0.0245418 0.0246463
          0.00506422 0.00506689 0.00492682 0.00492949 0.0256483 0.025586 0.0255181 0.0254558 0.0502929 0.0502883 0.0496687 0.049664
          0.0527881 0.05246 0.0525959 0.0522678 0.025409 0.0253325 0.0255646 0.0254881 0.0407083 0.0414383 0.0400676 0.0407975
          0.02049 0.0204871 0.0203567 0.0203538 0.0127106 0.0128514 0.0126616 0.0128024 0.0133912 0.0133934 0.0135234 0.0135256
          0.0136736 0.0136782 0.0138048 0.0138095 0.0210157 0.020956 0.0208821 0.0208223 0.027309 0.0271567 0.027149 0.0269967
          0.0163063 0.0163216 0.0161855 0.0162007 0.050389 0.0505026 0.0508251 0.0509387 0.0567396 0.0570253 0.0564643 0.05675
          0.0259284 0.0258946 0.0258684 0.0258346 0.0367645 0.0366299 0.0361645 0.0360299 0.0229439 0.0228162 0.0229279 0.0228002
          0.0259932 0.0263201 0.0264545 0.0267814 0.0297854 0.0302148 0.0296708 0.0301002 0.0169314 0.0170621 0.0169015 0.0170322
          0.0297876 0.0302163 0.0297116 0.0301403 0.0569165 0.0576153 0.0568111 0.0575099 0.0608569 0.0606388 0.0612765 0.0610584
          0.0479585 0.047994 0.0473167 0.0473522 0.0548631 0.0551465 0.0552935 0.055577 0.00857412 0.00844282 0.00856165 0.00843035
          0.0472823 0.0466915 0.0469158 0.0463251 0.0258797 0.0258564 0.0258712 0.0258479 0.0243336 0.0245619 0.0242791 0.0245074
          0.00178604 0.00185567 0.0019182 0.00198782 0.0329234 0.0321292 0.033031 0.0322368 0.0479411 0.0483905 0.048575 0.0490245
          0.0268934 0.0267948 0.0266811 0.0265825 0.0265036 0.026435 0.0266186 0.02655 0.017315 0.0171848 0.0173112 0.017181
          0.0274981 0.0270961 0.0269385 0.0265366 0.0546314 0.0545593 0.0545713 0.0544991 0.0233461 0.0233563 0.0234759 0.0234861
          0.00956126 0.00969443 0.00957354 0.00970672 0.0243313 0.0244245 0.0244244 0.0245176 0.0423137 0.0425002 0.0429091 0.0430956
          0.051573 0.051123 0.0522003 0.0517503 0.0129549 0.0128495 0.0128747 0.0127693 0.0267012 0.0269304 0.0268481 0.0270772
          0.0198297 0.019789 0.019689 0.0196484 0.033314 0.034294 0.03355 0.03453 0.018108 0.0182428 0.0181116 0.0182464
          0.0247711 0.0248016 0.0249081 0.0249386 0.022035 0.0220399 0.0221618 0.0221667 0.0535852 0.0535151 0.0542429 0.0541728
          0.0193843 0.0193964 0.0195201 0.0195322 0.0222091 0.0225599 0.022381 0.0227318 0.000225269 0.000262726 0.000122081 0.000159537
          0.0568919 0.0565331 0.0566765 0.0563177 0.0479603 0.0483822 0.0471967 0.0476186 0.0200734 0.0200727 0.0199459 0.0199452
          0.0273721 0.0271651 0.0275003 0.0272933 0.0263619 0.0261984 0.0261822 0.0260187 0.0161333 0.0161361 0.0162551 0.0162578
          0.0230578 0.0230629 0.023197 0.0232021 0.0344894 0.0351782 0.0349583 0.0356472 0.0576964 0.0579855 0.0572807 0.0575698
          0.0112929 0.0114255 0.0112122 0.0113449 0.0304436 0.029684 0.0298399 0.0290803 0.0207697 0.0208194 0.0208991 0.0209489
          0.0294697 0.0293593 0.0289906 0.0288802 0.0274052 0.0274166 0.0277133 0.0277247 0.0238963 0.0239116 0.0240222 0.0240375
          0.00644982 0.00659353 0.00646906 0.00661277 0.0243725 0.0243542 0.0237235 0.0237052 0.0279141 0.0275126 0.0280267 0.0276253
          0.00342457 0.00355662 0.00342053 0.00355257 0.0505777 0.0503574 0.0508112 0.0505909 0.0295364 0.0301112 0.0291394 0.0297142
          0.00493062 0.00495862 0.00506721 0.00509521 0.0175957 0.0174683 0.0175899 0.0174624 0.0444499 0.0438594 0.0448172 0.0442266
          0.0233142 0.0235737 0.0236889 0.0239485 0.0430852 0.0422026 0.0431407 0.0422581 0.00546826 0.00553531 0.00561034 0.0056774
          0.0456649 0.045758 0.0449376 0.0450307 0.0292435 0.0289218 0.0297823 0.0294606 0.0356322 0.0352323 0.0362402 0.0358403
          0.014927 0.0149935 0.0150595 0.015126 0.0209521 0.0210231 0.0210849 0.0211558 0.0271077 0.0268655 0.0271516 0.0269094
          0.00436183 0.00423005 0.00432408 0.0041923 0.0113595 0.0114928 0.0112878 0.0114212 0.0388319 0.0391596 0.0394491 0.0397767
          0.0522723 0.05275 0.0523012 0.0527789 0.0511355 0.0510387 0.050855 0.0507582 0.028363 0.0289464 0.0282191 0.0288025
          0.0335686 0.0335211 0.0329074 0.03286 0.023442 0.0233115 0.0233812 0.0232507 0.0326604 0.0330475 0.0322439 0.032631
          0.0114144 0.0114036 0.0115498 0.011539 0.00313893 0.00327591 0.0031434 0.00328038 0.0369706 0.0362275 0.0369482 0.0362051
          0.0223858 0.0222616 0.021756 0.0216319 0.050458 0.050111 0.0495651 0.0492181 0.0123021 0.012439 0.0123219 0.0124588
          0.0568608 0.0574972 0.0573196 0.057956 0.0212328 0.0215708 0.0219266 0.0222646 0.0240609 0.023943 0.0240543 0.0239364
          0.0259011 0.0260757 0.0258497 0.0260243 0.031388 0.0320439 0.0319313 0.0325872 0.0286423 0.0287777 0.0279927 0.0281281
          0.0238354 0.0237308 0.0238116 0.023707 0.0263486 0.0261563 0.0264186 0.0262263 0.0427092 0.0427795 0.0420105 0.0420808
          0.0040842 0.00395392 0.00404645 0.00391617 0.0245005 0.024518 0.024632 0.0246495 0.0225252 0.0223819 0.0224951 0.0223519
          0.0237385 0.0238596 0.023767 0.0238881 0.0549671 0.0546509 0.0545226 0.0542064 0.0292404 0.0291431 0.0296235 0.0295262
          0.0106576 0.0106653 0.0105273 0.010535 0.0229492 0.0234321 0.0231789 0.0236618 0.0231245 0.0232663 0.0231614 0.0233031
          0.0269441 0.0267755 0.0270034 0.0268347 0.0254851 0.0255283 0.0256097 0.0256528 0.0228411 0.0227445 0.0223685 0.0222718
          0.0219599 0.0217546 0.0214352 0.0212299 0.0224753 0.022423 0.0226328 0.0225805 0.0239475 0.0242851 0.0242863 0.0246239
          0.0205984 0.0205429 0.0204606 0.0204051 0.0317079 0.0322561 0.0316862 0.0322344 0.00966834 0.00982038 0.00960174 0.00975377
          0.0361436 0.0364209 0.0368146 0.0370918 0.030881 0.0303294 0.030721 0.0301693 0.0411363 0.0416779 0.0406933 0.041235
          0.0555636 0.0554775 0.0547354 0.0546493 0.0224273 0.0224211 0.022545 0.0225388 0.0369962 0.0362566 0.0369068 0.0361672
          0.0218401 0.0210996 0.0211638 0.0204233 0.0546688 0.0547192 0.0545618 0.0546122 0.0239412 0.0240324 0.0235947 0.0236859
          0.0319097 0.0314461 0.0321927 0.0317292 0.0216285 0.0215581 0.0215073 0.0214369 0.0260021 0.0260766 0.0261152 0.0261896
          0.025755 0.0258548 0.0257376 0.0258373 0.0259269 0.0259243 0.0258217 0.0258191 0.0376405 0.0383844 0.0375148 0.0382588
          0.0538771 0.0541813 0.0541114 0.0544156 0.0239457 0.0236966 0.0234003 0.0231512 0.0258423 0.0258877 0.0256941 0.0257394
          0.0178535 0.0177288 0.0178422 0.0177175 0.0264555 0.0266069 0.0263578 0.0265091 0.0163961 0.0163972 0.0165269 0.016528
          0.0234769 0.0232127 0.0229273 0.0226631 0.049228 0.0495925 0.0496951 0.0500596 0.0509729 0.0514584 0.0512173 0.0517028
          0.00455981 0.00469123 0.00464892 0.00478034 0.0555874 0.0554827 0.0549843 0.0548796 0.0257117 0.0255548 0.0257528 0.0255958
          0.0475757 0.0472459 0.0467669 0.0464371 0.025883 0.0259439 0.0259731 0.026034 0.0223883 0.022529 0.0224227 0.0225633
          0.0231456 0.0231362 0.0223605 0.0223511 0.0112562 0.0111191 0.0112302 0.0110931 0.0258534 0.0259008 0.0259413 0.0259887
          0.0504841 0.0510143 0.0501743 0.0507044 0.0237136 0.0238487 0.0237483 0.0238834 0.0178589 0.0178139 0.0177157 0.0176706
          0.0212097 0.0210719 0.0211691 0.0210312 0.0410981 0.0415797 0.0405949 0.0410764 0.0355236 0.0348387 0.0350656 0.0343807
          0.0459531 0.0454164 0.0462138 0.0456772 0.0252313 0.0251065 0.0244344 0.0243095 0.0528935 0.0530827 0.0526244 0.0528136
          0.0230002 0.0223625 0.023473 0.0228352 0.0225996 0.0225598 0.0230345 0.0229947 0.0266159 0.0269376 0.0265149 0.0268366
          0.0524193 0.0520557 0.0524908 0.0521272 0.0310666 0.0305239 0.0312585 0.0307158 0.0505632 0.0501548 0.0506771 0.0502688
          0.0226809 0.0226637 0.022821 0.0228039 0.0386931 0.0380365 0.0390253 0.0383687 0.0355454 0.0349585 0.0358971 0.0353102
          0.050633 0.0500358 0.050154 0.0495568 0.0544479 0.0545014 0.0544444 0.054498 0.024294 0.0240083 0.0242896 0.0240039
          0.0250553 0.0253136 0.024957 0.0252153 0.00574613 0.00568121 0.00560123 0.00553631 0.0203564 0.0204025 0.020493 0.020539
          0.0524086 0.0524913 0.0527726 0.0528553 0.0238407 0.0237298 0.0238398 0.0237288 0.0325755 0.0332238 0.0314265 0.0320748
          0.0209815 0.0211217 0.0209932 0.0211334 0.000198603 0.00023949 0.000234795 0.000275681 0.013154 0.0130442 0.0132479 0.0131381
          0.0185585 0.0185634 0.0187064 0.0187112 0.027019 0.0268235 0.0272622 0.0270667 0.0519573 0.0514491 0.0525565 0.0520483
          0.022789 0.0227086 0.0226847 0.0226043 0.0498237 0.0500711 0.0496901 0.0499375 0.0508429 0.0502111 0.0511086 0.0504767
          0.0296069 0.029699 0.0292392 0.0293313 0.0454497 0.0458805 0.0449336 0.0453644 0.0429377 0.0425095 0.0419751 0.0415469
          0.0249795 0.0251979 0.0248979 0.0251164 0.0240203 0.0239898 0.0238944 0.0238639 0.00553308 0.00546762 0.0053909 0.00532543
          0.0231496 0.0231279 0.0230214 0.0229997 0.00380042 0.00367305 0.00376547 0.00363809 0.0268171 0.0266462 0.0270526 0.0268818
          0.059585 0.0595691 0.0589962 0.0589803 0.00092308 0.000793179 0.000872963 0.000743062 0.0342422 0.0337155 0.0336566 0.0331299
          0.00523719 0.00521186 0.00510183 0.0050765 0.0442585 0.0436098 0.0443033 0.0436545 0.00210157 0.0020629 0.00197479 0.00193612
          0.00731777 0.00730931 0.00716396 0.0071555 0.0245344 0.0242566 0.024287 0.0240093 0.0546006 0.0552054 0.0550829 0.0556877
          0.0476414 0.047771 0.047069 0.0471986 0.0597255 0.0595016 0.0605482 0.0603243 0.0276963 0.0283225 0.0275497 0.028176
          0.027914 0.0285467 0.0274389 0.0280715 0.056345 0.0570661 0.0568901 0.0576112 0.0226169 0.0225966 0.0224855 0.0224653
          0.00960808 0.00974903 0.00954404 0.00968499 0.0216558 0.021535 0.0215781 0.0214573 0.00365913 0.00353496 0.00362443 0.00350026
          0.0250085 0.02503 0.024445 0.0244664 0.0243306 0.0243847 0.024477 0.0245311 0.0233182 0.023932 0.023197 0.0238108
          0.0205465 0.0206018 0.0206833 0.0207385 0.0231782 0.0231666 0.0233105 0.0232989 0.0237165 0.0235788 0.0237108 0.023573
          0.0183802 0.0182404 0.0183548 0.0182151 0.0282923 0.0276519 0.0285449 0.0279045 0.00736682 0.00733024 0.00722781 0.00719123
          0.0335512 0.0329709 0.0336685 0.0330882 0.0237369 0.0239314 0.0239649 0.0241595 0.0568818 0.0573192 0.0572155 0.0576528
          0.0562134 0.0563194 0.05655 0.056656 0.00610551 0.00603931 0.00596513 0.00589893 0.023889 0.0238482 0.0237427 0.0237019
          0.0238915 0.0239667 0.0235652 0.0236404 0.0335079 0.0341523 0.032853 0.0334974 0.0266312 0.0266678 0.0264977 0.0265343
          0.00765057 0.00761409 0.00751076 0.00747428 0.0120157 0.0121578 0.0120348 0.0121769 0.00520488 0.00523653 0.00506712 0.00509878
          0.0606552 0.0608126 0.0614452 0.0616026 0.0422525 0.0426052 0.0415865 0.0419393 0.0263357 0.0266048 0.0266509 0.02692
          0.0499184 0.0502812 0.0496264 0.0499892 0.0338692 0.0332902 0.0342238 0.0336449 0.0198104 0.0197986 0.0196722 0.0196604
          0.0273397 0.0272146 0.0270847 0.0269596 0.0107929 0.0107994 0.0109311 0.0109376 0.0216472 0.0211483 0.0217249 0.021226
          0.0259274 0.0258721 0.0258417 0.0257863 0.0405454 0.0409758 0.0413966 0.041827 0.0420181 0.0413641 0.0413622 0.0407083
          0.0182413 0.0181007 0.0182131 0.0180726 0.0226592 0.0228069 0.0226902 0.0228379 0.0433741 0.0426183 0.043002 0.0422462
          0.0479419 0.0475095 0.0478822 0.0474499 0.0234331 0.0234429 0.0235522 0.023562 0.0295838 0.0298692 0.0291533 0.0294387
          0.0237426 0.0237002 0.0235926 0.0235501 0.00715122 0.00701205 0.00714533 0.00700615 0.0117091 0.0118538 0.0117508 0.0118955
          0.0283364 0.0286288 0.0283482 0.0286406 0.0274405 0.0271346 0.0282482 0.0279424 0.0298685 0.0299573 0.0302487 0.0303374
          0.0223155 0.0228397 0.0223211 0.0228453 0.0430726 0.0427815 0.0421064 0.0418153 0.0603374 0.0595293 0.0601037 0.0592955
          0.0238199 0.0238226 0.023943 0.0239457 0.00604133 0.00611025 0.00617942 0.00624834 0.0562641 0.0561793 0.0559247 0.0558399
          0.0540658 0.0539487 0.0542502 0.0541332 0.0178686 0.0179069 0.0180042 0.0180424 0.0543266 0.054593 0.0543208 0.0545872
          0.0240649 0.024071 0.0242045 0.0242105 0.00250905 0.00247572 0.00238289 0.00234956 0.04933 0.0498222 0.0490694 0.0495616
          0.0231888 0.0229415 0.0225788 0.0223315 0.0133806 0.0133748 0.0135167 0.0135108 0.0504032 0.050458 0.0504789 0.0505337
          0.0355127 0.0362959 0.0352687 0.036052 0.0352699 0.0345094 0.0353225 0.034562 0.00136339 0.00138486 0.00148092 0.0015024
          0.0582146 0.0576775 0.0575854 0.0570483 0.0236063 0.0236378 0.0237375 0.023769 0.0232486 0.0233878 0.0232811 0.0234202
          0.0461357 0.045617 0.045548 0.0450293 0.0558237 0.0564927 0.0562872 0.0569562 0.0500529 0.0503408 0.0496869 0.0499748
          0.0260568 0.0261454 0.0260189 0.0261075 0.0201752 0.0201192 0.0200287 0.0199727 0.0186635 0.0185229 0.0186364 0.0184958
          0.0125758 0.0127182 0.0126486 0.0127909 0.05227 0.0520429 0.0527742 0.0525472 0.0151046 0.0149644 0.0150447 0.0149045
          0.00855694 0.00850769 0.00841769 0.00836844 0.0382627 0.0388431 0.0388044 0.0393848 0.0260231 0.026174 0.0259471 0.026098
          0.0423184 0.0428637 0.0416369 0.0421822 0.0103626 0.010369 0.0104999 0.0105063 0.0363813 0.0370072 0.0361475 0.0367734
          0.0276891 0.0278374 0.0275023 0.0276505 0.0199283 0.0199744 0.0200692 0.0201154 0.0314091 0.0308923 0.0315714 0.0310546
          0.0288925 0.0295814 0.0290675 0.0297564 0.0383901 0.0377985 0.0388116 0.03822 0.0253539 0.0253728 0.0251447 0.0251635
          0.0389513 0.0386128 0.0398515 0.0395129 0.0189246 0.0189479 0.019063 0.0190863 0.0472332 0.0466048 0.0478524 0.047224
          0.0540571 0.0537922 0.0538896 0.0536247 0.0241009 0.0239851 0.0241219 0.0240061 0.0336219 0.0328671 0.0334091 0.0326543
          0.0236688 0.0235496 0.0236979 0.0235787 0.0262775 0.0265949 0.026842 0.0271595 0.0260581 0.0263354 0.0264669 0.0267442
          0.0255742 0.0257238 0.0255501 0.0256998 0.0317779 0.0312509 0.032185 0.031658 0.0490932 0.0494902 0.049647 0.050044
          0.0587372 0.058314 0.0583017 0.0578784 0.0327923 0.0323143 0.0337491 0.0332711 0.0234485 0.0234144 0.023318 0.0232839
          0.00495177 0.00492525 0.00481423 0.00478771 0.0235994 0.0237048 0.0236021 0.0237075 0.0353706 0.0351921 0.0346765 0.0344981
          0.0565523 0.0571051 0.0559865 0.0565394 0.0473872 0.0476942 0.0478081 0.0481151 0.00620505 0.00631717 0.00629041 0.00640254
          0.0233095 0.0234537 0.0233785 0.0235226 0.0373393 0.0384003 0.0377614 0.0388224 0.033019 0.0340637 0.0324243 0.0334689
          0.0210766 0.0217083 0.0212082 0.0218399 0.0359822 0.0359982 0.0352926 0.0353085 0.0258139 0.0259723 0.0252144 0.0253727
          0.0217041 0.0211825 0.0217079 0.0211863 0.0236887 0.0238772 0.02392 0.0241085 0.0246459 0.0243627 0.0243388 0.0240555
          0.0614461 0.0619477 0.0613367 0.0618383 0.000203203 0.000243851 0.00023468 0.000275327 0.0105199 0.0105318 0.0103835 0.0103954
          0.0235878 0.0235525 0.0234542 0.023419 0.0522989 0.0529265 0.0528222 0.0534498 0.0253522 0.0254577 0.0252585 0.0253639
          0.0313869 0.0309421 0.031671 0.0312261 0.0266929 0.0267971 0.0262494 0.0263536 0.0226269 0.0227006 0.0224929 0.0225666
          0.0405961 0.0412529 0.0400845 0.0407413 0.00256688 0.00270708 0.00256626 0.00270646 0.00941918 0.00955671 0.00942652 0.00956405
          0.0224767 0.0223525 0.0228676 0.0227435 0.040953 0.0419482 0.0411412 0.0421364 0.048408 0.0478164 0.0491315 0.0485399
          0.0375339 0.0380276 0.0383346 0.0388283 0.0426656 0.0431552 0.042305 0.0427945 0.0560551 0.0559794 0.0554751 0.0553993