<?xml version="1.0"?>
<VTKFile type="UnstructuredGrid" version="0.1" byte_order="LittleEndian">
  <UnstructuredGrid>
    <Piece NumberOfCells="1670" NumberOfPoints="911">
      <CellData Scalars="S_aq">
        <DataArray type="Float32" Name="S_aq" NumberOfComponents="1" format="ascii">
          0.999881 0.0660681 0.0629143 0.11504 1 0.0743964 0.830083 1 0.996925 0.999998 0.984196 1
          0.998355 1 0.948165 1 1 0.96596 0.986998 1 1 0.933353 1 1
          0.9919 1 0.603847 1 1 0.692601 1 1 0.0638785 0.724666 1 0.0675698
          1 0.872355 1 1 0.996642 0.998315 0.997646 0.9984 1 0.998328 0.95306 1
          0.812298 1 0.0802452 1 1 0.0630705 1 0.162547 0.736854 1 0.065347 1
          0.998685 1 1 0.0674494 0.699131 0.0767987 1 0.203193 1 1 1 0.116993
          0.860623 0.999589 1 0.993979 0.994617 1 1 0.15962 0.997971 0.914226 1 1
          0.951357 0.994349 1 1 0.658228 1 1 0.0627547 1 0.620073 1 1
          0.065851 0.998909 0.0970205 0.782178 1 0.0737777 1 1 1 0.90972 0.557594 1
          0.0778469 0.309881 0.998461 0.0627056 0.0749986 0.832868 1 0.767079 1 0.0663561 1 1
          1 0.0763984 0.774027 0.0658806 0.0697506 0.358003 1 0.840192 1 0.0805196 0.997921 0.126614
          1 0.989884 0.992342 0.985292 0.989112 1 1 1 1 1 0.147521 1
          0.115789 0.86582 0.846138 1 1 1 1 0.0875621 1 1 0.0695034 0.816024
          1 0.0652359 0.742547 0.0688132 1 0.641884 0.418104 0.104998 0.951861 0.956529 0.82569 1
          0.946969 0.927965 1 0.250286 1 0.997475 1 0.998606 0.819774 1 0.070087 0.0936553
          1 0.995292 0.137478 0.901301 0.998532 1 1 0.308896 1 1 1 1
          1 0.998696 1 0.998245 1 0.350798 0.998919 0.992996 0.994614 0.984557 0.931734 0.931282
          0.588691 0.103802 0.0696318 1 0.0741235 1 0.478089 0.164115 0.905814 0.996999 0.999929 1
          1 1 0.0648643 0.0687982 1 1 0.726514 0.657139 0.845049 1 0.0620641 1
          0.562843 0.692538 1 0.0630493 1 1 0.407573 1 0.998693 0.998155 1 0.0764294
          1 0.775641 0.252862 0.999802 0.999581 0.99999 1 1 1 1 1 1
          0.108268 1 1 1 1 1 1 1 0.274709 0.36815 1 0.828329
          0.809839 1 1 1 1 1 1 1 1 0.631952 1 1
          1 1 1 0.477584 1 1 1 1 1 1 1 1
          0.0921999 1 0.999997 1 1 1 1 1 1 1 0.791839 1
          0.856073 1 0.143529 0.999968 1 1 1 1 1 0.981031 1 1
          1 1 1 1 1 1 1 1 1 1 1 0.52648
          1 1 1 1 1 1 1 0.726494 1 1 1 1
          1 1 0.70176 1 1 1 1 1 1 1 1 1
          1 1 1 0.616884 0.999391 1 1 1 1 1 1 1
          1 1 1 1 1 1 1 1 1 1 1 1
          1 1 0.498406 1 1 1 1 1 1 1 1 1
          1 1 1 0.819984 0.100186 1 1 0.149658 1 1 1 1
          1 1 1 1 0.997644 1 1 1 1 1 1 0.998341
          1 0.997933 1 1 1 1 0.996251 1 1 1 1 1
          0.999243 1 0.288219 1 1 1 1 1 1 1 1 1
          0.870413 1 1 1 1 1 1 1 0.999394 1 1 0.667743
          1 1 1 1 1 1 1 0.199491 1 1 0.998445 1
          1 1 1 1 1 1 1 1 1 1 0.815886 1
          1 1 1 1 1 1 0.998901 1 1 1 1 1
          1 1 1 1 1 1 1 1 1 1 1 0.663259
          0.996099 1 1 0.998058 1 1 1 1 1 1 1 1
          1 1 1 1 1 1 1 1 1 0.289857 0.999179 1
          1 1 0.992544 1 1 1 0.721006 0.842568 1 0.609152 1 1
          0.981968 1 1 1 1 1 0.904991 0.507082 1 1 1 1
          1 0.999217 1 1 1 1 1 1 0.324606 1 1 0.999499
          0.85608 1 1 0.151458 1 1 1 1 1 1 1 1
          1 1 1 0.675085 1 1 1 0.92723 1 1 1 1
          1 1 1 1 1 1 1 1 1 1 0.901213 0.993235
          1 0.682027 1 1 1 1 1 1 1 1 1 1
          1 1 1 1 1 1 0.848091 1 1 1 1 1
          0.895422 1 1 1 1 1 1 1 1 1 1 1
          1 1 1 1 1 1 1 1 1 1 1 1
          1 1 1 1 1 1 1 1 1 1 1 1
          1 1 1 1 1 0.679577 1 1 1 1 1 1
          1 1 1 1 1 1 1 1 1 1 1 1
          1 1 0.819757 1 1 1 1 1 1 1 1 1
          1 1 1 1 1 1 1 1 1 1 1 1
          0.946531 0.99909 1 0.733562 1 1 1 1 1 1 0.24466 0.741312
          0.797928 1 1 1 1 1 1 1 1 1 1 1
          1 1 1 1 1 1 1 1 0.352446 1 1 1
          1 1 1 1 1 0.987268 1 1 1 1 1 1
          0.977143 1 1 1 1 1 1 1 1 1 1 1
          1 1 1 1 1 0.998067 1 0.9772 1 1 1 1
          0.966745 1 0.815695 1 1 0.12011 1 1 1 1 1 1
          1 1 1 0.812322 1 1 1 1 1 1 1 1
          1 1 1 0.968017 1 1 1 1 1 1 1 1
          1 0.999636 1 1 1 1 1 1 1 0.0890811 1 1
          0.999719 0.382305 0.134864 1 1 1 1 0.998288 1 1 1 1
          1 1 1 1 1 1 1 1 1 0.530219 1 1
          1 1 1 0.644062 1 1 1 1 1 1 1 1
          0.673738 1 1 1 0.909603 1 1 1 1 1 1 0.194066
          1 1 1 1 1 1 1 1 0.709825 1 0.997985 1
          1 0.154139 1 1 1 0.999041 1 1 1 0.224044 1 1
          1 1 1 1 0.59781 1 0.449751 1 1 1 0.999933 0.999982
          1 1 1 1 0.455206 1 1 1 1 1 1 1
          1 0.660596 1 1 1 1 1 1 1 1 1 1
          1 1 0.568913 0.995032 1 0.231968 1 1 0.961912 1 1 1
          1 1 1 1 0.995558 1 1 1 1 1 1 1
          0.898967 1 0.787625 1 1 1 1 0.990975 0.629978 0.71901 0.974615 1
          0.834357 1 0.971736 1 1 1 1 1 0.954821 1 1 1
          1 1 0.0922933 1 1 0.13467 1 1 1 1 1 1
          1 1 0.779371 1 1 0.998516 0.99457 1 0.934826 1 0.327834 1
          1 1 1 1 1 1 1 1 1 1 1 1
          1 1 1 1 1 0.124343 0.801143 0.923263 1 1 1 1
          1 0.424273 1 0.842831 0.923065 1 1 1 1 1 1 1
          1 1 1 1 1 0.917319 1 1 1 1 0.923909 0.822721
          1 1 0.907157 1 1 1 1 1 1 1 1 1
          1 1 1 1 1 1 1 1 1 1 1 1
          1 0.895197 0.569014 1 1 1 1 1 1 1 1 1
          1 1 1 1 1 1 1 1 1 1 1 1
          1 1 1 1 1 1 0.675306 1 1 1 1 1
          1 1 1 1 1 0.742875 1 1 1 1 1 1
          1 1 1 0.904514 1 1 1 1 1 1 0.991363 1
          1 0.380846 1 1 1 1 1 1 1 1 1 1
          1 1 1 1 1 1 1 0.997838 1 1 0.999845 1
          1 1 1 1 1 1 1 1 1 1 0.748256 0.749734
          1 1 1 1 1 1 1 1 1 1 1 1
          1 1 1 1 1 1 1 1 1 1 1 1
          1 1 1 1 1 1 0.995758 1 1 1 1 1
          1 1 1 1 1 1 1 1 1 1 1 1
          1 0.78407 1 1 1 1 1 1 1 1 1 1
          1 0.99902 1 1 1 1 1 1 1 0.982501 1 1
          1 1 1 1 1 1 1 1 1 1 1 1
          1 0.599654 1 0.58918 0.998328 0.991362 1 0.546255 0.996795 1 1 1
          1 1 1 1 1 1 1 1 1 0.27696 0.624027 0.998296
          0.810715 1 0.984823 1 1 1 1 1 0.995835 1 1 1
          1 1 1 1 1 0.819868 1 1 1 1 1 1
          1 1 1 1 1 0.998477 1 1 1 1 1 1
          1 1 1 1 1 1 1 1 1 1 1 1
          1 0.850137 1 1 1 1 1 1 1 1 1 1
          1 1 1 1 1 0.918522 1 1 1 1 0.688416 0.99661
          1 0.478821 1 0.328157 1 1 1 1 1 1 1 1
          0.959384 1 1 1 1 1 1 1 1 0.500445 0.87401 1
          1 0.943031 0.428176 1 0.859325 1 1 1 1 1 1 0.781063
          1 1 1 1 1 0.997415 0.691155 0.999195 1 1 1 0.913443
          0.195833 1 1 1 1 1 1 1 1 1 1 1
          1 1 1 1 1 1 1 1 1 1 1 1
          1 1 1 1 1 1 1 1 1 1 1 0.149483
          0.0921275 1 1 0.221003 1 0.546163 1 1 1 1 1 1
          1 1 1 1 1 1 1 1 1 1 1 1
          1 0.132838 1 1 1 0.220545 1 1 1 1 1 1
          1 1 1 1 1 1 1 0.832215 1 1 1 1
          1 0.104634 1 0.164326 1 1 1 1 1 1 1 0.269241
          1 0.997567 1 1 1 1 1 1 1 1 1 1
          1 1 1 1 1 1 1 1 1 1 1 1
          0.122576 1 1 1 1 1 1 1 0.165382 1 0.333543 1
          1 1 1 1 1 1 0.998171 1 1 1 0.932212 1
          1 0.0904347 1 0.161606 1 1 1 1 1 0.966412 0.794612 1
          1 0.147404 1 0.401822 1 0.998643 1 1 1 1 1 1
          1 1 1 1 1 1 1 1 0.998163 1 1 1
          1 1 1 1 0.743723 1 1 1 0.906491 0.173383 1 1
          1 0.273689 1 1 1 1 1 1 1 1 1 1
          1 1 1 1 1 1 1 1 1 0.771184 1 0.991222
          1 1 1 1 1 1 1 1 1 1 1 1
          1 1 1 1 1 1 1 1 1 1 1 1
          1 0.978237 0.739392 1 1 0.99257 1 1 1 1 1 1
          0.843389 1 0.20674 1 1 1 0.0997548 1 0.121338 1 1 1
          1 1 1 1 1 1 1 1 0.9936 1 1 1
          1 1
        </DataArray>
        <DataArray type="Float32" Name="p_aq" NumberOfComponents="1" format="ascii">
          96461.9 100272 100688 99792.8 91058.8 100140 91347.9 91390.4 91020.9 96384.8 96414.3 95071.2
          97513.4 93658.7 96264.1 95251.3 93220.5 97960 96636.3 92678.4 97117.6 94053.3 93140.5 97337.1
          93828.6 94075.2 98476.4 92700.3 95709.6 95159.5 91056.5 95132.4 100365 94695.2 94669.7 100033
          91291.5 96232.1 95632.5 93858.8 98013.8 93160.7 96464.3 94669.8 96789.5 94357.6 95819.8 95285.6
          94569.8 94537.3 99408.9 91787.4 91030.6 100612 97959.5 98011.6 93182.3 93203.1 100255 91020.2
          95984 91330 95676.2 100072 95715 99131.3 93640.5 98984 92193 92292 95623 98870.7
          95711 94591.8 93873.1 94974 94502.7 96642.4 92235.9 98196.7 98165.2 92995.1 93656 97096.1
          95238.8 94068.5 94465.8 94730.9 96151.4 90973.1 96122 100559 95001.9 98355.9 92829.4 91295.1
          100298 98354.6 98416 92789.8 92812.3 99926.6 91281.4 92169 97550.6 93619.5 97578.1 93029.1
          99041.7 98913.7 92253.6 100743 99056 98871.4 90981.8 92263.2 92300.3 100264 90956 91862.2
          95853.9 99360.6 95917.5 100334 99464.8 99211.7 91311.6 91935.9 91970.8 99879.3 91282.5 98406.3
          92827.5 98347.1 92818 97292.8 97464.8 93693.7 96160.5 92356.5 95214.5 92149.1 98834.7 94769.1
          99040 95287.1 94812.8 91244.1 91736.2 93890.2 91753.1 99435.6 93702.5 91256.7 100012 93899.3
          97477.4 100305 93697.9 99666.5 97292.5 97326.7 97520.8 98771.3 97187 96707.9 97208.1 93221.8
          97550 97936.9 95930.6 98370.2 94173.3 96984.3 94139.4 97010.3 97462.3 91851.8 99546.9 98512.5
          92710.8 98461 99330.6 92693.5 91838.6 92559.1 92766.3 98371.1 96089.9 96554.1 94593.5 94111.6
          97369.6 93798.9 97558.1 93613.8 93222.7 98040 97952.5 93217.7 95438.4 95915.3 95050.2 94575.9
          98011.7 98683.3 99564.3 91864.1 99152.8 92192.6 98988.4 99317.8 92166.5 91839.9 95044.6 94610.7
          91192.1 91686.2 100320 99708.6 96605.7 96742.4 96774.2 96641.5 96669.3 90922.4 100690 97023.8
          97066.2 94151.5 94155.7 100440 90932.2 94556 98561.3 92622.1 95497.8 95279.2 91999.4 99255
          96436.7 96486.7 98226.9 95955.7 95059.5 95454.7 96266.5 96289.7 93437.7 93680.8 95841.2 98330.9
          100117 96067.1 98161.9 97208.1 95846.1 97652.2 95701 92058.4 99730.3 99811.1 94589.4 96306.4
          96254.5 95020.6 95157.7 96228.9 92817.6 92597.5 95213.5 95016.3 95684.1 98828.4 95378.8 93389.7
          93675.3 95512.4 93251.8 99453 95844 93366.7 95381.3 95284 93653.5 94631.3 91302.1 96901
          100143 93558 98773.8 96295.7 96298.4 94282 92583.4 95888.4 96416.5 96198.3 95241.4 93938.7
          94401.5 96302.8 99817.5 98611.6 95672.8 95323.4 95586.5 97953.8 95218.2 98927.4 97736.8 97421
          92885.8 95916.4 91661.5 92614.3 94462.1 92411 95886.1 95750.5 95073.5 93082.2 97186.2 99570
          95185 91489.7 95892.7 95682.8 94528.4 94178.7 93978.2 98271 95948.3 96807.4 93315.9 94060.2
          96955.3 94742.9 98767.5 98555.4 96390.6 98429.1 95314.5 95717.5 94161.6 91132.5 97351.5 95040.2
          94306.9 95472.1 96176.2 99063.9 97719.5 97349.1 95276.5 93584.3 95549.7 93674.4 95500.7 95368.2
          95558.2 96019.8 94531.6 91955.1 96255.7 98617.5 92003.7 94535 95949.1 95585.9 93498.7 97060.5
          95165.5 95204.9 99507.2 96687.8 96860.1 96714.4 91596.1 91939.2 93026 94693.8 98423.2 98289.3
          92324.4 93887.8 94628 97011.8 100147 96756.1 97829.1 99860.5 95430.6 97687.3 93389.8 98390.8
          94875 96707.4 97442.4 93900.8 98559.9 96968.8 96074.4 97868.9 95881.2 93150.9 97178.5 98232.9
          94857.7 92739.9 97619.9 92258.5 97255.3 94309.4 95390.2 95253.9 96199.1 95409.1 93937.3 92464.6
          96780.7 94937.2 99733.2 97464 92294.8 93214 94196.5 96111.5 95311.5 92259.7 95358.8 96381.7
          99233.5 92956 98519.8 95542.1 97469.4 92796.6 95521.6 93991.8 92256.6 98003.1 95220.1 98296.1
          95005.7 94062.6 96122 94232 95329 92665 93746.9 99988.4 93983.5 96504.9 98816.4 94401
          95751.5 96580.7 93695.8 93248.4 97502.1 95499.2 96058.8 94883.4 95170.8 91385.5 99227.6 91331.5
          91887.9 96003.6 95043.8 91306.8 91874.5 96747.8 98185.8 97016.6 94737.6 92969.3 97967.9 93155.7
          95334.1 94074.5 95161.2 94013.4 96967.8 91022.7 91347.9 91883.9 92752.5 95427.7 92897 97685
          94580.2 93676.3 95412.2 93892 96610.1 93133.2 94557.2 94965.8 97139.8 93406.1 94258.8 94569.1
          94361 93399.9 93222.5 93547.3 96711.4 92238.2 94544.7 96707.8 94538.8 99779.3 97720.3 94592.8
          94491.4 92087.5 99057.7 92929.2 95164.2 95007 97740.3 99307.2 95450.3 99368.1 95020.1 94700.8
          98890.5 95602.9 94491.9 94618.9 94938.9 92795.7 98916.5 99259.7 95059.4 92641.2 96371.2 97760.2
          94309.9 97257.6 94925.4 96089.5 94927.3 94083.1 94169.6 95382.9 99785.9 94591.5 96342.3 97242.9
          93361 97171.9 94152 100111 95221.7 94166.3 91565.9 91999.9 94689.5 91247.8 97615.9 91109
          94883.3 93787.8 96422.1 99276.3 94801.6 94464.7 97366.6 92422.9 98002.7 95414.4 96400.6 97015.8
          93649.1 95027.5 95582.1 98508.8 98258.1 91393.9 91564.3 94902.5 98969.2 91236.7 91323.2 98988.4
          93244 99345.6 95695 96103.8 95721.3 95195 96700.7 91755.3 96586.6 98135.9 93982 94921.5
          95502.2 92129.6 92180.9 92234.1 98363 97855.9 92531.9 97901 90918.7 97537.7 96883.7 94226.4
          99074 95298.5 92701.1 92772.4 94862.2 98072.3 97524.4 94891.6 95539.5 95480.4 95834.8 93670.5
          92701.6 95301.2 95310.4 98148.9 97769.8 97228.6 94566 96757.5 96443.7 94541.1 92867.8 96046.1
          96778.1 95374.6 95333.9 96590.7 95348.8 95249.3 95361 95315 97993.2 97860.4 95463.6 96520.7
          94988.7 95364.4 94673.5 95318 94844.1 98785 93601.5 91027.6 94065.8 91385.4 93168.7 94573.7
          92226.1 96043.4 94764.1 91345.1 97928.3 96014.2 93935 94973.1 95713.5 95212.2 95126.2 94871.5
          95567.3 96242.2 96403.4 95662.6 94872.3 98322.6 91831.5 95588.9 96618.5 95712.7 95475.5 98211
          95328.1 95420.3 95143.6 92687.4 95183 94932.5 95939.7 95003.5 96404 96013.4 95832 97355.2
          99127 98740.4 95214.5 98188.6 95232.5 95085.3 96083.8 96189.5 96865.4 95122.5 99930.3 98720.1
          96322.8 95801.5 95137 94728.8 96595.4 97743.8 97873.8 97300.6 97215.9 97806.5 98366.6 98721.1
          94136.5 95363.2 94961.3 92250 95401.9 93992.4 92440.2 96165 99763.2 94495.4 97666.2 97441
          94304 97393.7 92641.4 93133 96520.7 94057.9 96018.2 97965.6 94218.5 94136 94925.9 95240.5
          95489.6 95930.9 94400.7 95282 95518.5 93827.6 94628 95509.5 93528.6 97194.8 93064.4 93190
          95614 95814.3 96588.8 93941.1 94417 96797 95516.9 94795.8 91856.1 92201 94436.6 97072.8
          93411.3 95222.3 97035 95516.5 93809 100102 95084 92488.8 95587.6 93661.7 94613.1 94348
          96701.9 97158 97773.4 99337.5 97413.3 92259.2 96650.8 96800.6 91117.5 95838.3 96636.9 96193.8
          92854.7 94527.7 97959.8 92429.3 94796.7 94580.6 94177.6 96800.1 95847.2 95295.9 95288.6 96151.8
          95620.5 97581 95242.5 95044.6 94023.6 92008.3 93795.5 92141.6 96172.2 100176 98139.5 95592.2
          97160.9 99584.2 99850.5 96284.1 96392.6 98625.9 98094.6 98890.6 97020.1 94238.7 96163.9 94009.1
          92829.2 93257.3 94836.5 96156.9 93699.3 96612.7 94145.2 95886.8 91462.3 99290 91553.6 93342
          95953.1 93793.8 95042.7 99310.5 96233.8 93083.7 92961.8 93665.4 92320.5 96903 94554.7 96268.3
          98288 96874.4 91222.2 93525.5 98918.3 93906.4 95921.6 94182.5 97412.7 93567.8 97685.7 99879.2
          94503.3 91932.6 95597.4 98663.8 96915.5 97261 93084.8 95972.8 99448 95778.2 97239.9 92277.8
          92777.4 99919.1 94419.9 94998.3 98084.5 92202.2 94521.1 95411.4 95874.9 99900 94448.8 91903.2
          96267.3 95964.9 97368.2 92659.4 99302.5 95287 99603.7 94594.4 97171.4 94820.1 98569.9 98397.9
          93325.7 94288.2 92708.7 96909.3 99496.2 92514.7 92327.8 92279.6 96734.2 96590.3 91124.3 96927
          94358.5 97689.1 98444.3 96234.1 95623.2 95302.3 91435.5 96575.8 97751.5 94507.9 94048.2 92792
          93597.5 95268.5 99435.6 98208.1 93536.1 99831.4 91803.7 91761.1 99102.5 93770 93773.7 92810.8
          91587.3 94787.9 92646.1 93621.5 98245.6 97018.5 91904.3 95361 98395.8 93588.4 92711.5 98770.9
          91598 95014.4 99193.8 96438.4 93800.2 95364.7 91424.7 99035.9 99155.1 97729.3 98691.9 97746.6
          92741 93116.2 98642 95545.8 94366.1 94131.8 90982.4 97976.3 99003.6 94889.9 92225.1 94559
          92109.1 93852.3 100212 93402.9 96724.2 100135 95528.3 91237.4 94105 94436.8 97465.1 93346.2
          97158.7 91224.5 94983.1 95756.6 93430.5 98774.2 98864.5 92808.9 99156.8 92648.6 99604.7 98337.3
          91745.3 93009.7 91292.4 93185.6 97906.3 93187.3 94363.8 96627.9 96807.4 93293.7 91869.9 96583.8
          96386.7 96746.6 95365.2 98311.2 97740.4 99958 95405.4 94822.1 94215.8 97669.1 97280.1 92017.3
          92930.2 99530.5 96723.2 93905.7 93973 96634 93062.2 93173.7 97372.6 97301.9 94652.4 94612.1
          97535.6 97301.4 95216.5 92769.4 91012.9 94460.6 92941.9 93824.8 95220 93390.2 94883.3 98906.9
          91400 91343.8 96114.7 94566.2 94630.7 95693.4 95515.4 94609.2 98144.1 98389.7 95569.3 95743.8
          95334.5 92248.3 95631 97547.3 97269.5 94732.4 97846.8 91633.1 94436 97496.1 95293.5 95369.9
          97197.3 96068.3 99792.6 94115.1 90999.6 97521.9 92320.8 94502.7 94566.9 96597.8 98365.3 94839.9
          94617.8 94821.8 95552.1 97143.4 96304.3 94659.5 91318.6 92484.3 95360.2 95715.8 95123.4 93158.6
          95220.5 92127 93250 93557.1 98211.2 95028.6 99374 98424.2 96491.9 98644.3 95031.5 94605.2
          95213.9 97178.9 93057.2 91555.1 95442.7 99596.4 94873.4 95045.7 96179.4 96585.3 96904.6 92731.3
          94856.9 94236.7 97543.3 96752.2 93954.4 95986.5 92291.8 92496.2 94620.2 92630.6 95258.6 95377.9
          96813.3 99984.5 93590.3 95337.4 96686.1 95298.4 94896.6 91987.3 93241.9 93580.8 95302 97324.2
          95119.2 97145.5 95227.8 95183.1 95100.2 95986.2 94427.4 99114.7 94556.5 92457.8 99098.6 95932.6
          94473.4 94900.1 97552.7 93932.2 95443.3 95409.4 91619.7 94373.6 94139.4 94188.1 99442.4 99033.2
          98058.8 96017.6 92614 92731.2 98779.2 97134.3 95606 94004.3 90990.4 94100 93246.1 91268.1
          95218 93286.3 97508.8 92723.5 96079.2 94146.8 93563.8 97147.8 92467.1 94089.1 94698.6 93171.6
          94845.7 97181.5 93113.7 92776.4 96230.5 97670.8 92695.2 98815.3 93844.7 96591.3 95309.4 95840.8
          94854.7 95223.1 97069.3 98562.8 94128.4 96144.7 91395 93642.7 98787.7 97855.6 96830.8 94989.8
          95257.1 98669.2 95080.8 94600 91869.2 97933.8 92591.6 94866.9 93595.8 98294.5 95380.4 97097
          98018.8 92238.2 95299.2 92738.7 96059.6 96865.7 94232.2 96146.8 95236.4 98223.7 97348 91159
          96483 93888.3 92286.6 96340.4 95095.5 96599 93697.2 97797.9 93595.3 95351.5 94811.8 96016.1
          95745.8 99696.2 91885.4 99776.4 99204.9 94501.7 95576.3 99760.1 99198.5 94174.5 92819.1 93936
          96048 97942.8 93124.3 97907.2 95267.3 96711.5 95374.1 96798.9 93921.7 100098 99757.1 99210
          98161.9 95641.3 97995.9 93367.2 96054.4 97136.6 95583.4 96625.6 93806.3 97894.9 96262.6 96090
          93905 97626.9 96544.2 96200.5 96572.7 97467.7 97789.7 97454.4 94238.7 98856.5 96525 94257.4
          96172.1 91342.3 93237 96314.8 96585.3 98937.1 92037.5 98059.9 95773.1 96091.8 93238.4 91796.2
          95632.1 91739.2 95966.1 96295.2 92175.2 95474.3 95864.6 96227.2 95545.2 98283.8 92207.1 91848.8
          95911.9 98293.9 94446.8 93320.3 95962.6 93673.2 95920.1 94951.4 95711.5 96981.7 96886.9 95667.9
          91362.4 96460.7 94748.3 93672.4 97198.3 93225.6 96946.6 91043.1 95371.7 96873.1 99463.1 99013
          96333 99869.7 93385.9 99998.8 96150.8 96441.9 93804.6 91852.5 95605.7 96625.6 93712.6 98038.4
          92303.4 95461.4 94684.6 94090.9 97420.6 95845.5 94942.1 92570.8 92811.2 99670.2 99542.6 95615.6
          98958.7 91257.3 99888.4 92099.5 97608.9 91778.3 95290.3 94886.9 95088.6 95629.2 94395.9 99277.3
          94514.8 92953.4 96878 95738.3 94970.7 98879.3 98786.4 98779.3 92719.2 93202.9 97888.4 92426.3
          100216 93520.4 94188.7 96605.8 92044.2 95274.3 98363.9 98283.8 95796.1 92952.6 93562.7 96120.1
          95411.5 95488.1 95254.6 97199 98302.9 95293.6 95244.6 92885.5 93256.9 93860.5 96476.2 94120.2
          94399.6 96554.8 98144.2 95033 94306 95141.6 95170.3 94484.9 93069.6 98046.7 91345.2 99788.3
          100125 91014.9 91055.5 100079 91388.7 99726.4 92996.7 98123.1 94094.6 97026.2 96091.8 95024
          95879.7 95235.2 94520.9 96599 97102 98445.3 92672.3 97317.8 97981.5 93134.6 94059 97052.6
          91036.9 100090 95973.8 95130 91269.9 99854.7 94665.9 96438.9 93840.2 97273.2 95028.1 96088.4
          96407.5 94708.6 93391.5 94432 96683.8 97727.4 91762.7 99360.4 94530.4 96577.2 93152.5 97956.8
          90994.9 100128 91018.6 100109 93201.2 97903.4 95248 95868.6 95427.9 91311.4 95671.8 99811
          93514.1 98964.7 93631.2 97478.9 95433.4 95611.9 92305.8 98815.1 95985.2 95130.8 98481.4 93717.3
          93865.2 97400.2 97251.4 92216 98152.2 92224.2 98891.5 93254.3 93633 97864.3 97483 90954.5
          100171 94979 96120 96128.6 94983.5 92763.4 98349.8 91257.4 99866.6 91284.9 99833.3 92809.1
          98298.4 97538.7 92152.4 98962.9 92154.5 92945.2 98901.4 93020 98091.5 98019.9 98870.3 92253.8
          90941.7 100192 90974 100155 92298.9 98808.8 95191.6 91851.2 95845.6 99270.4 99202.7 91925.9
          91270 99861.7 91305.4 99815.3 91967.7 99143.4 92767.1 98337.2 92815.6 98298.3 94519.7 94991.6
          96616.5 96142.1 95908.1 96350.4 95202.5 94758.9 92139.1 92375.4 98983.2 98745.7 93625.8 93774.1
          97223.8 91721.3 93884 91228.5 99397.7 97405.9 93699.3 91721 99399.2 99892.3 97473.1 97284.2
          91230 99893.1 94280.4 93575.1 93592.6 97554.4 97525.6 92635.3 94076 95215.5 97072.2 95917
          94457.6 95329.9 95765.4 95787.3 95351.4 93106.5 92664.2 91813.1 98450.3 99308.7 91841.7 99274.2
          92704.7 98406.1 94989.5 96540.1 96074.9 92790 92558.6 98329.2 98560.6 96587.6 94527.1 97038.7
          94075.8 93174.7 97939.3 93208.3 97906.1 93966.5 94176.9 96940.4 97151.5 94041.7 93770.6 92149.7
          91823 98975.4 99304.6 91856.6 92186.6 99259.5 98926.2 94492.2 94320.8 96602 96734.9 91669.2
          99453 91175 99947.8 94079.8 97022.1 90909.6 100217 90906.6 100219 94154.2 96948.3 96571.7
          94539.5 95036.9 96079.8 94601.2 96515.6 94571.1 96427 91988.7 99132.3 93608.8 92580.9 98536.9
          95769.3 95347.2
        </DataArray>
        <DataArray type="Float32" Name="rho_aq" NumberOfComponents="1" format="ascii">
          1000 1000 1000 1000 1000 1000 1000 1000 1000 1000 1000 1000
          1000 1000 1000 1000 1000 1000 1000 1000 1000 1000 1000 1000
          1000 1000 1000 1000 1000 1000 1000 1000 1000 1000 1000 1000
          1000 1000 1000 1000 1000 1000 1000 1000 1000 1000 1000 1000
          1000 1000 1000 1000 1000 1000 1000 1000 1000 1000 1000 1000
          1000 1000 1000 1000 1000 1000 1000 1000 1000 1000 1000 1000
          1000 1000 1000 1000 1000 1000 1000 1000 1000 1000 1000 1000
          1000 1000 1000 1000 1000 1000 1000 1000 1000 1000 1000 1000
          1000 1000 1000 1000 1000 1000 1000 1000 1000 1000 1000 1000
          1000 1000 1000 1000 1000 1000 1000 1000 1000 1000 1000 1000
          1000 1000 1000 1000 1000 1000 1000 1000 1000 1000 1000 1000
          1000 1000 1000 1000 1000 1000 1000 1000 1000 1000 1000 1000
          1000 1000 1000 1000 1000 1000 1000 1000 1000 1000 1000 1000
          1000 1000 1000 1000 1000 1000 1000 1000 1000 1000 1000 1000
          1000 1000 1000 1000 1000 1000 1000 1000 1000 1000 1000 1000
          1000 1000 1000 1000 1000 1000 1000 1000 1000 1000 1000 1000
          1000 1000 1000 1000 1000 1000 1000 1000 1000 1000 1000 1000
          1000 1000 1000 1000 1000 1000 1000 1000 1000 1000 1000 1000
          1000 1000 1000 1000 1000 1000 1000 1000 1000 1000 1000 1000
          1000 1000 1000 1000 1000 1000 1000 1000 1000 1000 1000 1000
          1000 1000 1000 1000 1000 1000 1000 1000 1000 1000 1000 1000
          1000 1000 1000 1000 1000 1000 1000 1000 1000 1000 1000 1000
          1000 1000 1000 1000 1000 1000 1000 1000 1000 1000 1000 1000
          1000 1000 1000 1000 1000 1000 1000 1000 1000 1000 1000 1000
          1000 1000 1000 1000 1000 1000 1000 1000 1000 1000 1000 1000
          1000 1000 1000 1000 1000 1000 1000 1000 1000 1000 1000 1000
          1000 1000 1000 1000 1000 1000 1000 1000 1000 1000 1000 1000
          1000 1000 1000 1000 1000 1000 1000 1000 1000 1000 1000 1000
          1000 1000 1000 1000 1000 1000 1000 1000 1000 1000 1000 1000
          1000 1000 1000 1000 1000 1000 1000 1000 1000 1000 1000 1000
          1000 1000 1000 1000 1000 1000 1000 1000 1000 1000 1000 1000
          1000 1000 1000 1000 1000 1000 1000 1000 1000 1000 1000 1000
          1000 1000 1000 1000 1000 1000 1000 1000 1000 1000 1000 1000
          1000 1000 1000 1000 1000 1000 1000 1000 1000 1000 1000 1000
          1000 1000 1000 1000 1000 1000 1000 1000 1000 1000 1000 1000
          1000 1000 1000 1000 1000 1000 1000 1000 1000 1000 1000 1000
          1000 1000 1000 1000 1000 1000 1000 1000 1000 1000 1000 1000
          1000 1000 1000 1000 1000 1000 1000 1000 1000 1000 1000 1000
          1000 1000 1000 1000 1000 1000 1000 1000 1000 1000 1000 1000
          1000 1000 1000 1000 1000 1000 1000 1000 1000 1000 1000 1000
          1000 1000 1000 1000 1000 1000 1000 1000 1000 1000 1000 1000
          1000 1000 1000 1000 1000 1000 1000 1000 1000 1000 1000 1000
          1000 1000 1000 1000 1000 1000 1000 1000 1000 1000 1000 1000
          1000 1000 1000 1000 1000 1000 1000 1000 1000 1000 1000 1000
          1000 1000 1000 1000 1000 1000 1000 1000 1000 1000 1000 1000
          1000 1000 1000 1000 1000 1000 1000 1000 1000 1000 1000 1000
          1000 1000 1000 1000 1000 1000 1000 1000 1000 1000 1000 1000
          1000 1000 1000 1000 1000 1000 1000 1000 1000 1000 1000 1000
          1000 1000 1000 1000 1000 1000 1000 1000 1000 1000 1000 1000
          1000 1000 1000 1000 1000 1000 1000 1000 1000 1000 1000 1000
          1000 1000 1000 1000 1000 1000 1000 1000 1000 1000 1000 1000
          1000 1000 1000 1000 1000 1000 1000 1000 1000 1000 1000 1000
          1000 1000 1000 1000 1000 1000 1000 1000 1000 1000 1000 1000
          1000 1000 1000 1000 1000 1000 1000 1000 1000 1000 1000 1000
          1000 1000 1000 1000 1000 1000 1000 1000 1000 1000 1000 1000
          1000 1000 1000 1000 1000 1000 1000 1000 1000 1000 1000 1000
          1000 1000 1000 1000 1000 1000 1000 1000 1000 1000 1000 1000
          1000 1000 1000 1000 1000 1000 1000 1000 1000 1000 1000 1000
          1000 1000 1000 1000 1000 1000 1000 1000 1000 1000 1000 1000
          1000 1000 1000 1000 1000 1000 1000 1000 1000 1000 1000 1000
          1000 1000 1000 1000 1000 1000 1000 1000 1000 1000 1000 1000
          1000 1000 1000 1000 1000 1000 1000 1000 1000 1000 1000 1000
          1000 1000 1000 1000 1000 1000 1000 1000 1000 1000 1000 1000
          1000 1000 1000 1000 1000 1000 1000 1000 1000 1000 1000 1000
          1000 1000 1000 1000 1000 1000 1000 1000 1000 1000 1000 1000
          1000 1000 1000 1000 1000 1000 1000 1000 1000 1000 1000 1000
          1000 1000 1000 1000 1000 1000 1000 1000 1000 1000 1000 1000
          1000 1000 1000 1000 1000 1000 1000 1000 1000 1000 1000 1000
          1000 1000 1000 1000 1000 1000 1000 1000 1000 1000 1000 1000
          1000 1000 1000 1000 1000 1000 1000 1000 1000 1000 1000 1000
          1000 1000 1000 1000 1000 1000 1000 1000 1000 1000 1000 1000
          1000 1000 1000 1000 1000 1000 1000 1000 1000 1000 1000 1000
          1000 1000 1000 1000 1000 1000 1000 1000 1000 1000 1000 1000
          1000 1000 1000 1000 1000 1000 1000 1000 1000 1000 1000 1000
          1000 1000 1000 1000 1000 1000 1000 1000 1000 1000 1000 1000
          1000 1000 1000 1000 1000 1000 1000 1000 1000 1000 1000 1000
          1000 1000 1000 1000 1000 1000 1000 1000 1000 1000 1000 1000
          1000 1000 1000 1000 1000 1000 1000 1000 1000 1000 1000 1000
          1000 1000 1000 1000 1000 1000 1000 1000 1000 1000 1000 1000
          1000 1000 1000 1000 1000 1000 1000 1000 1000 1000 1000 1000
          1000 1000 1000 1000 1000 1000 1000 1000 1000 1000 1000 1000
          1000 1000 1000 1000 1000 1000 1000 1000 1000 1000 1000 1000
          1000 1000 1000 1000 1000 1000 1000 1000 1000 1000 1000 1000
          1000 1000 1000 1000 1000 1000 1000 1000 1000 1000 1000 1000
          1000 1000 1000 1000 1000 1000 1000 1000 1000 1000 1000 1000
          1000 1000 1000 1000 1000 1000 1000 1000 1000 1000 1000 1000
          1000 1000 1000 1000 1000 1000 1000 1000 1000 1000 1000 1000
          1000 1000 1000 1000 1000 1000 1000 1000 1000 1000 1000 1000
          1000 1000 1000 1000 1000 1000 1000 1000 1000 1000 1000 1000
          1000 1000 1000 1000 1000 1000 1000 1000 1000 1000 1000 1000
          1000 1000 1000 1000 1000 1000 1000 1000 1000 1000 1000 1000
          1000 1000 1000 1000 1000 1000 1000 1000 1000 1000 1000 1000
          1000 1000 1000 1000 1000 1000 1000 1000 1000 1000 1000 1000
          1000 1000 1000 1000 1000 1000 1000 1000 1000 1000 1000 1000
          1000 1000 1000 1000 1000 1000 1000 1000 1000 1000 1000 1000
          1000 1000 1000 1000 1000 1000 1000 1000 1000 1000 1000 1000
          1000 1000 1000 1000 1000 1000 1000 1000 1000 1000 1000 1000
          1000 1000 1000 1000 1000 1000 1000 1000 1000 1000 1000 1000
          1000 1000 1000 1000 1000 1000 1000 1000 1000 1000 1000 1000
          1000 1000 1000 1000 1000 1000 1000 1000 1000 1000 1000 1000
          1000 1000 1000 1000 1000 1000 1000 1000 1000 1000 1000 1000
          1000 1000 1000 1000 1000 1000 1000 1000 1000 1000 1000 1000
          1000 1000 1000 1000 1000 1000 1000 1000 1000 1000 1000 1000
          1000 1000 1000 1000 1000 1000 1000 1000 1000 1000 1000 1000
          1000 1000 1000 1000 1000 1000 1000 1000 1000 1000 1000 1000
          1000 1000 1000 1000 1000 1000 1000 1000 1000 1000 1000 1000
          1000 1000 1000 1000 1000 1000 1000 1000 1000 1000 1000 1000
          1000 1000 1000 1000 1000 1000 1000 1000 1000 1000 1000 1000
          1000 1000 1000 1000 1000 1000 1000 1000 1000 1000 1000 1000
          1000 1000 1000 1000 1000 1000 1000 1000 1000 1000 1000 1000
          1000 1000 1000 1000 1000 1000 1000 1000 1000 1000 1000 1000
          1000 1000 1000 1000 1000 1000 1000 1000 1000 1000 1000 1000