<?xml version="1.0"?>
<VTKFile type="UnstructuredGrid" version="0.1" byte_order="LittleEndian">
  <UnstructuredGrid>
    <Piece NumberOfCells="40" NumberOfPoints="63">
      <CellData Scalars="waterDepth">
        <DataArray type="Float32" Name="waterDepth" NumberOfComponents="1" format="ascii">
          0.000999881 0.000999894 0.000999906 0.000999919 0.000999931 0.000999944 0.000999956 0.000999968 0.000999981 0.000999994 0.00100001 0.00100002
          0.00100003 0.00100004 0.00100006 0.00100007 0.00100008 0.00100009 0.00100011 0.00100012 0.000999881 0.000999894 0.000999906 0.000999919
          0.000999931 0.000999944 0.000999956 0.000999968 0.000999981 0.000999994 0.00100001 0.00100002 0.00100003 0.00100004 0.00100006 0.00100007
          0.00100008 0.00100009 0.00100011 0.00100012
        </DataArray>
        <DataArray type="Float32" Name="velocityX" NumberOfComponents="1" format="ascii">
          1.55299e-05 1.55306e-05 1.55306e-05 1.55306e-05 1.55306e-05 1.55306e-05 1.55306e-05 1.55306e-05 1.55307e-05 1.55307e-05 1.55307e-05 1.55307e-05
          1.55307e-05 1.55307e-05 1.55308e-05 1.55308e-05 1.55308e-05 1.55308e-05 1.55308e-05 1.55308e-05 1.55299e-05 1.55306e-05 1.55306e-05 1.55306e-05
          1.55306e-05 1.55306e-05 1.55306e-05 1.55306e-05 1.55307e-05 1.55307e-05 1.55307e-05 1.55307e-05 1.55307e-05 1.55307e-05 1.55308e-05 1.55308e-05
          1.55308e-05 1.55308e-05 1.55308e-05 1.55308e-05
        </DataArray>
        <DataArray type="Float32" Name="velocityY" NumberOfComponents="1" format="ascii">
          -2.06561e-18 9.17162e-19 -4.29257e-18 1.02168e-20 -3.0465e-18 -7.95742e-18 -6.85221e-18 -6.79367e-18 -1.10142e-17 -2.61861e-18 -1.22134e-17 -3.24336e-18
          -8.37414e-18 -1.33506e-17 -2.9465e-19 -5.62619e-18 1.21136e-18 -1.57859e-18 -3.14978e-18 -1.35294e-18 2.05913e-18 -9.17559e-19 4.29347e-18 -9.65304e-21
          3.05034e-18 7.95565e-18 6.85568e-18 6.79608e-18 1.10128e-17 2.61885e-18 1.22136e-17 3.24267e-18 8.37437e-18 1.3354e-17 2.92167e-19 5.6259e-18
          -1.21563e-18 1.58017e-18 3.15503e-18 1.3567e-18
        </DataArray>
        <DataArray type="Float32" Name="bedSurface" NumberOfComponents="1" format="ascii">
          4.875e-06 4.625e-06 4.375e-06 4.125e-06 3.875e-06 3.625e-06 3.375e-06 3.125e-06 2.875e-06 2.625e-06 2.375e-06 2.125e-06
          1.875e-06 1.625e-06 1.375e-06 1.125e-06 8.75e-07 6.25e-07 3.75e-07 1.25e-07 4.875e-06 4.625e-06 4.375e-06 4.125e-06
          3.875e-06 3.625e-06 3.375e-06 3.125e-06 2.875e-06 2.625e-06 2.375e-06 2.125e-06 1.875e-06 1.625e-06 1.375e-06 1.125e-06
          8.75e-07 6.25e-07 3.75e-07 1.25e-07
        </DataArray>
        <DataArray type="Float32" Name="freeSurface" NumberOfComponents="1" format="ascii">
          0.00100476 0.00100452 0.00100428 0.00100404 0.00100381 0.00100357 0.00100333 0.00100309 0.00100286 0.00100262 0.00100238 0.00100214
          0.00100191 0.00100167 0.00100143 0.00100119 0.00100096 0.00100072 0.00100048 0.00100024 0.00100476 0.00100452 0.00100428 0.00100404
          0.00100381 0.00100357 0.00100333 0.00100309 0.00100286 0.00100262 0.00100238 0.00100214 0.00100191 0.00100167 0.00100143 0.00100119
          0.00100096 0.00100072 0.00100048 0.00100024
        </DataArray>
        <DataArray type="Float32" Name="process rank" NumberOfComponents="1" format="ascii">
          0 0 0 0 0 0 0 0 0 0 0 0
          0 0 0 0 0 0 0 0 0 0 0 0
          0 0 0 0 0 0 0 0 0 0 0 0
          0 0 0 0
        </DataArray>
        <DataArray type="Float32" Name="exactWaterDepth" NumberOfComponents="1" format="ascii">
          0.001 0.001 0.001 0.001 0.001 0.001 0.001 0.001 0.001 0.001 0.001 0.001
          0.001 0.001 0.001 0.001 0.001 0.001 0.001 0.001 0.001 0.001 0.001 0.001
          0.001 0.001 0.001 0.001 0.001 0.001 0.001 0.001 0.001 0.001 0.001 0.001
          0.001 0.001 0.001 0.001
        </DataArray>
        <DataArray type="Float32" Name="exactVelocityX" NumberOfComponents="1" format="ascii">
          1.635e-05 1.635e-05 1.635e-05 1.635e-05 1.635e-05 1.635e-05 1.635e-05 1.635e-05 1.635e-05 1.635e-05 1.635e-05 1.635e-05
          1.635e-05 1.635e-05 1.635e-05 1.635e-05 1.635e-05 1.635e-05 1.635e-05 1.635e-05 1.635e-05 1.635e-05 1.635e-05 1.635e-05
          1.635e-05 1.635e-05 1.635e-05 1.635e-05 1.635e-05 1.635e-05 1.635e-05 1.635e-05 1.635e-05 1.635e-05 1.635e-05 1.635e-05
          1.635e-05 1.635e-05 1.635e-05 1.635e-05
        </DataArray>
        <DataArray type="Float32" Name="exactVelocityY" NumberOfComponents="1" format="ascii">
          0 0 0 0 0 0 0 0 0 0 0 0
          0 0 0 0 0 0 0 0 0 0 0 0
          0 0 0 0 0 0 0 0 0 0 0 0
          0 0 0 0
        </DataArray>
      </CellData>
      <Points>
        <DataArray type="Float32" Name="Coordinates" NumberOfComponents="3" format="ascii">
          0 -0.05 0 0.05 -0.05 0 0 0 0 0.05 0 0
          0.1 -0.05 0 0.1 0 0 0.15 -0.05 0 0.15 0 0
          0.2 -0.05 0 0.2 0 0 0.25 -0.05 0 0.25 0 0
          0.3 -0.05 0 0.3 0 0 0.35 -0.05 0 0.35 0 0
          0.4 -0.05 0 0.4 0 0 0.45 -0.05 0 0.45 0 0
          0.5 -0.05 0 0.5 0 0 0.55 -0.05 0 0.55 0 0
          0.6 -0.05 0 0.6 0 0 0.65 -0.05 0 0.65 0 0
          0.7 -0.05 0 0.7 0 0 0.75 -0.05 0 0.75 0 0
          0.8 -0.05 0 0.8 0 0 0.85 -0.05 0 0.85 0 0
          0.9 -0.05 0 0.9 0 0 0.95 -0.05 0 0.95 0 0
          1 -0.05 0 1 0 0 0 0.05 0 0.05 0.05 0
          0.1 0.05 0 0.15 0.05 0 0.2 0.05 0 0.25 0.05 0
          0.3 0.05 0 0.35 0.05 0 0.4 0.05 0 0.45 0.05 0
          0.5 0.05 0 0.55 0.05 0 0.6 0.05 0 0.65 0.05 0
          0.7 0.05 0 0.75 0.05 0 0.8 0.05 0 0.85 0.05 0
          0.9 0.05 0 0.95 0.05 0 1 0.05 0
        </DataArray>
      </Points>
      <Cells>
        <DataArray type="Int32" Name="connectivity" NumberOfComponents="1" format="ascii">
          0 1 3 2 1 4 5 3 4 6 7 5
          6 8 9 7 8 10 11 9 10 12 13 11
          12 14 15 13 14 16 17 15 16 18 19 17
          18 20 21 19 20 22 23 21 22 24 25 23
          24 26 27 25 26 28 29 27 28 30 31 29
          30 32 33 31 32 34 35 33 34 36 37 35
          36 38 39 37 38 40 41 39 2 3 43 42
          3 5 44 43 5 7 45 44 7 9 46 45
          9 11 47 46 11 13 48 47 13 15 49 48
          15 17 50 49 17 19 51 50 19 21 52 51
          21 23 53 52 23 25 54 53 25 27 55 54
          27 29 56 55 29 31 57 56 31 33 58 57
          33 35 59 58 35 37 60 59 37 39 61 60
          39 41 62 61
        </DataArray>
        <DataArray type="Int32" Name="offsets" NumberOfComponents="1" format="ascii">
          4 8 12 16 20 24 28 32 36 40 44 48
          52 56 60 64 68 72 76 80 84 88 92 96
          100 104 108 112 116 120 124 128 132 136 140 144
          148 152 156 160
        </DataArray>
        <DataArray type="UInt8" Name="types" NumberOfComponents="1" format="ascii">
          9 9 9 9 9 9 9 9 9 9 9 9
          9 9 9 9 9 9 9 9 9 9 9 9
          9 9 9 9 9 9 9 9 9 9 9 9
          9 9 9 9
        </DataArray>
      </Cells>
    </Piece>
  </UnstructuredGrid>
</VTKFile>
