<?xml version="1.0"?>
<VTKFile type="UnstructuredGrid" version="0.1" byte_order="LittleEndian">
  <UnstructuredGrid>
    <Piece NumberOfCells="5457" NumberOfPoints="5718">
      <CellData Scalars="S_aq">
        <DataArray type="Float32" Name="S_aq" NumberOfComponents="1" format="ascii">
          1 1 1 1 1 1 1 1 1 1 1 1
          1 1 1 1 1 1 1 1 1 1 1 1
          1 1 1 1 1 1 1 1 1 1 1 1
          1 1 1 1 1 1 1 1 1 1 1 1
          1 1 1 1 1 1 1 1 1 1 1 1
          1 1 1 1 1 1 1 1 1 1 1 1
          1 1 1 1 1 1 1 1 1 1 1 1
          1 1 1 1 1 1 1 1 1 1 1 1
          1 1 1 1 1 1 1 1 1 1 1 1
          1 1 1 1 1 1 1 1 1 1 1 1
          1 1 1 1 1 1 1 1 1 1 1 1
          1 1 1 1 1 1 1 1 1 1 1 1
          1 1 1 1 1 1 1 1 1 1 1 1
          1 1 1 1 1 1 1 1 1 1 1 1
          1 1 1 1 1 1 1 1 1 1 1 1
          1 1 1 1 1 1 1 1 1 1 1 1
          1 1 1 1 1 1 1 1 1 1 1 1
          1 1 1 1 1 1 1 1 1 1 1 1
          1 1 1 1 1 1 1 1 1 1 1 1
          1 1 1 1 1 1 1 1 1 1 1 1
          1 1 1 1 1 1 1 1 1 1 1 1
          1 1 1 1 1 1 1 1 1 1 1 1
          1 1 1 1 1 1 1 1 1 1 1 1
          1 1 1 1 1 1 1 1 1 1 1 1
          1 1 1 1 1 1 1 1 1 1 1 1
          1 1 1 1 1 1 1 1 1 1 1 1
          1 1 1 1 1 1 1 1 1 1 1 1
          1 1 1 1 1 1 1 1 1 1 1 1
          1 1 1 1 1 1 1 1 1 1 1 1
          1 1 1 1 1 1 1 1 1 1 1 1
          1 1 1 1 1 1 1 1 1 1 1 1
          1 1 1 1 1 1 1 1 1 1 1 1
          1 1 1 1 1 1 1 1 1 1 1 1
          1 1 1 1 1 1 1 1 1 1 1 1
          1 1 1 1 1 1 1 1 1 1 1 1
          1 1 1 1 1 1 1 1 1 1 1 1
          1 1 1 1 1 1 1 1 1 1 1 1
          1 1 1 1 1 1 1 1 1 1 1 1
          1 1 1 1 1 1 1 1 1 1 1 1
          1 1 1 1 1 1 1 1 1 1 1 1
          1 1 1 0.999995 0.999995 1 1 0.999999 0.999999 1 1 1
          1 1 1 1 1 1 1 1 1 1 0.999989 0.999989
          0.999395 0.999389 0.999143 0.999183 0.9999 0.9999 0.99988 0.999881 0.999799 0.999799 0.999718 0.999724
          0.999598 0.999596 0.999448 0.999455 0.997912 0.99788 0.997054 0.997137 0.99847 0.998431 0.997822 0.997948
          1 1 1 1 1 1 1 1 1 1 1 1
          1 1 1 1 1 1 1 1 1 1 1 1
          1 1 1 1 1 1 1 1 1 1 1 1
          1 1 1 1 1 1 1 1 1 1 1 1
          1 1 1 1 1 1 1 1 1 1 1 1
          1 1 1 1 1 1 1 1 0.999997 0.999997 1 1
          1 1 1 0.999697 0.999698 0.999581 0.999574 0.999899 0.9999 0.999868 0.999863 0.998932
          0.998982 0.998659 0.998492 0.998083 0.99812 0.997424 0.997319 1 1 0.999999 0.999999 1
          0.999999 1 1 0.999999 0.999786 0.999799 0.999754 0.999712 1 1 1 1
          1 1 1 1 1 1 1 1 1 1 1 1
          1 1 1 1 1 1 1 1 1 1 1 1
          1 1 1 1 1 1 1 1 1 1 1 1
          1 1 1 1 1 1 1 1 1 1 1 1
          1 1 1 1 1 1 1 1 1 1 1 1
          1 1 1 1 1 1 1 1 1 0.999992 0.999994 1
          1 1 1 1 0.9999 0.9999 0.999885 0.999886 0.999294 0.999282 0.99899 0.999056
          1 1 0.999998 0.999998 0.999191 0.999175 0.998816 0.998894 0.997424 0.997272 0.996226 0.996578
          0.993884 0.99328 0.991241 0.992211 0.996918 0.996678 0.995498 0.995991 0.995646 0.995372 0.993784 0.994272
          0.994474 0.994322 0.992484 0.992732 0.988999 0.988659 0.985891 0.986291 0.990949 0.990209 0.987541 0.988524
          0.999698 0.999697 0.999568 0.999589 0.997236 0.997019 0.995941 0.996403 0.993781 0.993014 0.991095 0.99234
          0.998176 0.998071 0.997362 0.997649 0.993261 0.992455 0.990309 0.991593 0.988551 0.98723 0.984503 0.986131
          0.982107 0.980281 0.977354 0.9794 0.98799 0.986324 0.983686 0.985731 0.984376 0.983236 0.980286 0.981589
          0.982018 0.981594 0.978591 0.979042 0.974898 0.974458 0.971432 0.971859 0.977459 0.976083 0.973028 0.9745
          1 1 1 1 1 1 1 1 1 0.999497 0.99945 0.999173
          0.999327 0.997669 0.997455 0.996647 0.997052 1 1 0.999997 0.999999 1 1 1
          1 1 1 1 1 1 1 1 0.999799 0.99965 0.999436 0.999725
          0.994749 0.994013 0.992568 0.99373 0.991053 0.989387 0.987478 0.989603 0.998482 0.998118 0.997629 0.998061
          0.995397 0.994848 0.993405 0.994324 0.989037 0.987298 0.984881 0.987059 0.983494 0.981006 0.978393 0.981239
          0.991473 0.990114 0.987981 0.989844 0.981904 0.979613 0.976806 0.97938 0.975438 0.973287 0.970312 0.972606
          0.968773 0.966423 0.963481 0.965919 0.975602 0.972879 0.970027 0.972946 0.970501 0.969 0.965985 0.96753
          0.967927 0.967547 0.964622 0.964954 0.961278 0.961022 0.958282 0.958452 0.963729 0.962194 0.959299 0.960833
          0.986596 0.984321 0.981988 0.984722 0.97768 0.974617 0.971934 0.975272 0.971784 0.968288 0.965567 0.969285
          0.981446 0.978386 0.975942 0.979395 0.969272 0.966258 0.96342 0.966575 0.96224 0.95978 0.956907 0.959419
          0.955898 0.953385 0.950543 0.95308 0.963024 0.959803 0.956961 0.960293 0.957262 0.955771 0.952974 0.954436
          0.955065 0.95501 0.95245 0.952374 0.949222 0.949467 0.947126 0.946685 0.951027 0.949634 0.94694 0.948261
          1 1 1 1 1 1 1 1 1 1 1 1
          1 1 1 1 1 1 1 1 1 1 1 1
          1 1 1 0.999944 0.999914 1 1 0.999671 0.999608 1 1 0.995997
          0.995528 0.994524 0.995304 0.986645 0.984156 0.982094 0.985106 0.982225 0.978799 0.976594 0.980519 0.993202
          0.991983 0.990595 0.992369 1 1 1 1 1 1 0.999226 0.999163 1
          0.9999 0.998695 0.998501 0.999899 1 1 1 1 0.990105 0.987708 0.986152 0.989155
          0.977591 0.97328 0.970892 0.975703 0.972659 0.967445 0.964713 0.970471 0.986835 0.98326 0.98148 0.985753
          0.976152 0.972434 0.969905 0.973964 0.965851 0.962003 0.959234 0.963273 0.959848 0.95569 0.952799 0.957134
          0.970717 0.966427 0.963783 0.968386 0.956801 0.953419 0.950545 0.954018 0.949631 0.947116 0.944284 0.946791
          0.943373 0.94092 0.93805 0.940448 0.950529 0.947018 0.94404 0.94762 0.944989 0.943785 0.941189 0.942265
          0.943783 0.944468 0.942387 0.941418 0.938788 0.940107 0.938375 0.936652 0.939097 0.938203 0.935724 0.936402
          0.965073 0.960246 0.957373 0.962512 0.953602 0.94915 0.946027 0.950643 0.94685 0.942127 0.93863 0.943494
          0.958973 0.953595 0.950329 0.956027 0.944022 0.940426 0.937268 0.940893 0.936969 0.934684 0.931771 0.93392
          0.93035 0.928424 0.92551 0.927153 0.937068 0.933478 0.93006 0.933604 0.933333 0.932947 0.930662 0.930704
          0.934376 0.936588 0.935353 0.932586 0.930823 0.934249 0.933738 0.929585 0.927801 0.928208 0.926275 0.92534
          1 1 1 1 1 1 1 1 0.9998 0.998144 0.998014 0.9998
          0.9998 0.997711 0.997471 0.999801 1 1 1 1 0.983424 0.978466 0.976309 0.982156
          0.967111 0.960874 0.957595 0.964464 0.960482 0.953042 0.948788 0.956965 0.979534 0.972782 0.969894 0.977852
          1 1 0.999976 0.99703 0.997405 1 1 0.997676 0.999292 1 1 0.974646
          0.965331 0.961031 0.97257 0.951741 0.942889 0.936871 0.946527 0.938434 0.928378 0.919097 0.928796 0.967869
          0.953633 0.943888 0.96196 0.952039 0.946084 0.942222 0.948505 0.939238 0.934301 0.930279 0.935298 0.930351
          0.925361 0.920692 0.925586 0.943771 0.937239 0.93244 0.939254 0.929421 0.926019 0.92234 0.925539 0.923505
          0.92227 0.919521 0.920246 0.916695 0.916656 0.914442 0.913658 0.920951 0.918113 0.914327 0.916664 0.922768
          0.924364 0.923072 0.92072 0.928609 0.933598 0.934086 0.928227 0.928404 0.935217 0.936943 0.929227 0.918825
          0.922078 0.921824 0.917599 0.933231 0.926288 0.920146 0.927104 0.919707 0.915133 0.909939 0.913964 0.907248
          0.904195 0.899481 0.901223 0.919009 0.912481 0.905129 0.910678 0.911817 0.910234 0.90688 0.907498 0.910655
          0.912452 0.911364 0.908455 0.90678 0.910922 0.911501 0.906154 0.903112 0.903715 0.901719 0.899808 0.916888
          0.922202 0.923387 0.916997 0.930918 0.939556 0.942588 0.933223 0.936649 0.946669 0.950664 0.940387 0.917992
          0.925508 0.928322 0.919813 0.994678 0.994877 0.993232 0.992913 0.996332 0.99672 0.995741 0.995028 0.99201
          0.993065 0.991195 0.98968 0.989217 0.989646 0.987043 0.986496 0.998584 0.99878 0.998482 0.998034 0.999878
          0.9999 0.999885 0.99984 0.999094 0.999294 0.999175 0.998795 0.995957 0.996759 0.996038 0.994747 1
          1 1 1 1 1 0.999994 1 0.999999 0.999991 0.982308 0.982968 0.980142
          0.97935 0.985854 0.987607 0.9853 0.983214 0.9795 0.981847 0.979512 0.97685 0.975312 0.976217 0.973399
          0.972354 0.992179 0.993962 0.992791 0.990342 0.997289 0.997961 0.997683 0.996652 0.995046 0.996437 0.996009
          0.994197 0.987311 0.990315 0.988751 0.985297 0.999732 0.9998 0.999787 0.999682 0.999999 1 1
          1 0.999994 1 1 0.999993 0.999052 0.999296 0.999266 0.998923 1 1 1
          1 1 1 1 1 1 0.968598 0.969777 0.967123 0.965779 0.973443 0.976352
          0.974202 0.970983 0.968001 0.971491 0.969665 0.965848 0.96236 0.963875 0.961482 0.959763 0.982452 0.9862
          0.984789 0.98062 0.99257 0.994769 0.994319 0.991697 0.990238 0.99329 0.992925 0.989498 0.978279 0.98277
          0.981672 0.976788 0.998241 0.998782 0.99872 0.998045 0.999879 0.9999 0.9999 0.999876 0.999844 0.9999
          0.999899 0.999839 0.997341 0.998165 0.998106 0.997174 0.956719 0.958662 0.95657 0.954363 0.963353 0.967484
          0.966083 0.961581 0.959635 0.964513 0.963634 0.958335 0.951686 0.954189 0.952472 0.949627 0.975015 0.980208
          0.9795 0.973971 0.988445 0.99218 0.991969 0.988017 0.987479 0.991576 0.991562 0.987418 0.972838 0.978635
          0.978403 0.972339 0.996711 0.997748 0.997714 0.99662 0.999713 0.9998 0.999798 0.999709 0.999597 0.9997
          0.999701 0.9996 0.996401 0.99754 0.997539 0.996402 1 1 1 1 1 1
          1 1 1 1 1 1 1 1 1 1 1 1
          0.999999 1 1 0.999999 1 1 1 1 1 1 1 1
          1 1 1 1 1 1 1 1 1 1 1 1
          1 1 1 1 1 1 0.947375 0.95061 0.94936 0.945685 0.957034 0.962767
          0.962463 0.956287 0.955703 0.962335 0.962692 0.955631 0.943949 0.948123 0.947463 0.942742 0.971942 0.978222
          0.978461 0.972018 0.987437 0.99157 0.99172 0.987708 0.988206 0.992049 0.992331 0.988764 0.972367 0.978934
          0.979608 0.973036 0.996422 0.997548 0.997577 0.996501 0.999697 0.9998 0.9998 0.999701 0.99972 0.9998
          0.999801 0.999726 0.996739 0.997759 0.997809 0.996876 0.941664 0.946998 0.947082 0.941108 0.955914 0.963405
          0.964443 0.956622 0.957874 0.966004 0.967672 0.959426 0.940892 0.947564 0.94855 0.941207 0.974144 0.980701
          0.981723 0.975358 0.989733 0.992997 0.993339 0.990457 0.99174 0.994266 0.994586 0.992409 0.977178 0.983389
          0.984599 0.978787 0.99734 0.998173 0.998222 0.997492 0.999851 0.9999 0.9999 0.999855 0.999879 0.9999
          0.9999 0.99988 0.998099 0.998685 0.998718 0.998219 1 1 1 1 1 1
          1 1 1 1 1 1 1 1 1 1 1 1
          1 1 1 1 1 1 0.942109 0.950151 0.952112 0.943503 0.961702 0.97003
          0.972134 0.96402 0.967202 0.975095 0.977338 0.97002 0.945729 0.954878 0.957688 0.948281 0.981147 0.98666
          0.987819 0.982908 0.993732 0.995612 0.995872 0.994292 0.995635 0.996946 0.997115 0.996042 0.985575 0.99004
          0.990938 0.987212 0.998847 0.999195 0.999209 0.998921 0.999993 1 1 0.999994 0.999999 1
          1 0.999999 0.999445 0.999599 0.999603 0.999474 0.95184 0.961433 0.96473 0.955377 0.97383 0.980667
          0.982739 0.976732 0.980787 0.986249 0.987833 0.983293 0.959998 0.969075 0.972305 0.96398 0.989943 0.992976
          0.99355 0.991192 0.997367 0.998174 0.998252 0.997609 0.998806 0.999193 0.99921 0.998904 0.993496 0.995355
          0.995714 0.994243 0.999855 0.9999 0.9999 0.99986 1 1 1 1 1 0.999993
          1 1 0.999994 1 1 1 1 1 1 1 1 1
          1 1 1 1 1 1 1 1 1 1 1 1
          1 1 1 1 1 1 1 1 1 1 1 1
          1 1 1 1 1 1 1 1 1 1 1 1
          1 1 1 1 1 1 1 1 1 1 1 1
          1 0.999998 1 1 1 1 1 1 1 1 1 1
          1 1 1 1 1 1 1 1 1 1 1 1
          1 1 1 1 1 0.999998 1 0.999999 0.999199 0.999534 0.99908 0.999996
          0.989747 0.986005 0.998878 1 0.999467 0.987954 0.999892 0.993521 0.95337 0.950965 0.943961 0.986837
          0.882001 0.859866 0.910733 0.894738 0.815594 0.953079 1 1 1 0.999999 1 1
          1 1 1 1 1 1 0.999474 1 1 0.994037 0.999923 1
          1 1 1 1 1 1 1 1 1 1 1 1
          1 1 1 1 1 1 1 1 1 1 1 1
          1 1 1 1 1 1 1 1 1 1 1 1
          1 1 1 1 1 1 1 1 1 1 1 1
          1 1 1 1 1 1 1 1 1 1 1 1
          1 1 1 1 1 1 1 1 1 1 1 1
          1 1 1 1 1 1 1 1 1 1 1 1
          1 0.9995 0.9995 0.999359 0.999451 1 1 0.999979 0.99999 1 1 1
          1 1 1 1 1 1 1 1 1 1 1 0.999999
          0.999999 1 1 0.999999 0.999999 0.998701 0.998701 0.9987 0.998701 0.998901 0.9989 0.9989
          0.998901 1 1 0.999999 0.999999 1 1 0.999998 0.999998 0.998502 0.998502 0.9985
          0.998501 0.998601 0.998601 0.9986 0.998601 1 1 0.999998 0.999998 1 1 0.999997
          0.999997 0.998303 0.998302 0.998301 0.998301 0.998402 0.998402 0.998401 0.998401 1 1 1
          1 1 1 1 1 1 1 1 1 1 1 1
          1 1 1 1 1 1 1 1 1 1 1 1
          1 1 1 1 1 1 1 1 0.999997 0.999997 1 1
          0.999997 0.999997 0.998203 0.998203 0.998201 0.998201 0.998302 0.998302 0.998301 0.998301 1 1
          0.999996 0.999996 0.9999 0.9999 0.999896 0.999896 0.998103 0.998103 0.998101 0.998101 0.998104 0.998103
          0.998101 0.998102 0.9999 0.9999 0.999896 0.999896 0.9999 0.9999 0.999896 0.999896 0.998004 0.998004
          0.998002 0.998002 0.998004 0.998004 0.998002 0.998002 1 1 1 1 1 1
          1 1 1 1 1 1 1 1 1 1 1 1
          1 1 1 1 1 1 1 1 1 1 1 1
          0.9999 0.9999 0.999896 0.999896 0.9999 0.9999 0.999895 0.999895 0.997905 0.997904 0.997902 0.997902
          0.998004 0.998004 0.998001 0.998002 0.9999 0.9999 0.999895 0.999895 0.9999 0.9999 0.999895 0.999895
          0.997904 0.997904 0.997902 0.997902 0.997904 0.997904 0.997902 0.997902 0.9999 0.9999 0.999894 0.999894
          0.9999 0.9999 0.999894 0.999894 0.997805 0.997805 0.997802 0.997802 0.997805 0.997805 0.997802 0.997803
          0.99957 0.987807 0.929669 1 0.999985 0.996868 0.849659 0.759054 0.847065 0.934086 0.655547 0.806686
          0.913292 0.782514 0.900549 0.997299 0.995134 0.995552 1 1 1 1 1 1
          1 1 1 1 1 1 0.979052 0.99852 0.999991 0.999991 1 1
          1 1 1 1 1 1 1 1 1 1 1 1
          1 1 1 1 1 1 1 1 1 1 1 1
          1 1 1 1 1 1 1 1 1 1 1 1
          1 1 1 1 1 1 1 1 1 1 1 1
          1 1 1 1 1 1 1 1 1 1 1 1
          1 1 1 1 1 1 1 1 1 1 1 1
          1 1 0.9999 0.99984 0.999862 0.9999 1 1 1 1 1 0.997085
          0.995944 0.996935 0.997437 0.987821 0.977491 0.990333 0.991756 0.998886 0.998633 0.998684 0.998904 1
          0.999998 0.999997 1 1 1 1 1 1 1 0.999996 0.999997 1
          0.998904 0.998696 0.998679 0.998891 0.998707 0.998492 0.998463 0.998683 1 0.999994 0.999996 1
          0.948624 0.920475 0.974075 0.97717 0.875595 0.831495 0.951006 0.9571 0.985681 0.983161 0.984469 0.986604
          0.994859 0.993883 0.994198 0.995074 0.777719 0.729476 0.918552 0.928895 0.679021 0.636995 0.883929 0.897966
          0.95466 0.95042 0.955757 0.958982 0.968436 0.964259 0.967324 0.970825 0.595994 0.563393 0.844097 0.862231
          0.531873 0.507815 0.797049 0.81966 0.932956 0.928912 0.941448 0.943425 0.943137 0.939059 0.947469 0.950064
          0.995202 0.994346 0.994302 0.995169 0.987035 0.984908 0.98472 0.986902 0.986582 0.984347 0.984102 0.986407
          0.99502 0.994151 0.994096 0.994975 0.971619 0.968123 0.96773 0.971307 0.96031 0.957197 0.956856 0.959969
          0.959354 0.956226 0.95563 0.958786 0.970738 0.967069 0.9665 0.970285 0.952187 0.949823 0.949665 0.951968
          0.946583 0.944951 0.945047 0.946583 0.946254 0.944781 0.944418 0.945839 0.951457 0.949193 0.948688 0.950923
          1 1 1 1 1 1 0.999989 0.999991 1 0.998415 0.998199 0.998175
          0.998395 0.99822 0.997996 0.997971 0.9982 1 0.999985 0.999987 1 1 1 1
          1 1 1 1 1 1 0.999979 0.999982 1 0.998028 0.997795 0.997769
          0.998005 0.997835 0.997599 0.997569 0.997811 0.9999 0.999875 0.999872 0.9999 0.994821 0.993947 0.993899
          0.994777 0.986064 0.983702 0.983489 0.985929 0.985678 0.983163 0.982946 0.985551 0.99463 0.99376 0.993712
          0.994586 0.969623 0.96573 0.96512 0.969148 0.958046 0.954874 0.954236 0.957435 0.956652 0.95344 0.952771
          0.956005 0.968461 0.964307 0.96366 0.967962 0.950261 0.948064 0.947533 0.949696 0.945337 0.943972 0.943576
          0.944887 0.944359 0.943108 0.942724 0.943916 0.949014 0.946895 0.946348 0.948424 0.994444 0.993577 0.993542
          0.994416 0.985316 0.982619 0.982408 0.985217 0.985043 0.982111 0.9819 0.984968 0.994336 0.993463 0.993432
          0.994312 0.967248 0.962805 0.962122 0.966732 0.955184 0.951941 0.951249 0.954508 0.953661 0.950399 0.94965
          0.952923 0.966001 0.961225 0.960472 0.965441 0.947716 0.945694 0.945144 0.947116 0.943406 0.94228 0.941889
          0.942953 0.942428 0.941433 0.941024 0.941951 0.946404 0.944494 0.943908 0.945757 0.483884 0.466324 0.743409
          0.769499 0.448058 0.435212 0.686997 0.714141 0.913098 0.908306 0.933268 0.934495 0.92321 0.91892 0.936904
          0.938422 0.421274 0.411967 0.633147 0.658504 0.401311 0.394068 0.585914 0.607769 0.889757 0.883689 0.927123
          0.928155 0.902027 0.89661 0.930111 0.93119 0.385206 0.379184 0.54625 0.564412 0.371845 0.366932 0.513338
          0.528371 0.861458 0.853979 0.921013 0.922118 0.876237 0.869532 0.924124 0.925168 0.942877 0.941814 0.942204
          0.943155 0.94052 0.93985 0.94053 0.941085 0.941172 0.940676 0.940553 0.941007 0.943048 0.942164 0.94193
          0.942763 0.939021 0.938597 0.939576 0.939884 0.938052 0.937764 0.939041 0.939213 0.939641 0.939508 0.939507
          0.939624 0.940153 0.939897 0.939853 0.940081 0.937342 0.937118 0.938684 0.938796 0.936764 0.936579 0.93844
          0.938509 0.939187 0.939148 0.939193 0.939224 0.939354 0.939275 0.939309 0.939377 0.360877 0.356817 0.485551
          0.49829 0.351736 0.348301 0.461667 0.472604 0.825929 0.815698 0.913727 0.915251 0.844986 0.83629 0.917612
          0.918883 0.34397 0.341032 0.441362 0.450561 0.337323 0.3348 0.424622 0.432101 0.780299 0.768784 0.904975
          0.906732 0.803984 0.792606 0.909411 0.911141 0.331605 0.329429 0.411159 0.417097 0.326693 0.324812 0.400546
          0.405169 0.736159 0.727327 0.898414 0.899256 0.757016 0.746416 0.901027 0.90253 0.936266 0.936084 0.93827
          0.938317 0.935763 0.935558 0.938126 0.938168 0.939092 0.939091 0.939182 0.939175 0.939108 0.939095 0.939165
          0.93917 0.935228 0.935018 0.938002 0.93803 0.934724 0.934586 0.938 0.937955 0.939153 0.939241 0.93939
          0.939294 0.939081 0.939098 0.939226 0.939196 0.934536 0.93466 0.938485 0.938187 0.935269 0.936026 0.94027
          0.939338 0.940858 0.941877 0.94216 0.941087 0.939523 0.93987 0.940056 0.939691 0.942411 0.941631 0.94137
          0.9421 0.940794 0.940381 0.940213 0.940592 0.940362 0.940019 0.939848 0.940158 0.941745 0.941068 0.940809
          0.941437 0.939965 0.939763 0.939654 0.939834 0.939556 0.939451 0.939378 0.939474 0.939381 0.939291 0.939192
          0.939278 0.939683 0.939525 0.939411 0.93955 0.939347 0.939287 0.939215 0.939271 0.939196 0.939172 0.939106
          0.939119 0.939029 0.939169 0.93911 0.939023 0.939066 0.941088 0.940511 0.940254 0.94078 0.939928 0.939652
          0.939478 0.939725 0.939497 0.939278 0.93908 0.939274 0.940434 0.939961 0.939691 0.940115 0.939401 0.939281
          0.939148 0.939254 0.93916 0.939074 0.938956 0.93904 0.938901 0.938818 0.938655 0.938737 0.939084 0.938993
          0.938827 0.938904 0.938941 0.938889 0.938773 0.938799 0.938814 0.938513 0.93862 0.938576 0.938426 0.938423
          0.939166 0.939163 0.9391 0.939103 0.939181 0.93919 0.939133 0.939128 0.939061 0.939018 0.93923 0.939268
          0.939231 0.93919 0.939339 0.939438 0.939405 0.939304 0.939251 0.939355 0.939293 0.939184 0.939138 0.939176
          0.939107 0.939077 0.939758 0.940137 0.940121 0.939731 0.941216 0.942349 0.942438 0.941246 0.941274 0.942533
          0.942603 0.941275 0.939685 0.940089 0.940043 0.939627 0.938826 0.938877 0.938612 0.938559 0.938982 0.939024
          0.938926 0.938895 0.939105 0.939219 0.93913 0.939011 0.938901 0.939026 0.938902 0.938769 0.938756 0.938806
          0.938668 0.938632 0.939557 0.939985 0.939912 0.939472 0.941278 0.942684 0.942739 0.941252 0.941223 0.942802
          0.942834 0.941159 0.93937 0.939821 0.939708 0.939249 1 1 1 1 1 1
          1 1 1 1 1 0.9999 0.999864 0.999864 0.9999 0.997648 0.997406 0.997403
          0.997646 0.997646 0.997403 0.997404 0.997646 0.9999 0.999865 0.999865 0.9999 1 1 1
          1 1 1 1 1 1 1 1 0.9999 0.999865 0.999866 0.9999
          0.997647 0.997407 0.997422 0.997658 0.997742 0.997512 0.997541 0.997764 0.9999 0.99987 0.999872 0.9999
          0.994239 0.993362 0.99335 0.994235 0.984842 0.981622 0.9814 0.984781 0.984675 0.981112 0.980879 0.984639
          0.994235 0.993339 0.993337 0.994237 0.964651 0.959488 0.958665 0.964054 0.952001 0.948731 0.947917 0.95119
          0.950184 0.946926 0.946016 0.949261 0.963221 0.957599 0.95665 0.962548 0.944989 0.943214 0.942594 0.944295
          0.941402 0.94055 0.94012 0.940901 0.940328 0.939623 0.93915 0.939781 0.943479 0.941868 0.941191 0.942711
          0.994243 0.993338 0.993357 0.994265 0.984585 0.980587 0.980308 0.98457 0.984556 0.97996 0.979623 0.984611
          0.994343 0.993422 0.993469 0.994389 0.961612 0.955425 0.954278 0.960803 0.948123 0.944917 0.943874 0.947033
          0.945701 0.942624 0.941401 0.944377 0.959685 0.952802 0.951363 0.95866 0.941812 0.940401 0.939651 0.94095
          0.939158 0.938605 0.938059 0.938539 0.937832 0.937427 0.93676 0.937095 0.939953 0.938783 0.93791 0.938948
          1 1 1 1 1 1 1 1 1 1 1 0.9999
          0.999878 0.99988 0.9999 0.997933 0.997719 0.997761 0.997963 0.998221 0.998036 0.998086 0.998255 0.9999
          0.999888 0.999889 0.9999 1 1 1 1 1 1 0.999993 0.999996 1
          0.998611 0.998467 0.998528 0.998647 0.999202 0.999133 0.99917 0.99922 1 1 1 1
          0.994545 0.993612 0.993704 0.994627 0.984737 0.97923 0.978781 0.984904 0.985265 0.978299 0.97771 0.985641
          0.994924 0.993988 0.994142 0.995043 0.957251 0.949528 0.94766 0.955844 0.942779 0.939955 0.938513 0.941144
          0.939208 0.93684 0.935156 0.937207 0.95392 0.94531 0.942834 0.951811 0.937794 0.936903 0.935873 0.936618
          0.936254 0.935987 0.935137 0.935346 0.934308 0.934154 0.93308 0.933162 0.935289 0.934697 0.933448 0.933897
          0.995499 0.994612 0.994889 0.995692 0.98647 0.977235 0.976747 0.987194 0.989003 0.977149 0.978997 0.99058
          0.996613 0.995867 0.996327 0.996864 0.948932 0.939786 0.936576 0.945533 0.934908 0.933251 0.931327 0.93255
          0.929961 0.929207 0.927041 0.92738 0.940835 0.932772 0.928946 0.93473 0.932339 0.932025 0.930476 0.930685
          0.931844 0.931838 0.93044 0.930354 0.928619 0.928627 0.927181 0.926833 0.928845 0.928721 0.926831 0.92687
          0.939755 0.939381 0.939071 0.939404 0.939021 0.938848 0.938593 0.938746 0.938425 0.938288 0.937958 0.938085
          0.939003 0.938711 0.938343 0.938598 0.938694 0.938631 0.938421 0.938462 0.938536 0.938444 0.938253 0.938326
          0.938066 0.937977 0.937729 0.93777 0.938188 0.938172 0.937869 0.937858 0.938195 0.938083 0.937528 0.937633
          0.938133 0.937915 0.937468 0.937652 0.937688 0.93757 0.937145 0.937247 0.936726 0.936649 0.936062 0.936102
          0.937098 0.936949 0.936359 0.936473 0.937451 0.937447 0.937115 0.937025 0.937382 0.936751 0.936514 0.936564
          0.936149 0.935962 0.936852 0.938187 0.938228 0.937673 0.937675 0.93843 0.938494 0.938295 0.938252 0.938614
          0.938757 0.938585 0.938432 0.938219 0.938383 0.938145 0.937973 0.937961 0.938046 0.937763 0.93771 0.939103
          0.93957 0.939399 0.938927 0.941084 0.942869 0.942866 0.940964 0.94082 0.942858 0.942795 0.940613 0.938715
          0.939187 0.938925 0.938458 0.936902 0.936875 0.935842 0.936163 0.937316 0.937409 0.937025 0.936995 0.937695
          0.937864 0.937525 0.937384 0.937049 0.937099 0.936606 0.936666 0.936575 0.938142 0.938599 0.938211 0.937769
          0.94036 0.94271 0.942544 0.940015 0.93958 0.942321 0.941993 0.93902 0.937306 0.937731 0.937143 0.936744
          0.935737 0.935671 0.934906 0.934898 0.935344 0.93528 0.934659 0.934553 0.933625 0.933889 0.933898 0.933062
          0.932806 0.935265 0.935464 0.934251 0.933725 0.934701 0.931471 0.931454 0.930327 0.930081 0.931428 0.928445
          0.928425 0.931461 0.931575 0.928461 0.928448 0.931324 0.931254 0.928425 0.928434 0.934577 0.935558 0.936046
          0.935964 0.935277 0.935514 0.934663 0.934381 0.933402 0.933957 0.934284 0.936062 0.936433 0.935601 0.935276
          0.938328 0.94157 0.941011 0.93748 0.936448 0.940301 0.939379 0.935207 0.934333 0.934615 0.933468 0.933243
          0.931201 0.931257 0.928427 0.928422 0.931656 0.932288 0.931987 0.930588 0.931151 0.928924 0.928759 0.926974
          0.92744 0.928511 0.931914 0.932119 0.930596 0.930451 0.933696 0.938174 0.936583 0.931937 0.929818 0.934323
          0.930937 0.927441 0.928739 0.928846 0.926885 0.92686 1 1 1 1 1 1
          1 1 1 1 1 1 1 1 1 1 1 1
          1 1 1 1 1 1 1 1 1 1 1 1
          0.999856 0.999724 1 0.9999 0.999631 0.999588 0.9999 1 1 1 1 0.932487
          0.923679 0.908732 0.914999 0.914065 0.906897 0.896935 0.901812 0.890926 0.888007 0.881985 0.883637 0.900295
          0.895405 0.886859 0.891045 1 1 1 1 1 1 1 1 0.9998
          0.999559 0.999545 0.9998 0.9997 0.999531 0.999522 0.9997 1 1 1 1 0.883793
          0.87991 0.875153 0.878899 0.877665 0.876998 0.873662 0.873534 0.86996 0.870849 0.868857 0.867231 0.874518
          0.870913 0.867619 0.871084 0.900886 0.89716 0.891179 0.893145 0.895252 0.895054 0.892228 0.890952 0.887537
          0.890277 0.889756 0.885704 0.88631 0.88596 0.88269 0.881715 0.897118 0.900445 0.900467 0.895801 0.906475
          0.913041 0.915457 0.907828 0.910304 0.918947 0.922825 0.913388 0.895525 0.901504 0.903498 0.896382 0.922784
          0.932252 0.936425 0.926301 0.945311 0.955719 0.959978 0.949952 0.955683 0.965306 0.969077 0.96034 0.931011
          0.941677 0.946443 0.935682 0.878111 0.880305 0.879153 0.875865 0.884843 0.89016 0.891419 0.884965 0.885821
          0.893383 0.89569 0.88713 0.874237 0.87861 0.87871 0.873292 0.898264 0.906433 0.909707 0.900708 0.917498
          0.927676 0.932276 0.921642 0.926633 0.937653 0.942236 0.93118 0.903941 0.913699 0.91758 0.907234 0.941381
          0.952135 0.956615 0.946333 0.965984 0.974019 0.976924 0.969947 0.97494 0.9812 0.983236 0.977931 0.952107
          0.961955 0.965635 0.956602 1 1 1 1 1 1 1 1 0.9997
          0.999513 0.999505 0.9997 0.9997 0.999497 0.999489 0.9997 1 1 1 1 0.867668
          0.864392 0.861626 0.864687 0.864679 0.867082 0.865755 0.862552 0.860469 0.864531 0.863577 0.858618 0.861561
          0.858765 0.856171 0.858671 1 1 1 1 1 1 1 1 0.9996
          0.999479 0.999472 0.9996 0.9996 0.999463 0.999456 0.9996 1 1 1 1 0.85557
          0.853421 0.850856 0.852626 0.856763 0.862689 0.862007 0.855064 0.853353 0.861399 0.860975 0.851759 0.849435
          0.848105 0.845477 0.846317 0.872715 0.879204 0.880013 0.872476 0.888974 0.898512 0.901349 0.89095 0.893361
          0.904602 0.907671 0.895733 0.872501 0.881119 0.882389 0.872711 0.911119 0.922054 0.926091 0.914748 0.936415
          0.947469 0.951537 0.94083 0.945828 0.956237 0.959624 0.949802 0.918897 0.930637 0.934531 0.92262 0.961834
          0.970245 0.973044 0.96553 0.982016 0.986767 0.988076 0.984106 0.987337 0.990816 0.991519 0.988703 0.969993
          0.976878 0.978952 0.972897 0.873164 0.883938 0.88557 0.873729 0.898502 0.911115 0.914308 0.901158 0.904223
          0.917906 0.921196 0.907124 0.874554 0.887497 0.889482 0.875474 0.926837 0.938905 0.942521 0.930542 0.954338
          0.963702 0.966468 0.957796 0.96187 0.970028 0.972249 0.964811 0.934745 0.946649 0.949925 0.938347 0.976664
          0.982178 0.983714 0.978893 0.99109 0.99331 0.993731 0.9919 0.993571 0.995099 0.995368 0.994069 0.982035
          0.986447 0.987518 0.983691 1 1 1 1 1 1 1 1 1
          1 1 1 1 1 1 1 1 1 1 1 1
          1 1 1 1 1 1 1 1 1 1 1 1
          1 1 1 1 1 1 1 1 1 0.9999 0.9999 0.999894
          0.999894 0.9999 0.9999 0.999894 0.999894 0.997805 0.997805 0.997802 0.997802 0.997805 0.997805 0.997802
          0.997802 0.9999 0.9999 0.999894 0.999894 0.9999 0.9999 0.999893 0.999893 0.997706 0.997706 0.997703
          0.997703 0.997805 0.997805 0.997802 0.997802 0.9999 0.9999 0.999893 0.999893 0.9999 0.9999 0.999893
          0.999893 0.997706 0.997706 0.997703 0.997703 0.997706 0.997706 0.997703 0.997703 1 1 1
          1 1 1 1 1 1 1 1 1 1 1 1
          1 1 1 1 1 1 1 1 1 1 1 1
          1 1 1 0.9999 0.9999 0.999893 0.999893 0.9999 0.9999 0.999893 0.999893 0.997706
          0.997706 0.997703 0.997703 0.997706 0.997706 0.997703 0.997703 0.9999 0.9999 0.999893 0.999893 0.9999
          0.9999 0.999893 0.999893 0.997706 0.997706 0.997703 0.997703 0.997706 0.997706 0.997703 0.997703 0.9999
          0.9999 0.999893 0.999893 0.9999 0.9999 0.999893 0.999893 0.997706 0.997706 0.997703 0.997703 0.997706
          0.997706 0.997703 0.997703 1 1 1 1 1 1 1 1 0.9996
          0.999447 0.999439 0.9996 0.9996 0.99943 0.999422 0.9996 1 1 1 1 0.842908
          0.842636 0.839886 0.839516 0.850165 0.86066 0.860536 0.848675 0.847217 0.860585 0.860868 0.845877 0.835781
          0.836904 0.833993 0.831998 1 1 1 1 1 1 1 1 0.9995
          0.999412 0.999403 0.9995 0.9995 0.999393 0.999382 0.9995 1 1 1 1 0.827798
          0.830837 0.827748 0.823472 0.844635 0.861427 0.862315 0.84357 0.842728 0.863647 0.865464 0.84219 0.818624
          0.824415 0.821172 0.813516 0.876703 0.891809 0.894181 0.878031 0.910462 0.924931 0.928312 0.91362 0.917284
          0.93219 0.935654 0.920754 0.879743 0.896965 0.899805 0.881594 0.942468 0.953769 0.956721 0.94593 0.968418
          0.975329 0.977135 0.970923 0.97418 0.979895 0.981381 0.976306 0.949963 0.960329 0.962973 0.953261 0.98626
          0.989712 0.990417 0.987475 0.995345 0.996443 0.99661 0.99567 0.996734 0.99751 0.997609 0.996945 0.989588
          0.992096 0.992542 0.990458 0.883945 0.90315 0.906559 0.886506 0.924814 0.939691 0.943205 0.928628 0.93312