<?xml version="1.0"?>
<VTKFile type="UnstructuredGrid" version="0.1" byte_order="LittleEndian">
  <UnstructuredGrid>
    <Piece NumberOfCells="1928" NumberOfPoints="5784">
      <PointData Scalars="x^tracer_0">
        <DataArray type="Float32" Name="x^tracer_0" NumberOfComponents="1" format="ascii">
          0 0 0 0 0 0 0 0 0 0 0 0
          0 0 0 0 0 0 0 0 0 0 0 0
          0 0 0 0 0 0 0 0 0 0 0 0
          0 0 0 0 0 0 0 0 0 0 0 0
          0 0 0 0 0 0 0 0 0 0 0 0
          0 0 0 0 0 0 0 0 0 0 3.79933e-19 0
          0 0 0 0 0 0 0 0 0 0 0 0
          0 0 0 0 0 0 0 0 0 0 0 0
          0 0 0 0 0 0 0 0 0 0 0 0
          0 0 0 0 0 0 0 0 0 0 0 0
          0 0 0 0 0 0 0 0 0 0 0 0
          0 0 0 0 0 2.36026e-17 0 2.36026e-17 3.79933e-19 0 2.36026e-17 0
          0 0 0 0 0 0 0 0 0 0 0 0
          0 0 0 0 0 0 0 0 2.98567e-14 0 2.98567e-14 2.36026e-17
          2.8633e-12 2.98567e-14 0 0 0 0 0 0 0 0 0 0
          3.03565e-26 0 0 3.03565e-26 0 2.36706e-23 3.03565e-26 2.36706e-23 6.69866e-25 1.57011e-26 3.03565e-26 6.69866e-25
          1.84678e-24 6.69866e-25 2.36706e-23 1.57011e-26 6.69866e-25 3.43713e-26 1.05601e-27 1.57011e-26 3.43713e-26 1.05601e-27 3.43713e-26 1.18749e-27
          1.84678e-24 3.43713e-26 6.69866e-25 1.84678e-24 7.43836e-25 3.43713e-26 2.04464e-26 1.18749e-27 3.43713e-26 2.04464e-26 3.43713e-26 7.43836e-25
          2.17931e-21 0 0 2.17931e-21 2.36706e-23 0 2.17931e-21 8.0422e-23 2.36706e-23 2.17931e-21 7.12807e-21 8.0422e-23
          2.17931e-21 0 3.79933e-19 2.17931e-21 3.79933e-19 7.12807e-21 1.84678e-24 2.36706e-23 8.0422e-23 8.62683e-23 1.84678e-24 8.0422e-23
          8.62683e-23 7.43836e-25 1.84678e-24 2.04464e-26 7.43836e-25 1.68141e-24 8.62683e-23 1.68141e-24 7.43836e-25 8.62683e-23 8.0422e-23 7.12807e-21
          8.62683e-23 7.12807e-21 1.43918e-22 8.62683e-23 2.64745e-24 1.68141e-24 8.62683e-23 1.43918e-22 2.64745e-24 5.92713e-29 1.05601e-27 1.18749e-27
          1.92162e-29 5.92713e-29 3.57466e-28 1.57495e-30 1.46382e-32 2.72068e-32 1.27642e-31 1.46382e-32 1.68462e-29 5.92713e-29 1.18749e-27 3.57466e-28
          1.92162e-29 3.57466e-28 4.26931e-29 4.26931e-29 3.57466e-28 7.88608e-28 2.04464e-26 3.57466e-28 1.18749e-27 2.04464e-26 7.88608e-28 3.57466e-28
          1.57495e-30 1.68462e-29 1.46382e-32 4.26931e-29 7.88608e-28 9.40801e-28 1.57495e-30 -2.1145e-27 1.68462e-29 9.40801e-28 7.88608e-28 2.97212e-26
          -2.1145e-27 2.07772e-26 1.68462e-29 9.57058e-28 1.27642e-31 5.09406e-27 9.22224e-27 9.57058e-28 1.14707e-24 1.27642e-31 1.68462e-29 5.09406e-27
          1.42699e-24 5.09406e-27 1.68462e-29 9.57058e-28 5.09406e-27 3.5789e-25 1.42699e-24 1.68462e-29 2.07772e-26 1.42699e-24 3.5789e-25 5.09406e-27
          8.04591e-23 3.5789e-25 1.42699e-24 9.57058e-28 3.5789e-25 1.14707e-24 9.22224e-27 1.14707e-24 5.13901e-26 3.5789e-25 3.6331e-22 1.14707e-24
          8.04591e-23 3.6331e-22 3.5789e-25 6.94618e-24 1.14707e-24 3.6331e-22 2.04464e-26 1.68141e-24 2.97212e-26 2.04464e-26 2.97212e-26 7.88608e-28
          6.84583e-26 2.97212e-26 1.68141e-24 6.84583e-26 1.86825e-27 2.97212e-26 9.40801e-28 2.97212e-26 1.01464e-27 1.01464e-27 2.97212e-26 1.86825e-27
          -2.1145e-27 2.02216e-24 2.07772e-26 2.02216e-24 3.20116e-22 2.07772e-26 1.01464e-27 1.86825e-27 9.20803e-29 2.02216e-24 1.03233e-20 3.20116e-22
          6.84583e-26 1.68141e-24 2.64745e-24 6.84583e-26 2.64745e-24 5.80783e-26 6.84583e-26 5.80783e-26 1.58188e-27 1.53218e-24 5.80783e-26 2.64745e-24
          1.53218e-24 1.26861e-26 5.80783e-26 6.84583e-26 1.58188e-27 1.86825e-27 9.20803e-29 1.86825e-27 1.58188e-27 9.20803e-29 1.58188e-27 2.36347e-28
          1.03233e-20 1.20342e-17 1.7423e-19 1.26861e-26 1.58188e-27 5.80783e-26 2.36347e-28 1.58188e-27 1.26861e-26 2.36347e-28 1.26861e-26 2.14669e-28
          1.42699e-24 2.07772e-26 3.20116e-22 8.04591e-23 1.42699e-24 3.20116e-22 8.04591e-23 3.20116e-22 1.30938e-20 1.7423e-19 1.30938e-20 3.20116e-22
          1.03233e-20 1.7423e-19 3.20116e-22 8.04591e-23 7.92721e-20 3.6331e-22 6.94618e-24 3.6331e-22 1.4654e-21 1.4654e-21 3.6331e-22 7.92721e-20
          8.04591e-23 1.30938e-20 7.92721e-20 6.63801e-18 7.92721e-20 1.30938e-20 2.25478e-19 1.4654e-21 7.92721e-20 1.20342e-17 2.28468e-17 1.7423e-19
          6.63801e-18 1.30938e-20 1.7423e-19 6.63801e-18 1.7423e-19 2.28468e-17 1.20342e-17 1.7083e-15 2.28468e-17 1.7083e-15 1.20521e-15 2.28468e-17
          6.63801e-18 2.28468e-17 1.20521e-15 6.63801e-18 1.91849e-17 7.92721e-20 2.25478e-19 7.92721e-20 1.91849e-17 6.63801e-18 1.20521e-15 1.91849e-17
          1.20521e-15 1.74122e-15 1.91849e-17 2.25478e-19 1.91849e-17 1.23868e-17 7.58125e-16 1.23868e-17 1.91849e-17 1.63354e-15 3.79933e-19 2.36026e-17
          7.12807e-21 3.79933e-19 9.91195e-21 1.63354e-15 9.91195e-21 3.79933e-19 1.63354e-15 2.36026e-17 2.98567e-14 1.43918e-22 7.12807e-21 9.91195e-21
          5.67693e-18 1.43918e-22 9.91195e-21 1.53218e-24 2.64745e-24 1.43918e-22 1.53218e-24 1.43918e-22 1.3019e-24 1.63354e-15 5.67693e-18 9.91195e-21
          5.67693e-18 1.3019e-24 1.43918e-22 6.25226e-21 1.3019e-24 5.67693e-18 1.63354e-15 2.98567e-14 3.82278e-14 1.63354e-15 3.82278e-14 1.3918e-15
          3.82278e-14 2.98567e-14 1.90059e-12 3.82278e-14 1.90059e-12 3.17151e-13 3.82278e-14 3.17151e-13 9.22279e-15 1.3918e-15 3.82278e-14 9.22279e-15
          1.69353e-17 1.3918e-15 2.29884e-16 1.3918e-15 9.22279e-15 2.29884e-16 8.0595e-15 2.29884e-16 9.22279e-15 1.53218e-24 2.61714e-26 1.26861e-26
          1.53218e-24 1.3019e-24 2.61714e-26 6.76276e-27 2.61714e-26 1.3019e-24 1.26861e-26 2.61714e-26 3.28398e-28 2.14669e-28 1.26861e-26 3.28398e-28
          2.14669e-28 3.28398e-28 9.59169e-27 6.76276e-27 3.28398e-28 2.61714e-26 9.59169e-27 3.28398e-28 5.77768e-29 6.76276e-27 5.77768e-29 3.28398e-28
          6.76276e-27 1.3019e-24 2.0716e-24 6.25226e-21 2.0716e-24 1.3019e-24 6.76276e-27 2.0716e-24 5.59203e-27 6.76276e-27 5.59203e-27 5.77768e-29
          -2.95278e-17 5.59203e-27 2.0716e-24 1.7083e-15 1.1547e-13 1.20521e-15 1.1547e-13 9.52531e-14 1.20521e-15 1.20521e-15 9.52531e-14 1.74122e-15
          1.1547e-13 6.29851e-12 9.52531e-14 9.59169e-27 5.77768e-29 1.46138e-22 6.29851e-12 3.19539e-12 9.52531e-14 5.93277e-14 9.52531e-14 3.19539e-12
          7.58125e-16 1.91849e-17 1.74122e-15 7.58125e-16 1.74122e-15 5.93277e-14 5.93277e-14 1.74122e-15 9.52531e-14 7.58125e-16 5.93277e-14 4.18617e-14
          1.03311e-15 7.58125e-16 4.18617e-14 1.46138e-22 5.77768e-29 5.59203e-27 1.46138e-22 5.59203e-27 3.87014e-19 6.29851e-12 1.95319e-10 3.19539e-12
          1.95319e-10 6.12316e-11 3.19539e-12 3.87014e-19 5.59203e-27 -2.95278e-17 3.87014e-19 -2.95278e-17 4.66089e-15 1.95319e-10 3.1237e-09 6.12316e-11
          3.2891e-12 5.93277e-14 3.19539e-12 3.2891e-12 4.18617e-14 5.93277e-14 3.2891e-12 3.19539e-12 6.12316e-11 3.2891e-12 8.11355e-14 4.18617e-14
          3.2891e-12 6.12316e-11 3.84345e-10 3.1237e-09 3.84345e-10 6.12316e-11 3.2891e-12 5.52501e-12 8.11355e-14 3.2891e-12 3.84345e-10 5.52501e-12
          -7.66742e-14 2.0716e-24 6.25226e-21 -7.66742e-14 -2.95278e-17 2.0716e-24 -7.66742e-14 5.50592e-13 -2.95278e-17 1.71605e-19 1.69353e-17 2.46632e-18
          1.69353e-17 2.29884e-16 2.46632e-18 6.36952e-18 2.46632e-18 2.29884e-16 1.71605e-19 2.46632e-18 1.98877e-20 6.36952e-18 1.46455e-19 2.46632e-18
          1.98877e-20 2.46632e-18 1.46455e-19 1.52853e-21 1.98877e-20 1.46455e-19 4.66089e-15 -2.95278e-17 5.50592e-13 3.1237e-09 3.20935e-08 3.84345e-10
          4.66089e-15 5.50592e-13 1.61347e-11 2.18462e-09 5.50592e-13 -7.66742e-14 1.61347e-11 5.50592e-13 2.18462e-09 2.11271e-08 1.61347e-11 2.18462e-09
          3.20935e-08 3.13324e-09 3.84345e-10 6.81375e-11 5.52501e-12 3.84345e-10 6.81375e-11 3.84345e-10 3.13324e-09 1.90603e-07 3.13324e-09 3.20935e-08
          6.81375e-11 3.13324e-09 1.89687e-09 1.08307e-07 1.89687e-09 3.13324e-09 9.37973e-22 1.71605e-19 1.98877e-20 9.37973e-22 1.98877e-20 1.25527e-22
          5.62724e-24 9.37973e-22 1.25527e-22 1.52853e-21 1.25527e-22 1.98877e-20 1.52853e-21 2.11608e-23 1.25527e-22 1.67866e-24 1.25527e-22 2.11608e-23
          1.90603e-07 1.08307e-07 3.13324e-09 5.62724e-24 1.25527e-22 1.67866e-24 4.26883e-07 5.80867e-09 2.47099e-07 1.10172e-10 5.80867e-09 7.66773e-09
          1.67866e-24 2.11608e-23 1.02872e-24 4.26883e-07 7.66773e-09 5.80867e-09 4.26883e-07 7.95044e-07 7.66773e-09 0 0 0
          0 0 0 0 0 0 0 0 0 0 0 0
          0 0 0 0 0 0 0 0 0 0 0 0
          0 0 0 0 0 0 0 0 0 0 0 0
          0 0 0 0 0 0 0 0 0 0 0 0
          0 0 0 0 0 0 0 0 0 0 0 0
          0 0 0 0 0 0 0 0 0 5.3715e-08 0 0
          2.8633e-12 0 0 2.8633e-12 1.90059e-12 2.98567e-14 2.8633e-12 0 2.79646e-09 5.3715e-08 2.79646e-09 0
          2.8633e-12 2.79646e-09 1.33908e-10 7.43558e-10 1.33908e-10 2.79646e-09 0 0 0 0 9.81565e-07 0
          5.3715e-08 0 9.81565e-07 5.3715e-08 9.81565e-07 3.51595e-07 0 0 2.79648e-05 0 2.79648e-05 9.81565e-07
          0.000435626 2.79648e-05 0 4.48621e-06 3.51595e-07 9.81565e-07 4.48621e-06 9.81565e-07 2.79648e-05 5.3715e-08 2.79822e-08 2.79646e-09
          7.43558e-10 2.79646e-09 2.79822e-08 5.3715e-08 3.51595e-07 2.79822e-08 4.48621e-06 9.11136e-06 3.51595e-07 9.11136e-06 2.79822e-08 3.51595e-07
          7.43558e-10 2.79822e-08 1.28324e-09 8.59628e-07 1.28324e-09 2.79822e-08 0 0 0 0 0 0
          0 0 0 0 0 0 0 0 0 0 0 0
          0 0 0 0 0 0 0 0 0 0 0 0
          0.000435626 0 0 0.00680487 0 0 0.000435626 0 0.00680487 0.000435626 0.00680487 0.00547003
          0.070989 0 0 0.070989 0 0 0.070989 0.00680487 0 0.070989 0.170133 0.00680487
          0.00680487 0.170133 0.00547003 0 0 0 0 0 0 0 0 0
          0 0 0 0 0 0 0 0 0 0 0 0
          7.7774e-06 2.71192e-05 0 0 0 0 0 0 0 0 0 0.0157429
          2.71192e-05 0 0 0.00676779 0.0157429 0 2.71192e-05 0.00676779 0 0.070989 0 0.0894868
          0.070989 0.0894868 0.170133 0 0.0894868 0 0 0.0685453 0.0894868 0.179858 0.0894868 0.0685453
          0.0898825 0.170133 0.214736 0.179858 0.170133 0.0894868 0.179858 0.214736 0.170133 0.179858 0.188522 0.214736
          0 0.0157429 0.0685453 0.179858 0.0685453 0.108034 0.0685453 0.0157429 0.108034 0.00676779 0.0581537 0.0157429
          0.0581537 0.108034 0.0157429 0.0581537 0.146931 0.108034 0.18192 0.179858 0.108034 0.179858 0.18192 0.188522
          0.175531 0.188522 0.18192 0.146931 0.18192 0.108034 0.146931 0.175531 0.18192 0 0 0
          0.175531 0.121224 0.188522 0.000435626 0.000954726 2.79648e-05 0.000435626 0.00547003 0.000954726 4.48621e-06 2.79648e-05 7.23929e-05
          0.000954726 7.23929e-05 2.79648e-05 4.48621e-06 7.23929e-05 9.11136e-06 0.000364012 7.23929e-05 0.000954726 0.0898825 0.000954726 0.00547003
          0.0898825 0.00547003 0.170133 0.0898825 0.0201931 0.000954726 0.000364012 0.000954726 0.0201931 0.000364012 0.0201931 0.00360086
          0.000364012 9.11136e-06 7.23929e-05 9.11136e-06 0.0001329 8.91095e-06 8.59628e-07 2.79822e-08 9.11136e-06 8.59628e-07 9.11136e-06 8.91095e-06
          8.91095e-06 1.51554e-05 8.59628e-07 0.000364012 0.0001329 9.11136e-06 0.000364012 0.00360086 0.0001329 0.000404902 0.0001329 0.00360086
          8.91095e-06 0.0001329 1.51554e-05 1.51554e-05 2.99008e-06 8.59628e-07 0.000404902 1.51554e-05 0.0001329 0.0898825 0.214736 0.132017
          0.0898825 0.050088 0.0201931 0.0898825 0.132017 0.050088 0.132017 0.214736 0.188522 0.132017 0.0395886 0.050088
          0.132017 0.0950019 0.0395886 0.0134607 0.0201931 0.050088 0.0134607 0.00360086 0.0201931 0.0134607 0.00183996 0.00360086
          0.0134607 0.050088 0.0395886 0.0134607 0.0395886 0.0072885 0.0134607 0.0072885 0.00183996 0.132017 0.188522 0.0950019
          0.121224 0.0950019 0.188522 0.045636 0.0395886 0.0950019 0.121224 0.045636 0.0950019 0 0 0
          0 0 0 0 0 0 0 0 0 0.0133457 0.0072885 0.0395886
          0.045636 0.0133457 0.0395886 0.0133457 0.00188303 0.0072885 0 0 0 0 0 0
          0 0 0 0.000404902 0.00360086 0.00183996 0.00188303 0.00183996 0.0072885 0.000404902 0.00183996 0.000169367
          0.00034517 0.000169367 0.00183996 0.000404902 3.69792e-05 1.51554e-05 0.000404902 0.000169367 3.69792e-05 2.8457e-06 1.51554e-05 3.69792e-05
          2.8457e-06 3.69792e-05 2.62802e-06 3.69792e-05 0.000169367 1.56573e-05 3.67708e-05 1.56573e-05 0.000169367 3.69792e-05 1.56573e-05 2.62802e-06
          2.12856e-06 2.62802e-06 1.56573e-05 0.00188303 0.00034517 0.00183996 0 0 0 0.00034517 3.67708e-05 0.000169367
          0 0 0 0 0 0 0 0 0 0 0 0
          0 0 0 0 0 0 3.67708e-05 2.12856e-06 1.56573e-05 0 0 0
          0 0 0 0 0 0 0 0 0 0 0 0
          2.8633e-12 1.33908e-10 1.90059e-12 1.53693e-11 3.17151e-13 1.90059e-12 1.53693e-11 3.02015e-13 3.17151e-13 1.53693e-11 1.90059e-12 1.33908e-10
          1.33908e-10 7.43558e-10 1.53693e-11 3.02015e-13 9.22279e-15 3.17151e-13 8.0595e-15 9.22279e-15 3.02015e-13 8.0595e-15 2.40788e-16 2.29884e-16
          8.0595e-15 3.02015e-13 7.7398e-15 8.0595e-15 7.7398e-15 2.40788e-16 1.53693e-11 9.43961e-13 3.02015e-13 2.18625e-14 3.02015e-13 9.43961e-13
          2.18625e-14 7.7398e-15 3.02015e-13 4.01889e-16 7.7398e-15 2.18625e-14 1.53693e-11 7.43558e-10 3.25193e-11 7.43558e-10 1.28324e-09 3.25193e-11
          1.53693e-11 3.25193e-11 9.43961e-13 6.04431e-11 1.28324e-09 7.09376e-09 8.59628e-07 7.09376e-09 1.28324e-09 6.04431e-11 3.25193e-11 1.28324e-09
          6.04431e-11 2.06635e-12 3.25193e-11 6.04431e-11 1.64337e-10 2.06635e-12 6.78417e-13 9.43961e-13 3.25193e-11 6.78417e-13 2.18625e-14 9.43961e-13
          6.78417e-13 1.35202e-14 2.18625e-14 4.76155e-16 3.79277e-16 2.18625e-14 4.76155e-16 2.18625e-14 1.35202e-14 6.78417e-13 3.25193e-11 2.06635e-12
          6.78417e-13 2.06635e-12 6.18415e-14 2.78245e-12 6.18415e-14 2.06635e-12 2.78245e-12 6.15992e-14 6.18415e-14 6.78417e-13 6.18415e-14 1.35202e-14
          1.73906e-15 1.35202e-14 6.18415e-14 1.73906e-15 1.54486e-16 1.35202e-14 1.73906e-15 6.18415e-14 6.15992e-14 6.36952e-18 2.29884e-16 2.40788e-16
          4.01889e-16 2.40788e-16 7.7398e-15 6.36952e-18 2.40788e-16 8.02402e-18 4.01889e-16 8.02402e-18 2.40788e-16 6.36952e-18 8.02402e-18 1.46455e-19
          1.52853e-21 1.46455e-19 2.48998e-21 1.4368e-19 1.46455e-19 8.02402e-18 1.4368e-19 2.48998e-21 1.46455e-19 4.01889e-16 8.46858e-18 8.02402e-18
          4.01889e-16 2.18625e-14 3.79277e-16 4.01889e-16 3.79277e-16 8.46858e-18 1.4368e-19 8.02402e-18 4.23263e-19 1.4368e-19 1.46851e-20 2.48998e-21
          1.4368e-19 4.23263e-19 1.46851e-20 8.46858e-18 4.23263e-19 8.02402e-18 1.20658e-18 1.46851e-20 4.23263e-19 1.52853e-21 2.48998e-21 7.04532e-22
          1.52853e-21 7.04532e-22 2.11608e-23 7.04532e-22 3.1637e-23 2.11608e-23 7.88385e-20 7.04532e-22 2.48998e-21 1.02872e-24 2.11608e-23 3.1637e-23
          1.02872e-24 3.1637e-23 6.30098e-23 7.95044e-07 1.02261e-08 7.66773e-09 7.95044e-07 1.67496e-06 1.02261e-08 7.04532e-22 2.99342e-21 3.1637e-23
          6.30098e-23 3.1637e-23 2.99342e-21 1.67496e-06 3.82581e-06 4.30841e-08 7.88385e-20 2.48998e-21 1.46851e-20 7.88385e-20 2.99342e-21 7.04532e-22
          1.20658e-18 1.09893e-17 1.46851e-20 7.88385e-20 1.46851e-20 1.09893e-17 7.88385e-20 1.09893e-17 3.34805e-19 7.88385e-20 3.34805e-19 2.99342e-21
          6.30098e-23 2.99342e-21 2.48732e-21 2.48732e-21 2.99342e-21 6.43683e-20 3.34805e-19 6.43683e-20 2.99342e-21 2.48732e-21 6.43683e-20 5.88726e-19
          3.34805e-19 9.00192e-18 6.43683e-20 5.88726e-19 6.43683e-20 9.00192e-18 4.76155e-16 8.98247e-18 3.79277e-16 8.46858e-18 3.79277e-16 8.98247e-18
          4.76155e-16 1.35202e-14 1.54486e-16 4.76155e-16 1.54486e-16 8.98247e-18 8.46858e-18 3.98673e-17 4.23263e-19 3.98673e-17 8.46858e-18 8.98247e-18
          4.23263e-19 3.98673e-17 1.20658e-18 3.98673e-17 1.22123e-15 1.20658e-18 3.98673e-17 8.98247e-18 5.85417e-15 3.98673e-17 1.30095e-13 1.22123e-15
          5.85417e-15 8.98247e-18 1.54486e-16 1.73906e-15 8.07114e-17 1.54486e-16 1.54486e-16 8.07114e-17 1.11121e-15 5.85417e-15 1.54486e-16 1.11121e-15
          3.98673e-17 5.85417e-15 1.30095e-13 5.85417e-15 1.11121e-15 1.46107e-12 5.85417e-15 2.23696e-11 1.30095e-13 1.64568e-11 1.30095e-13 2.23696e-11
          1.20658e-18 1.22123e-15 1.09893e-17 1.22123e-15 1.07148e-15 1.09893e-17 1.07148e-15 2.8026e-17 1.09893e-17 1.07148e-15 1.22123e-15 1.11462e-13
          1.07148e-15 1.11462e-13 2.04279e-15 3.34805e-19 1.09893e-17 2.8026e-17 3.34805e-19 2.8026e-17 9.00192e-18 5.88726e-19 9.00192e-18 1.28662e-16
          6.73888e-16 9.00192e-18 2.8026e-17 1.28662e-16 9.00192e-18 3.13454e-15 1.07148e-15 2.04279e-15 2.8026e-17 6.73888e-16 2.8026e-17 2.04279e-15
          6.73888e-16 3.13454e-15 9.00192e-18 6.73888e-16 3.48692e-13 3.13454e-15 1.11462e-13 1.22123e-15 1.30095e-13 7.54457e-14 1.11462e-13 1.96661e-12
          1.64568e-11 1.11462e-13 1.30095e-13 1.64568e-11 1.96661e-12 1.11462e-13 7.54457e-14 2.04279e-15 1.11462e-13 7.54457e-14 6.73888e-16 2.04279e-15
          7.54457e-14 3.48692e-13 6.73888e-16 7.54457e-14 1.96661e-12 8.1059e-12 7.54457e-14 4.83451e-11 3.48692e-13 7.54457e-14 8.1059e-12 4.83451e-11
          8.59628e-07 1.09678e-08 7.09376e-09 8.59628e-07 -1.16041e-08 1.09678e-08 6.04431e-11 7.09376e-09 1.64337e-10 1.64337e-10 7.09376e-09 1.09678e-08
          5.82041e-10 1.64337e-10 1.09678e-08 5.82041e-10 8.90354e-12 1.64337e-10 -1.16041e-08 7.68353e-09 1.09678e-08 2.8457e-06 2.99008e-06 1.51554e-05
          0.000192633 3.80001e-06 -1.16041e-08 -1.16041e-08 3.80001e-06 7.68353e-09 5.82041e-10 1.09678e-08 7.68353e-09 5.82041e-10 7.68353e-09 1.85401e-07
          1.85401e-07 7.68353e-09 3.80001e-06 5.82041e-10 1.85401e-07 5.72347e-09 2.78245e-12 2.06635e-12 1.64337e-10 2.78245e-12 2.22723e-13 6.15992e-14
          2.78245e-12 1.64337e-10 8.90354e-12 2.78245e-12 8.90354e-12 2.22723e-13 3.75905e-15 6.15992e-14 2.22723e-13 1.73906e-15 6.15992e-14 3.75905e-15
          1.73906e-15 3.75905e-15 8.07114e-17 2.78417e-13 3.75905e-15 2.22723e-13 5.82041e-10 3.23144e-11 8.90354e-12 3.23144e-11 2.22723e-13 8.90354e-12
          5.82041e-10 5.72347e-09 3.23144e-11 3.23144e-11 5.72347e-09 1.55227e-10 3.23144e-11 1.55227e-10 2.07342e-12 2.78417e-13 2.22723e-13 3.23144e-11
          2.78417e-13 3.6775e-15 3.75905e-15 2.78417e-13 2.32869e-15 3.6775e-15 2.78417e-13 3.23144e-11 2.07342e-12 2.78417e-13 2.07342e-12 3.62463e-14
          2.78417e-13 3.62463e-14 2.32869e-15 1.85401e-07 3.80001e-06 1.51427e-05 0.000192633 1.51427e-05 3.80001e-06 2.32822e-07 2.8457e-06 2.62802e-06
          2.32822e-07 2.62802e-06 2.12856e-06 0.00101771 1.51427e-05 0.000192633 0.00101771 3.75265e-05 1.51427e-05 5.44331e-07 1.85401e-07 1.51427e-05
          5.44331e-07 5.72347e-09 1.85401e-07 3.75265e-05 5.44331e-07 1.51427e-05 5.44331e-07 1.00838e-08 5.72347e-09 0.000556801 6.94293e-06 0.000385347
          0 0 0 0 0 0 0.000894341 1.85125e-05 0.000197181 0.000894341 0.000210983 1.85125e-05
          0 0 0 0 0 0 0.000210983 3.17822e-06 1.85125e-05 -6.70619e-07 3.17822e-06 0.000210983
          0.000197181 6.94293e-06 0.000556801 0.000197181 1.85125e-05 6.94293e-06 5.26692e-07 6.94293e-06 1.85125e-05 5.26692e-07 1.85125e-05 3.17822e-06
          5.26692e-07 8.40986e-08 6.94293e-06 3.69533e-06 6.94293e-06 8.40986e-08 5.26692e-07 7.46665e-08 8.40986e-08 1.00838e-08 1.55227e-10 5.72347e-09
          1.17671e-10 2.07342e-12 1.55227e-10 1.00838e-08 1.17671e-10 1.55227e-10 0.000385347 1.09313e-05 0.000709749 0.000709749 1.09313e-05 1.33338e-05
          1.51059e-12 3.62463e-14 2.07342e-12 1.17671e-10 1.51059e-12 2.07342e-12 1.30856e-14 2.32869e-15 3.62463e-14 1.51059e-12 1.30856e-14 3.62463e-14
          0.000709749 1.33338e-05 0.000617431 0.000617431 1.33338e-05 1.13461e-05 0.000617431 1.13461e-05 0.000703394 0.000703394 1.13461e-05 2.30922e-05
          0.000385347 6.94293e-06 3.69533e-06 0.000385347 3.69533e-06 1.09313e-05 1.76461e-07 1.09313e-05 3.69533e-06 1.76461e-07 1.33338e-05 1.09313e-05
          1.76461e-07 3.69533e-06 4.40781e-08 3.69533e-06 8.40986e-08 4.40781e-08 1.76461e-07 4.40781e-08 1.17775e-09 1.76461e-07 1.17775e-09 2.88397e-09
          1.76461e-07 2.50816e-07 1.33338e-05 1.13461e-05 1.33338e-05 2.50816e-07 1.76461e-07 2.88397e-09 2.50816e-07 7.42332e-08 1.13461e-05 2.50816e-07
          7.42332e-08 5.60012e-07 1.13461e-05 7.42332e-08 2.50816e-07 2.88397e-09 1.87901e-13 1.11121e-15 8.07114e-17 1.87901e-13 8.07114e-17 3.75905e-15
          1.87901e-13 1.46107e-12 1.11121e-15 1.87901e-13 3.75905e-15 3.6775e-15 1.87901e-13 6.30213e-10 1.46107e-12 1.87901e-13 4.32113e-10 6.30213e-10
          5.85417e-15 1.46107e-12 2.23696e-11 6.30213e-10 2.23696e-11 1.46107e-12 1.03528e-08 2.85786e-09 2.23696e-11 1.03528e-08 2.23696e-11 6.30213e-10
          1.87901e-13 3.6775e-15 4.32113e-10 4.32113e-10 3.6775e-15 2.32869e-15 4.32113e-10 2.32869e-15 2.32645e-07 4.32113e-10 2.32645e-07 4.42636e-07
          1.03528e-08 6.30213e-10 4.42636e-07 4.32113e-10 4.42636e-07 6.30213e-10 1.03528e-08 2.34011e-06 6.83318e-07 6.47403e-05 4.42636e-07 2.32645e-07
          1.03528e-08 4.42636e-07 2.34011e-06 0.000138547 2.34011e-06 4.42636e-07 1.64568e-11 2.23696e-11 2.85786e-09 1.64568e-11 2.85786e-09 2.28067e-10
          1.64568e-11 2.28067e-10 1.96661e-12 2.28067e-10 8.1059e-12 1.96661e-12 2.79955e-08 2.28067e-10 2.85786e-09 2.79955e-08 2.85801e-08 2.28067e-10
          1.76596e-09 8.1059e-12 2.28067e-10 1.76596e-09 4.83451e-11 8.1059e-12 1.76596e-09 1.13492e-08 4.83451e-11 1.76596e-09 2.28067e-10 2.85801e-08
          1.76596e-09 2.85801e-08 8.52801e-07 1.76596e-09 8.52801e-07 1.13492e-08 4.64342e-08 1.13492e-08 8.52801e-07 1.03528e-08 6.83318e-07 2.85786e-09
          2.79955e-08 2.85786e-09 6.83318e-07 2.79955e-08 6.83318e-07 3.04614e-06 2.79955e-08 3.04614e-06 3.04483e-06 0.000156086 3.04614e-06 6.83318e-07
          0.000156086 6.83318e-07 2.34011e-06 0.000245791 3.04483e-06 3.04614e-06 0.000156086 0.000245791 3.04614e-06 2.79955e-08 3.04483e-06 2.85801e-08
          8.52801e-07 2.85801e-08 3.04483e-06 4.64342e-08 8.52801e-07 3.11001e-06 0.000158706 8.52801e-07 3.04483e-06 0.000245791 0.000158706 3.04483e-06
          0.000158706 3.11001e-06 8.52801e-07 0.000158706 0.000210729 3.11001e-06 1.30856e-14 1.78893e-05 2.32869e-15 1.78893e-05 2.32645e-07 2.32869e-15
          1.78893e-05 6.47403e-05 2.32645e-07 0.000876015 3.11321e-05 0.000543782 0.000703394 2.30922e-05 0.000876015 0.000876015 2.30922e-05 3.11321e-05
          0.000543782 3.11321e-05 7.42929e-06 6.47403e-05 0.000138547 4.42636e-07 0.000138547 0.000156086 2.34011e-06 0.000543782 2.07093e-05 0.000850042
          0.000850042 2.07093e-05 3.08957e-05 0.000543782 7.42929e-06 2.07093e-05 3.92898e-07 2.07093e-05 7.42929e-06 7.72609e-07 3.08957e-05 2.07093e-05
          3.92898e-07 7.72609e-07 2.07093e-05 1.13461e-05 5.60012e-07 2.30922e-05 7.23844e-07 2.30922e-05 5.60012e-07 7.23844e-07 3.11321e-05 2.30922e-05
          7.23844e-07 7.42929e-06 3.11321e-05 7.23844e-07 6.52578e-08 7.42929e-06 7.42332e-08 1.68159e-08 5.60012e-07 7.23844e-07 5.60012e-07 1.68159e-08
          7.23844e-07 1.68159e-08 6.52578e-08 1.207e-09 6.52578e-08 1.68159e-08 3.92898e-07 7.42929e-06 6.52578e-08 3.92898e-07 1.50415e-08 7.72609e-07
          3.92898e-07 6.52578e-08 7.6625e-09 8.5998e-10 7.6625e-09 6.52578e-08 3.92898e-07 7.6625e-09 1.50415e-08 2.76907e-10 1.50415e-08 7.6625e-09
          0.000850042 3.08957e-05 0.00070757 0.00070757 3.08957e-05 1.33467e-05 0.00070757 1.33467e-05 0.000512729 0.000512729 1.33467e-05 1.21391e-05
          7.72609e-07 1.33467e-05 3.08957e-05 7.72609e-07 1.81109e-07 1.33467e-05 2.9149e-07 1.33467e-05 1.81109e-07 0.000512729 1.21391e-05 0.000356696
          0.000356696 4.65636e-06 0.000246439 0.000356696 1.21391e-05 4.65636e-06 2.9149e-07 1.21391e-05 1.33467e-05 2.9149e-07 4.65636e-06 1.21391e-05
          2.9149e-07 5.95273e-08 4.65636e-06 7.72609e-07 1.50415e-08 1.81109e-07 3.15313e-09 1.81109e-07 1.50415e-08 3.15313e-09 5.02079e-09 1.81109e-07
          3.15313e-09 1.50415e-08 2.28002e-10 2.76907e-10 2.28002e-10 1.50415e-08 3.15313e-09 7.48941e-11 5.02079e-09 3.15313e-09 2.28002e-10 7.48941e-11
          2.9149e-07 1.81109e-07 5.02079e-09 2.9149e-07 5.02079e-09 4.20499e-09 2.9149e-07 4.20499e-09 5.95273e-08 1.03949e-09 5.95273e-08 4.20499e-09
          8.42922e-11 4.20499e-09 5.02079e-09 8.42922e-11 5.02079e-09 7.48941e-11 8.42922e-11 5.46301e-11 4.20499e-09 1.03949e-09 4.20499e-09 5.46301e-11
          4.73475e-25 9.22224e-27 5.13901e-26 4.73475e-25 5.13901e-26 1.22808e-22 6.94618e-24 5.13901e-26 1.14707e-24 6.94618e-24 1.22808e-22 5.13901e-26
          4.73475e-25 1.22808e-22 2.35134e-22 2.51154e-24 4.73475e-25 2.35134e-22 2.51154e-24 2.35134e-22 4.02452e-19 3.29749e-21 2.51154e-24 4.02452e-19
          3.29749e-21 4.02452e-19 3.37936e-20 6.94618e-24 1.4654e-21 1.22808e-22 1.22808e-22 1.4654e-21 4.40145e-20 2.25478e-19 4.40145e-20 1.4654e-21
          9.02853e-20 1.22808e-22 4.40145e-20 9.02853e-20 2.35134e-22 1.22808e-22 2.25478e-19 7.30119e-18 4.40145e-20 2.25478e-19 1.23868e-17 7.30119e-18
          7.30119e-18 1.52125e-17 4.40145e-20 9.02853e-20 4.40145e-20 1.52125e-17 2.08817e-15 1.52125e-17 7.30119e-18 9.02853e-20 4.02452e-19 2.35134e-22
          9.02853e-20 1.29785e-16 4.02452e-19 1.12036e-17 3.37936e-20 4.02452e-19 1.12036e-17 4.02452e-19 1.29785e-16 9.02853e-20 1.52125e-17 1.29785e-16
          1.29785e-16 1.52125e-17 4.92122e-16 1.12036e-17 1.29785e-16 2.78218e-15 3.72092e-22 3.29749e-21 3.37936e-20 3.72092e-22 3.37936e-20 2.13358e-18
          2.03243e-20 3.72092e-22 2.13358e-18 2.03243e-20 2.13358e-18 7.38234e-18 1.44874e-19 2.03243e-20 7.38234e-18 1.12036e-17 2.13358e-18 3.37936e-20
          1.12036e-17 9.25318e-16 2.13358e-18 2.62483e-17 2.13358e-18 9.25318e-16 1.12036e-17 2.78218e-15 9.25318e-16 2.62483e-17 7.38234e-18 2.13358e-18
          2.62483e-17 4.78097e-15 7.38234e-18 2.62483e-17 9.25318e-16 4.78097e-15 7.38234e-18 4.78097e-15 1.90347e-16 1.23868e-17 7.58125e-16 1.03311e-15
          1.03311e-15 7.30119e-18 1.23868e-17 2.08817e-15 7.30119e-18 1.03311e-15 1.03311e-15 4.18617e-14 8.11355e-14 2.08817e-15 4.92122e-16 1.52125e-17
          2.08817e-15 1.03311e-15 2.38493e-13 1.03311e-15 8.11355e-14 2.38493e-13 3.09451e-13 8.11355e-14 5.52501e-12 3.09451e-13 2.38493e-13 8.11355e-14
          3.09451e-13 2.18048e-11 2.38493e-13 2.08817e-15 2.38493e-13 4.41149e-14 3.63019e-12 4.41149e-14 2.38493e-13 4.00146e-14 1.29785e-16 4.92122e-16
          2.08817e-15 4.41149e-14 4.92122e-16 4.00146e-14 4.92122e-16 4.41149e-14 4.00146e-14 2.78218e-15 1.29785e-16 4.00146e-14 3.37892e-13 2.78218e-15
          4.00146e-14 4.41149e-14 4.33695e-12 3.63019e-12 4.33695e-12 4.41149e-14 4.00146e-14 4.33695e-12 3.37892e-13 6.81375e-11 2.18048e-11 5.52501e-12
          2.18048e-11 3.09451e-13 5.52501e-12 3.30372e-11 2.38493e-13 2.18048e-11 6.81375e-11 1.89687e-09 2.18048e-11 3.30372e-11 2.18048e-11 1.89687e-09
          3.30372e-11 1.89687e-09 1.53089e-09 3.63019e-12 2.38493e-13 3.30372e-11 3.63019e-12 3.30372e-11 3.50542e-10 3.30372e-11 1.53089e-09 3.50542e-10
          6.93678e-08 1.89687e-09 1.08307e-07 6.93678e-08 1.53089e-09 1.89687e-09 2.5243e-08 1.53089e-09 6.93678e-08 1.10172e-10 7.66773e-09 1.02261e-08
          1.10172e-10 1.02261e-08 5.99173e-11 6.87687e-13 1.10172e-10 5.99173e-11 2.5243e-08 3.50542e-10 1.53089e-09 8.59957e-09 3.50542e-10 2.5243e-08
          3.63019e-12 3.50542e-10 4.33695e-12 3.50542e-10 1.74445e-10 4.33695e-12 2.32388e-11 3.37892e-13 4.33695e-12 2.32388e-11 4.33695e-12 1.74445e-10
          8.59957e-09 1.74445e-10 3.50542e-10 1.51119e-09 1.74445e-10 8.59957e-09 1.51119e-09 2.32388e-11 1.74445e-10 2.15844e-13 9.25318e-16 2.78218e-15
          4.78097e-15 9.25318e-16 2.15844e-13 2.15844e-13 2.78218e-15 3.37892e-13 2.15844e-13 3.37892e-13 2.18227e-11 2.15844e-13 5.72594e-13 4.78097e-15
          6.36313e-14 4.78097e-15 5.72594e-13 2.32388e-11 2.18227e-11 3.37892e-13 2.15844e-13 2.18227e-11 5.72594e-13 1.51119e-09 2.18227e-11 2.32388e-11
          6.27411e-10 2.18227e-11 1.51119e-09 6.27411e-10 2.33707e-11 2.18227e-11 5.72594e-13 2.18227e-11 2.33707e-11 1.7984e-11 5.72594e-13 2.33707e-11
          1.44874e-19 7.38234e-18 1.90347e-16 6.36313e-14 1.90347e-16 4.78097e-15 1.7984e-11 6.36313e-14 5.72594e-13 5.7265e-10 5.99173e-11 1.02261e-08
          1.67496e-06 4.30841e-08 1.02261e-08 5.7265e-10 1.02261e-08 4.30841e-08 5.7265e-10 4.30841e-08 6.96072e-08 6.87687e-13 5.99173e-11 2.85414e-12
          5.7265e-10 2.85414e-12 5.99173e-11 1.40448e-14 6.87687e-13 2.85414e-12 5.7265e-10 4.75831e-10 2.85414e-12 2.06646e-11 7.53999e-14 2.85414e-12
          3.82581e-06 6.96072e-08 4.30841e-08 3.82581e-06 7.96239e-06 6.96072e-08 5.7265e-10 6.96072e-08 4.75831e-10 3.42813e-09 4.75831e-10 6.96072e-08
          7.96239e-06 2.35323e-07 6.96072e-08 3.42813e-09 6.96072e-08 2.35323e-07 2.06646e-11 2.85414e-12 4.75831e-10 2.06646e-11 4.75831e-10 3.42813e-09
          2.06646e-11 3.42813e-09 2.40818e-09 1.40448e-14 2.85414e-12 7.53999e-14 7.18075e-11 1.40448e-14 7.53999e-14 7.18075e-11 7.53999e-14 2.24184e-13
          2.06646e-11 3.0832e-13 7.53999e-14 2.06646e-11 5.19246e-11 3.0832e-13 3.0832e-13 2.24184e-13 7.53999e-14 5.48943e-13 2.24184e-13 3.0832e-13
          5.48943e-13 3.0832e-13 4.35915e-13 7.96239e-06 1.44969e-05 2.35323e-07 3.42813e-09 2.35323e-07 2.61523e-07 1.44969e-05 2.61523e-07 2.35323e-07
          1.28662e-16 3.13454e-15 1.59106e-14 1.59106e-14 3.13454e-15 3.48692e-13 1.44969e-05 2.16107e-05 2.61523e-07 2.16107e-05 6.75789e-07 2.61523e-07
          3.42813e-09 2.61523e-07 2.40818e-09 2.06646e-11 2.40818e-09 5.19246e-11 7.44788e-09 5.19246e-11 2.40818e-09 7.44788e-09 2.40818e-09 2.61523e-07
          7.44788e-09 2.61523e-07 6.75789e-07 1.59106e-14 3.48692e-13 1.07226e-12 2.16107e-05 5.0489e-05 6.75789e-07 5.0489e-05 1.97592e-06 6.75789e-07
          1.07226e-12 3.48692e-13 4.83451e-11 1.07226e-12 4.83451e-11 5.29888e-11 5.0489e-05 8.51831e-05 1.97592e-06 7.44788e-09 6.75789e-07 3.5167e-08
          3.5167e-08 6.75789e-07 1.97592e-06 7.44788e-09 3.5167e-08 5.1749e-10 8.51831e-05 1.72637e-06 1.97592e-06 3.5167e-08 1.97592e-06 1.72637e-06
          2.56808e-08 3.5167e-08 1.72637e-06 3.0832e-13 5.19246e-11 4.35915e-13 7.44788e-09 5.1749e-10 5.19246e-11 1.14029e-11 4.35915e-13 5.19246e-11