<?xml version="1.0"?>
<VTKFile type="UnstructuredGrid" version="0.1" byte_order="LittleEndian">
  <UnstructuredGrid>
    <Piece NumberOfCells="5448" NumberOfPoints="5705">
      <CellData Scalars="S_aq">
        <DataArray type="Float32" Name="S_aq" NumberOfComponents="1" format="ascii">
          1 1 1 1 1 1 1 1 1 1 1 1
          1 1 1 1 1 1 1 1 1 1 1 1
          1 1 1 1 1 1 1 1 1 1 1 1
          1 1 1 1 1 1 1 1 1 1 1 1
          1 1 1 1 1 1 1 1 1 1 1 1
          1 1 1 1 1 1 1 1 1 1 1 1
          1 1 1 1 1 1 1 1 1 1 1 1
          1 1 1 1 1 1 1 1 1 1 1 1
          1 1 1 1 1 1 1 1 1 1 1 1
          1 1 1 1 1 1 1 1 1 1 1 1
          1 1 1 1 1 1 1 1 1 1 1 1
          1 1 1 1 1 1 1 1 1 1 1 1
          1 1 1 1 1 1 1 1 1 1 1 1
          1 1 1 1 1 1 1 1 1 1 1 1
          1 1 1 1 1 1 1 1 1 1 1 1
          1 1 1 1 1 1 1 1 1 1 1 1
          1 1 1 1 1 1 1 1 1 1 1 1
          1 1 1 1 1 1 1 1 1 1 1 1
          1 1 1 1 1 1 1 1 1 1 1 1
          1 1 1 1 1 1 1 1 1 1 1 1
          1 1 1 1 1 1 1 1 1 1 1 1
          1 1 1 1 1 1 1 1 1 1 1 1
          1 1 1 1 1 1 1 1 1 1 1 1
          1 1 1 1 1 1 1 1 1 1 1 1
          1 1 1 1 1 1 1 1 1 1 1 1
          1 1 1 1 1 1 1 1 1 1 1 1
          1 1 1 1 1 1 1 1 1 1 1 1
          1 1 1 1 1 1 1 1 1 1 1 1
          1 1 1 1 1 1 1 1 1 1 1 1
          1 1 1 1 1 1 1 1 1 1 1 1
          1 1 1 1 1 1 1 1 1 1 1 1
          1 1 1 1 1 1 1 1 1 1 1 1
          1 1 1 1 1 1 1 1 1 1 1 1
          1 1 1 1 1 1 1 1 1 1 1 1
          1 1 1 1 1 1 1 1 1 1 1 1
          1 1 1 1 1 1 1 1 1 1 1 1
          1 1 1 1 1 1 1 1 1 1 1 1
          1 1 1 1 1 1 1 1 1 1 1 1
          1 1 1 1 1 1 1 1 1 1 1 1
          1 1 1 1 1 1 1 1 1 1 1 1
          1 1 1 0.999995 0.999995 1 1 0.999999 0.999999 1 1 1
          1 1 1 1 1 1 1 1 1 1 0.999989 0.999989
          0.999395 0.999389 0.999143 0.999183 0.9999 0.9999 0.99988 0.999881 0.999799 0.999799 0.999718 0.999724
          0.999598 0.999596 0.999447 0.999455 0.997912 0.99788 0.997053 0.997137 0.99847 0.998431 0.997822 0.997948
          1 1 1 1 1 1 1 1 1 1 1 1
          1 1 1 1 1 1 1 1 1 1 1 1
          1 1 1 1 1 1 1 1 1 1 1 1
          1 1 1 1 1 1 1 1 1 1 1 1
          1 1 1 1 1 1 1 1 1 1 1 1
          1 1 1 1 1 1 1 1 0.999997 0.999997 1 1
          1 1 1 0.999697 0.999698 0.999581 0.999574 0.999899 0.9999 0.999868 0.999863 0.998932
          0.998982 0.998659 0.998492 0.998083 0.998119 0.997424 0.997318 1 1 0.999999 0.999999 1
          0.999999 1 1 0.999999 0.999786 0.999799 0.999754 0.999712 1 1 1 1
          1 1 1 1 1 1 1 1 1 1 1 1
          1 1 1 1 1 1 1 1 1 1 1 1
          1 1 1 1 1 1 1 1 1 1 1 1
          1 1 1 1 1 1 1 1 1 1 1 1
          1 1 1 1 1 1 1 1 1 1 1 1
          1 1 1 1 1 1 1 1 1 0.999992 0.999994 1
          1 1 1 1 0.9999 0.9999 0.999885 0.999886 0.999294 0.999282 0.99899 0.999056
          1 1 0.999998 0.999998 0.999191 0.999175 0.998816 0.998894 0.997424 0.997272 0.996226 0.996577
          0.993883 0.993279 0.991239 0.992209 0.996917 0.996678 0.995497 0.99599 0.995645 0.995371 0.993782 0.994271
          0.994474 0.994322 0.992483 0.992731 0.988997 0.988657 0.985888 0.986288 0.990947 0.990207 0.987538 0.988521
          0.999698 0.999697 0.999567 0.999589 0.997236 0.997018 0.99594 0.996403 0.993779 0.993013 0.991092 0.992338
          0.998176 0.998071 0.997362 0.997648 0.993259 0.992454 0.990306 0.99159 0.988548 0.987227 0.984498 0.986127
          0.982101 0.980276 0.977347 0.979393 0.987986 0.98632 0.983681 0.985726 0.984372 0.983232 0.98028 0.981583
          0.982014 0.98159 0.978586 0.979037 0.974892 0.974452 0.971426 0.971852 0.977452 0.976077 0.97302 0.974492
          1 1 1 1 1 1 1 1 1 0.999497 0.999449 0.999172
          0.999327 0.997669 0.997454 0.996647 0.997052 1 1 0.999997 0.999999 1 1 1
          1 1 1 1 1 1 1 1 0.999799 0.999649 0.999435 0.999725
          0.994749 0.994012 0.992567 0.993729 0.991052 0.989384 0.987474 0.9896 0.998482 0.998116 0.997627 0.998061
          0.995397 0.994847 0.993403 0.994323 0.989034 0.987295 0.984876 0.987054 0.983488 0.981 0.978385 0.981232
          0.991471 0.990112 0.987977 0.98984 0.981898 0.979606 0.976798 0.979372 0.97543 0.973279 0.970302 0.972596
          0.968762 0.966412 0.963468 0.965906 0.975594 0.972869 0.970015 0.972935 0.970492 0.968991 0.965975 0.96752
          0.967919 0.96754 0.964615 0.964945 0.961268 0.961015 0.958273 0.958442 0.963717 0.962183 0.959286 0.960819
          0.986591 0.984316 0.981981 0.984716 0.977672 0.974607 0.971923 0.975262 0.971772 0.968274 0.965552 0.969271
          0.981439 0.978378 0.975932 0.979386 0.96926 0.966245 0.963405 0.966561 0.962225 0.959765 0.956891 0.959403
          0.95588 0.953367 0.950523 0.953059 0.963008 0.959786 0.956942 0.960275 0.957248 0.955758 0.95296 0.95442
          0.955054 0.955001 0.952441 0.952362 0.949209 0.949458 0.947117 0.946671 0.951009 0.949619 0.946923 0.948241
          1 1 1 1 1 1 1 1 1 1 1 1
          1 1 1 1 1 1 1 1 1 1 1 1
          1 1 1 0.999943 0.999913 1 1 0.99967 0.999607 1 1 0.995997
          0.995528 0.994523 0.995304 0.986641 0.984151 0.982086 0.9851 0.982218 0.97879 0.976582 0.98051 0.993202
          0.991982 0.990592 0.992368 1 1 1 1 1 1 0.999224 0.999161 1
          0.9999 0.998692 0.998497 0.999899 1 1 1 1 0.990104 0.987704 0.986147 0.989153
          0.97758 0.973266 0.970873 0.97569 0.972643 0.967423 0.964685 0.97045 0.986832 0.983252 0.98147 0.985749
          0.976142 0.972421 0.96989 0.973951 0.965836 0.961985 0.959213 0.963255 0.959827 0.955666 0.952771 0.957109
          0.970703 0.966409 0.963763 0.968369 0.956781 0.953397 0.950521 0.953994 0.949608 0.947094 0.94426 0.946767
          0.943345 0.940894 0.938021 0.940418 0.950503 0.946991 0.94401 0.94759 0.944969 0.943767 0.94117 0.942243
          0.943769 0.944459 0.94238 0.941405 0.938774 0.9401 0.938371 0.93664 0.939074 0.938184 0.935705 0.936378
          0.965053 0.960222 0.957344 0.962487 0.953573 0.949118 0.945991 0.95061 0.946813 0.942087 0.938584 0.94345
          0.958944 0.953561 0.950289 0.955993 0.943989 0.940393 0.937231 0.940856 0.936937 0.934654 0.93174 0.933884
          0.930312 0.928392 0.925477 0.927114 0.937027 0.933437 0.930016 0.933558 0.933308 0.932928 0.930645 0.930678
          0.934365 0.936587 0.935356 0.932578 0.930819 0.934256 0.93375 0.929585 0.927776 0.928192 0.926263 0.925317
          1 1 1 1 1 1 1 1 0.9998 0.99814 0.998008 0.9998
          0.9998 0.997704 0.997462 0.999801 1 1 1 1 0.983418 0.978452 0.976289 0.982147
          0.967085 0.96084 0.957553 0.964431 0.960442 0.952992 0.948726 0.956914 0.979521 0.972756 0.969857 0.977834
          1 1 0.999976 0.99702 0.997393 1 1 0.997662 0.999277 1 1 0.97462
          0.965282 0.960965 0.97253 0.951678 0.942817 0.936785 0.946449 0.938342 0.928281 0.918991 0.928689 0.967811
          0.95355 0.943782 0.961868 0.951998 0.946038 0.942168 0.948456 0.939189 0.93425 0.930222 0.935242 0.930288
          0.925299 0.920626 0.925515 0.943714 0.937177 0.93237 0.939187 0.929371 0.925972 0.922291 0.925484 0.923465
          0.922238 0.919492 0.920205 0.916657 0.916632 0.914424 0.913625 0.920894 0.918064 0.91428 0.916605 0.922748
          0.924357 0.923071 0.920704 0.928616 0.933617 0.934111 0.92824 0.928424 0.935248 0.936979 0.929255 0.918816
          0.922084 0.921838 0.917598 0.933154 0.926209 0.92006 0.927017 0.919631 0.915065 0.909871 0.913885 0.907171
          0.904133 0.899429 0.901153 0.918914 0.912392 0.905042 0.910579 0.91176 0.910191 0.906844 0.907446 0.910629
          0.912443 0.911365 0.908439 0.906774 0.910934 0.911523 0.906161 0.903068 0.90369 0.901706 0.899776 0.916897
          0.922224 0.923418 0.917015 0.930954 0.939597 0.942632 0.933265 0.936696 0.946714 0.950706 0.940437 0.91802
          0.925546 0.928366 0.919849 0.994678 0.994877 0.993231 0.992912 0.996333 0.99672 0.995741 0.995028 0.99201
          0.993065 0.991196 0.98968 0.989216 0.989645 0.987041 0.986494 0.998584 0.99878 0.998482 0.998034 0.999878
          0.9999 0.999885 0.99984 0.999094 0.999294 0.999175 0.998795 0.995958 0.99676 0.996039 0.994748 1
          1 1 1 1 1 0.999994 1 0.999999 0.999991 0.982306 0.982967 0.980141
          0.979347 0.985855 0.987608 0.985301 0.983214 0.979501 0.981849 0.979514 0.976851 0.975309 0.976215 0.973397
          0.97235 0.992181 0.993963 0.992792 0.990346 0.99729 0.997961 0.997683 0.996653 0.995048 0.996437 0.99601
          0.9942 0.987315 0.990318 0.988755 0.985301 0.999732 0.9998 0.999787 0.999682 0.999999 1 1
          1 0.999994 1 1 0.999993 0.999052 0.999296 0.999266 0.998923 1 1 1
          1 1 1 1 1 1 0.968594 0.969775 0.967121 0.965774 0.973444 0.976355
          0.974206 0.970985 0.968004 0.971496 0.969671 0.965851 0.962355 0.963874 0.961481 0.959758 0.982458 0.986205
          0.984795 0.980627 0.992574 0.99477 0.994321 0.991702 0.990244 0.993293 0.992927 0.989506 0.978288 0.982777
          0.98168 0.976798 0.998242 0.998782 0.99872 0.998046 0.999879 0.9999 0.9999 0.999876 0.999844 0.9999
          0.999899 0.999839 0.997342 0.998165 0.998107 0.997175 0.956715 0.958661 0.95657 0.954359 0.963358 0.967492
          0.966092 0.961587 0.959643 0.964524 0.963647 0.958345 0.951683 0.954191 0.952475 0.949624 0.975026 0.980217
          0.97951 0.973984 0.988453 0.992184 0.991972 0.988026 0.987489 0.99158 0.991566 0.987428 0.972852 0.978646
          0.978415 0.972355 0.996713 0.997748 0.997714 0.996622 0.999713 0.9998 0.999798 0.999709 0.999598 0.9997
          0.999701 0.9996 0.996402 0.99754 0.99754 0.996404 1 1 1 1 1 1
          1 1 1 1 1 1 1 1 1 1 1 1
          0.999999 1 1 0.999999 1 1 1 1 1 1 1 1
          1 1 1 1 1 1 1 1 1 1 1 1
          1 1 1 1 1 1 0.947374 0.950615 0.949367 0.945686 0.957047 0.962782
          0.96248 0.956302 0.955721 0.962354 0.962713 0.955652 0.943951 0.948133 0.947477 0.942748 0.971959 0.978235
          0.978474 0.972036 0.987447 0.991573 0.991723 0.987718 0.988215 0.992052 0.992334 0.988773 0.972386 0.978947
          0.979621 0.973056 0.996424 0.997548 0.997578 0.996503 0.999697 0.9998 0.9998 0.999701 0.99972 0.9998
          0.999801 0.999726 0.99674 0.997759 0.99781 0.996878 0.941673 0.947015 0.947103 0.941122 0.955938 0.963427
          0.964467 0.956649 0.957903 0.966029 0.967696 0.959457 0.940911 0.947589 0.948579 0.94123 0.974165 0.980714
          0.981734 0.975379 0.989741 0.993 0.99334 0.990464 0.991745 0.994267 0.994587 0.992413 0.977198 0.9834
          0.984608 0.978806 0.997341 0.998173 0.998222 0.997493 0.999851 0.9999 0.9999 0.999855 0.999879 0.9999
          0.9999 0.99988 0.9981 0.998685 0.998718 0.99822 1 1 1 1 1 1
          1 1 1 1 1 1 1 1 1 1 1 1
          1 1 1 1 1 1 0.942138 0.950183 0.952146 0.943537 0.961734 0.970053
          0.972155 0.964052 0.967233 0.975114 0.977353 0.970048 0.945768 0.954914 0.957723 0.948322 0.981164 0.986667
          0.987825 0.982923 0.993735 0.995613 0.995873 0.994294 0.995637 0.996946 0.997115 0.996043 0.985587 0.990044
          0.990941 0.987221 0.998848 0.999195 0.999209 0.998921 0.999993 1 1 0.999994 0.999999 1
          1 0.999999 0.999445 0.999599 0.999603 0.999475 0.951883 0.961466 0.964759 0.955419 0.973855 0.98068
          0.982748 0.976753 0.980804 0.986256 0.987838 0.983305 0.960037 0.9691 0.972325 0.964014 0.98995 0.992977
          0.993552 0.991197 0.997368 0.998174 0.998252 0.99761 0.998806 0.999193 0.99921 0.998904 0.993499 0.995356
          0.995714 0.994245 0.999855 0.9999 0.9999 0.99986 1 1 1 1 1 0.999993
          1 1 0.999994 1 1 1 1 1 1 1 1 1
          1 1 1 1 1 1 1 1 1 1 1 1
          1 1 1 1 1 1 1 1 1 1 1 1
          1 1 1 1 1 1 1 1 1 1 1 1
          1 1 1 1 1 1 1 1 1 1 1 1
          1 1 1 1 1 1 1 1 1 1 1 1
          1 1 1 1 1 1 1 1 1 1 1 1
          1 1 1 1 1 1 1 1 1 1 1 1
          1 1 1 1 1 1 1 1 1 1 1 1
          1 1 1 1 1 1 1 1 1 1 1 1
          1 1 1 1 1 1 1 1 1 1 1 1
          1 1 1 1 1 1 1 1 1 1 1 1
          1 1 1 1 1 1 1 1 1 1 1 1
          1 1 1 1 1 1 1 1 1 1 1 1
          1 1 1 1 1 1 1 1 1 1 1 1
          1 1 1 1 1 1 1 1 1 1 1 1
          1 1 1 1 1 1 1 1 1 1 1 1
          1 1 1 1 1 1 1 1 1 1 0.9995 0.9995
          0.999358 0.99945 1 1 0.999979 0.99999 1 1 1 1 1 1
          1 1 1 1 1 1 1 1 0.999999 0.999999 1 1
          0.999999 0.999999 0.998701 0.998701 0.9987 0.998701 0.998901 0.9989 0.9989 0.998901 1 1
          0.999999 0.999999 1 1 0.999998 0.999998 0.998502 0.998502 0.9985 0.998501 0.998601 0.998601
          0.9986 0.998601 1 1 0.999998 0.999998 1 1 0.999997 0.999997 0.998303 0.998302
          0.998301 0.998301 0.998402 0.998402 0.998401 0.998401 1 1 1 1 1 1
          1 1 1 1 1 1 1 1 1 1 1 1
          1 1 1 1 1 1 1 1 1 1 1 1
          1 1 1 1 1 0.999997 0.999997 1 1 0.999997 0.999997 0.998203
          0.998203 0.998201 0.998201 0.998302 0.998302 0.998301 0.998301 1 1 0.999996 0.999996 0.9999
          0.9999 0.999896 0.999896 0.998103 0.998103 0.998101 0.998101 0.998104 0.998103 0.998101 0.998102 0.9999
          0.9999 0.999896 0.999896 0.9999 0.9999 0.999896 0.999896 0.998004 0.998004 0.998002 0.998002 0.998004
          0.998004 0.998002 0.998002 1 1 1 1 1 1 1 1 1
          1 1 1 1 1 1 1 1 1 1 1 1
          1 1 1 1 1 1 1 1 1 0.9999 0.9999 0.999896
          0.999896 0.9999 0.9999 0.999895 0.999895 0.997905 0.997904 0.997902 0.997902 0.998004 0.998004 0.998001
          0.998002 0.9999 0.9999 0.999895 0.999895 0.9999 0.9999 0.999895 0.999895 0.997904 0.997904 0.997902
          0.997902 0.997904 0.997904 0.997902 0.997902 0.9999 0.9999 0.999894 0.999894 0.9999 0.9999 0.999894
          0.999894 0.997805 0.997805 0.997802 0.997802 0.997805 0.997805 0.997802 0.997803 1 1 1
          1 1 1 1 1 1 1 1 1 1 1 1
          1 1 1 1 1 1 1 1 1 1 1 1
          1 1 1 1 1 1 1 1 1 1 1 1
          1 1 1 1 1 1 1 1 1 1 1 1
          1 1 1 1 1 1 1 1 1 1 1 1
          1 1 1 1 1 1 1 1 1 1 1 1
          1 1 1 1 1 1 1 1 1 1 1 1
          1 1 1 1 1 1 1 1 1 1 1 1
          1 1 1 1 1 0.9999 0.99984 0.999862 0.9999 1 1 1
          1 1 0.997085 0.995945 0.996935 0.997437 0.987829 0.977543 0.990336 0.991757 0.998886 0.998633
          0.998684 0.998904 1 0.999998 0.999997 1 1 1 1 1 1 1
          0.999996 0.999997 1 0.998904 0.998696 0.998679 0.998891 0.998707 0.998493 0.998464 0.998683 1
          0.999994 0.999996 1 0.948733 0.920714 0.974094 0.977177 0.87595 0.831984 0.951057 0.957129 0.985682
          0.983172 0.984477 0.986605 0.99486 0.993885 0.994199 0.995074 0.77828 0.73008 0.918672 0.928979 0.679594
          0.637567 0.884172 0.898142 0.954684 0.950449 0.955769 0.958994 0.968444 0.964272 0.96733 0.970829 0.596517
          0.563834 0.844528 0.862563 0.532227 0.508078 0.797701 0.8202 0.933019 0.928989 0.941463 0.94344 0.943177
          0.939108 0.947483 0.950079 0.995202 0.994347 0.994304 0.99517 0.987036 0.984916 0.984729 0.986903 0.986583
          0.984358 0.984114 0.986409 0.99502 0.994153 0.994098 0.994975 0.971623 0.968128 0.967737 0.971311 0.960321
          0.957207 0.956866 0.959981 0.959366 0.956237 0.955642 0.958799 0.970742 0.967076 0.966508 0.970289 0.952198
          0.949834 0.949675 0.95198 0.946594 0.94496 0.945054 0.946593 0.946263 0.944789 0.944426 0.945849 0.951469
          0.949203 0.948699 0.950936 1 1 1 1 1 1 0.999989 0.999991 1
          0.998415 0.998199 0.998175 0.998395 0.99822 0.997997 0.997971 0.9982 1 0.999985 0.999987 1
          1 1 1 1 1 1 1 1 1 0.999979 0.999982 1
          0.998028 0.997796 0.997769 0.998005 0.997835 0.9976 0.99757 0.997811 0.9999 0.999875 0.999872 0.9999
          0.994822 0.99395 0.993901 0.994777 0.986066 0.983715 0.983504 0.985931 0.98568 0.98318 0.982964 0.985553
          0.99463 0.993763 0.993715 0.994586 0.969629 0.965739 0.96513 0.969154 0.958061 0.954887 0.95425 0.957451
          0.956669 0.953455 0.952786 0.956023 0.968468 0.964318 0.963673 0.96797 0.950275 0.948075 0.947544 0.94971
          0.945347 0.94398 0.943583 0.944897 0.944369 0.943115 0.942731 0.943926 0.949028 0.946907 0.94636 0.948439
          0.994445 0.993581 0.993547 0.994416 0.985318 0.982639 0.98243 0.98522 0.985046 0.982135 0.981927 0.984972
          0.994337 0.993468 0.993437 0.994312 0.967257 0.962819 0.962137 0.966742 0.955204 0.951958 0.951267 0.95453
          0.953683 0.950417 0.949669 0.952947 0.966012 0.961241 0.96049 0.965454 0.947732 0.945706 0.945157 0.947133
          0.943417 0.942287 0.941896 0.942963 0.942438 0.941439 0.94103 0.941961 0.946421 0.944506 0.94392 0.945775
          0.484069 0.466437 0.744258 0.770259 0.448112 0.435216 0.687947 0.715057 0.913236 0.90847 0.933288 0.934514
          0.923304 0.919034 0.936921 0.938439 0.421236 0.411892 0.634077 0.659461 0.401207 0.393939 0.586735 0.608655
          0.890009 0.883973 0.927153 0.928183 0.902219 0.896831 0.930136 0.931212 0.385056 0.379015 0.546928 0.565167
          0.371661 0.366735 0.513872 0.528979 0.861843 0.854396 0.921057 0.922158 0.876555 0.869884 0.924161 0.925202
          0.942885 0.941821 0.942209 0.943162 0.940526 0.939855 0.940533 0.94109 0.941176 0.940678 0.940556 0.941011
          0.943055 0.942169 0.941934 0.942769 0.939026 0.938601 0.939578 0.939886 0.938056 0.937768 0.939042 0.939215
          0.939642 0.939509 0.939508 0.939625 0.940155 0.939898 0.939854 0.940083 0.937346 0.937122 0.938685 0.938797
          0.936769 0.936583 0.938441 0.93851 0.939187 0.939148 0.939193 0.939224 0.939354 0.939275 0.939309 0.939378
          0.360669 0.3566 0.485952 0.498757 0.35151 0.348069 0.461951 0.472945 0.826443 0.816242 0.913788 0.915308
          0.845436 0.836773 0.917664 0.918931 0.343732 0.34079 0.441548 0.450795 0.337077 0.334552 0.424728 0.432245
          0.7809 0.769386 0.905053 0.906808 0.804553 0.793195 0.909481 0.911207 0.331354 0.329178 0.411202 0.41717
          0.32644 0.324559 0.400541 0.405187 0.736712 0.72785 0.89849 0.899335 0.757611 0.746994 0.901107 0.90261
          0.936271 0.936089 0.938271 0.938317 0.935769 0.935564 0.938127 0.938169 0.939092 0.939091 0.939182 0.939175
          0.939108 0.939095 0.939165 0.93917 0.935235 0.935025 0.938002 0.938031 0.934731 0.934593 0.938001 0.937956
          0.939153 0.93924 0.939389 0.939294 0.939081 0.939098 0.939226 0.939196 0.934543 0.934666 0.938484 0.938187
          0.935273 0.936028 0.940265 0.939335 0.940854 0.941871 0.942154 0.941082 0.939522 0.939868 0.940053 0.93969
          0.942418 0.941635 0.941374 0.942106 0.940798 0.940383 0.940215 0.940595 0.940365 0.940021 0.93985 0.94016
          0.941751 0.941072 0.940813 0.941443 0.939967 0.939764 0.939655 0.939835 0.939557 0.939452 0.939379 0.939475
          0.939382 0.939292 0.939192 0.939279 0.939685 0.939526 0.939412 0.939551 0.939348 0.939287 0.939215 0.939271
          0.939196 0.939172 0.939106 0.939119 0.939029 0.93917 0.93911 0.939023 0.939067 0.941093 0.940514 0.940257
          0.940785 0.939931 0.939654 0.939479 0.939727 0.939499 0.939279 0.93908 0.939276 0.940438 0.939963 0.939693
          0.940119 0.939402 0.939282 0.939149 0.939254 0.93916 0.939075 0.938956 0.93904 0.938901 0.938818 0.938656
          0.938737 0.939084 0.938994 0.938827 0.938905 0.938942 0.938889 0.938773 0.9388 0.938814 0.938513 0.938621
          0.938576 0.938426 0.938423 0.939166 0.939163 0.9391 0.939103 0.939181 0.93919 0.939132 0.939128 0.93906
          0.939018 0.939229 0.939268 0.939231 0.93919 0.939339 0.939438 0.939405 0.939303 0.93925 0.939354 0.939292
          0.939183 0.939138 0.939176 0.939107 0.939077 0.939757 0.940134 0.940119 0.939729 0.941212 0.942342 0.942431
          0.941241 0.941268 0.942526 0.942595 0.941269 0.939684 0.940086 0.94004 0.939626 0.938826 0.938877 0.938611
          0.938559 0.938982 0.939023 0.938926 0.938895 0.939105 0.939218 0.939129 0.939011 0.9389 0.939025 0.938901
          0.938768 0.938756 0.938806 0.938667 0.938631 0.939555 0.939982 0.939909 0.93947 0.941272 0.942676 0.94273
          0.941246 0.941217 0.942793 0.942824 0.941153 0.939369 0.939818 0.939706 0.939247 1 1 1
          1 1 1 1 1 1 1 1 0.9999 0.999864 0.999864 0.9999
          0.997648 0.997407 0.997404 0.997646 0.997646 0.997404 0.997405 0.997646 0.9999 0.999865 0.999865 0.9999
          1 1 1 1 1 1 1 1 1 1 1 0.9999
          0.999865 0.999866 0.9999 0.997647 0.997408 0.997423 0.997658 0.997742 0.997513 0.997543 0.997764 0.9999
          0.99987 0.999872 0.9999 0.994239 0.993367 0.993355 0.994236 0.984846 0.981652 0.981432 0.984785 0.984679
          0.981147 0.980917 0.984643 0.994236 0.993345 0.993343 0.994237 0.964665 0.959508 0.958687 0.96407 0.952027
          0.948752 0.947939 0.951217 0.950212 0.946948 0.946039 0.949291 0.963238 0.957623 0.956677 0.962568 0.945007
          0.943226 0.942607 0.944313 0.941412 0.940555 0.940125 0.94091 0.940336 0.939628 0.939154 0.939789 0.943497
          0.941879 0.941203 0.942728 0.994243 0.993345 0.993363 0.994265 0.984589 0.980628 0.980352 0.984575 0.984562
          0.980008 0.979676 0.984616 0.994344 0.993429 0.993476 0.994389 0.961633 0.955454 0.954309 0.960827 0.948154
          0.94494 0.943897 0.947065 0.945734 0.942646 0.941423 0.94441 0.959711 0.952836 0.951398 0.958688 0.941829
          0.940411 0.939661 0.940966 0.939165 0.938609 0.938062 0.938545 0.937837 0.93743 0.936762 0.9371 0.939968
          0.938792 0.937918 0.938962 1 1 1 1 1 1 1 1 1
          1 1 0.9999 0.999879 0.99988 0.9999 0.997933 0.99772 0.997763 0.997963 0.998221 0.998037
          0.998087 0.998255 0.9999 0.999888 0.999889 0.9999 1 1 1 1 1 1
          0.999993 0.999996 1 0.998611 0.998468 0.998528 0.998647 0.999202 0.999133 0.99917 0.99922 1
          1 1 1 0.994545 0.993619 0.993711 0.994627 0.984743 0.979287 0.978843 0.98491 0.985271
          0.978365 0.977779 0.985649 0.994924 0.993995 0.994149 0.995043 0.957281 0.949565 0.947697 0.955876 0.942811
          0.939976 0.938532 0.941175 0.939237 0.936855 0.935169 0.937232 0.953954 0.945348 0.94287 0.951846 0.937807
          0.93691 0.935879 0.936629 0.936257 0.935988 0.935137 0.935348 0.934309 0.934155 0.93308 0.933163 0.935297
          0.934701 0.933451 0.933904 0.995499 0.994619 0.994895 0.995692 0.986481 0.977305 0.976812 0.987213 0.989022
          0.97721 0.979046 0.990593 0.996613 0.995873 0.996331 0.996864 0.948966 0.939818 0.936603 0.945564 0.934929
          0.93326 0.931334 0.932565 0.929971 0.929211 0.927043 0.927385 0.94086 0.932792 0.928957 0.934747 0.932344
          0.932027 0.930477 0.930688 0.931845 0.931838 0.93044 0.930354 0.928619 0.928626 0.92718 0.926833 0.928846
          0.928721 0.926831 0.926871 0.939759 0.939383 0.939073 0.939407 0.939022 0.938849 0.938593 0.938747 0.938426
          0.938288 0.937958 0.938085 0.939005 0.938713 0.938344 0.9386 0.938694 0.938631 0.938421 0.938463 0.938536
          0.938444 0.938253 0.938326 0.938066 0.937977 0.937729 0.937769 0.938188 0.938171 0.937869 0.937858 0.938195
          0.938083 0.937528 0.937633 0.938136 0.937916 0.937468 0.937654 0.937689 0.93757 0.937145 0.937247 0.936726
          0.936648 0.936062 0.936102 0.937099 0.936949 0.936359 0.936474 0.937451 0.937446 0.937114 0.937025 0.937382
          0.936751 0.936513 0.936563 0.936148 0.935962 0.936852 0.938187 0.938227 0.937673 0.937675 0.938429 0.938494
          0.938295 0.938251 0.938613 0.938756 0.938584 0.938431 0.938218 0.938382 0.938145 0.937972 0.93796 0.938045
          0.937762 0.93771 0.939101 0.939567 0.939396 0.938926 0.941078 0.942859 0.942855 0.940957 0.940813 0.942846
          0.942783 0.940606 0.938714 0.939184 0.938922 0.938456 0.936903 0.936874 0.935841 0.936163 0.937316 0.937408
          0.937024 0.936994 0.937694 0.937864 0.937525 0.937383 0.937048 0.937099 0.936606 0.936665 0.936574 0.938141
          0.938596 0.938208 0.937768 0.940353 0.942696 0.942529 0.940007 0.939573 0.942306 0.941977 0.939012 0.937306
          0.937729 0.937141 0.936743 0.935737 0.935671 0.934906 0.934898 0.935344 0.935279 0.934658 0.934553 0.933624
          0.933889 0.933898 0.933061 0.932806 0.935265 0.935463 0.93425 0.933724 0.934701 0.931472 0.931452 0.930325
          0.930081 0.931427 0.928445 0.928424 0.93146 0.931574 0.928461 0.928448 0.931324 0.931254 0.928425 0.928434
          0.934576 0.935557 0.936046 0.935965 0.935277 0.935514 0.934663 0.934382 0.933403 0.933957 0.934284 0.936062
          0.936431 0.935599 0.935276 0.938321 0.941554 0.940993 0.937473 0.936441 0.940283 0.939362 0.935201 0.934333
          0.934613 0.933467 0.933243 0.931201 0.931257 0.928427 0.928422 0.931655 0.932288 0.931988 0.930589 0.931151
          0.928924 0.92876 0.926975 0.927441 0.928511 0.931914 0.932118 0.930595 0.930451 0.933691 0.938157 0.936568
          0.931933 0.929815 0.934311 0.93093 0.92744 0.928739 0.928845 0.926885 0.926861 1 1 1
          1 1 1 1 1 1 1 1 1 1 1 1
          1 1 1 1 1 1 1 1 1 1 1 1
          1 1 1 0.999855 0.999724 1 0.9999 0.999631 0.999587 0.9999 1 1
          1 1 0.932384 0.923568 0.90862 0.914888 0.913955 0.906793 0.896842 0.901707 0.890839 0.887931
          0.881923 0.883564 0.900194 0.895309 0.886779 0.890962 1 1 1 1 1 1
          1 1 0.9998 0.999559 0.999544 0.9998 0.9997 0.99953 0.999522 0.9997 1 1
          1 1 0.883721 0.879843 0.875092 0.878834 0.877604 0.876946 0.873618 0.87348 0.86991 0.870809
          0.868819 0.867182 0.874457 0.870856 0.867564 0.871024 0.900794 0.897085 0.891118 0.893068 0.895195 0.895016
          0.892202 0.890908 0.887507 0.890265 0.889755 0.885685 0.886248 0.885913 0.882655 0.881665 0.897099 0.900445
          0.900478 0.895795 0.906493 0.913072 0.915495 0.907855 0.910339 0.918989 0.92287 0.913427 0.895531 0.901526
          0.903527 0.896397 0.922828 0.932299 0.936473 0.926349 0.94536 0.955756 0.96001 0.949997 0.955723 0.965331
          0.969097 0.960374 0.93106 0.941723 0.946484 0.93573 0.878072 0.88028 0.879135 0.875832 0.884834 0.890166
          0.891431 0.884963 0.885822 0.893398 0.895706 0.887134 0.874209 0.878597 0.878698 0.873266 0.898286 0.906465
          0.90974 0.900734 0.91754 0.92772 0.932317 0.921684 0.926672 0.937689 0.942267 0.931216 0.903968 0.913733
          0.917611 0.90726 0.941425 0.95217 0.956642 0.946372 0.96601 0.974033 0.976934 0.969968 0.974955 0.981207
          0.983241 0.977942 0.952139 0.961976 0.965651 0.956629 1 1 1 1 1 1
          1 1 0.9997 0.999512 0.999505 0.9997 0.9997 0.999496 0.999489 0.9997 1 1
          1 1 0.867608 0.864337 0.861569 0.864625 0.864631 0.867044 0.865716 0.862502 0.860417 0.86449
          0.863533 0.858563 0.861496 0.858705 0.856108 0.858603 1 1 1 1 1 1
          1 1 0.9996 0.999479 0.999471 0.9996 0.9996 0.999463 0.999456 0.9996 1 1
          1 1 0.855499 0.853354 0.850784 0.85255 0.856704 0.862642 0.861955 0.855 0.853284 0.861343
          0.860914 0.851684 0.849354 0.848027 0.845393 0.846231 0.87269 0.879193 0.880001 0.872451 0.888977 0.898527
          0.901362 0.890953 0.893362 0.904613 0.907679 0.895731 0.872474 0.881106 0.882374 0.872681 0.911143 0.922083
          0.926116 0.91477 0.936446 0.947495 0.951558 0.940857 0.94585 0.956252 0.959635 0.949819 0.918916 0.930658
          0.934548 0.922636 0.961855 0.970257 0.973052 0.965546 0.982024 0.98677 0.988078 0.984112 0.98734 0.990817
          0.99152 0.988705 0.970004 0.976884 0.978957 0.972906 0.873131 0.883919 0.885549 0.873693 0.898497 0.91112
          0.914311 0.901151 0.904213 0.917906 0.921194 0.90711 0.874513 0.887473 0.889454 0.875429 0.92685 0.938919
          0.942532 0.930552 0.954351 0.96371 0.966475 0.957806 0.961877 0.970032 0.972252 0.964816 0.934752 0.946656
          0.94993 0.93835 0.97667 0.982181 0.983716 0.978897 0.991091 0.99331 0.993731 0.991901 0.993572 0.995099
          0.995368 0.99407 0.982037 0.986448 0.987519 0.983694 1 1 1 1 1 1
          1 1 1 1 1 1 1 1 1 1 1 1
          1 1 1 1 1 1 1 1 1 1 1 1
          1 1 1 1 1 1 1 1 1 1 1 1
          0.9999 0.9999 0.999894 0.999894 0.9999 0.9999 0.999894 0.999894 0.997805 0.997805 0.997802 0.997802
          0.997805 0.997805 0.997802 0.997802 0.9999 0.9999 0.999894 0.999894 0.9999 0.9999 0.999893 0.999893
          0.997706 0.997706 0.997703 0.997703 0.997805 0.997805 0.997802 0.997802 0.9999 0.9999 0.999893 0.999893
          0.9999 0.9999 0.999893 0.999893 0.997706 0.997706 0.997703 0.997703 0.997706 0.997706 0.997703 0.997703
          1 1 1 1 1 1 1 1 1 1 1 1
          1 1 1 1 1 1 1 1 1 1 1 1
          1 1 1 1 1 1 0.9999 0.9999 0.999893 0.999893 0.9999 0.9999
          0.999893 0.999893 0.997706 0.997706 0.997703 0.997703 0.997706 0.997706 0.997703 0.997703 0.9999 0.9999
          0.999893 0.999893 0.9999 0.9999 0.999893 0.999893 0.997706 0.997706 0.997703 0.997703 0.997706 0.997706
          0.997703 0.997703 0.9999 0.9999 0.999893 0.999893 0.9999 0.9999 0.999893 0.999893 0.997706 0.997706
          0.997703 0.997703 0.997706 0.997706 0.997703 0.997703 1 1 1 1 1 1
          1 1 0.9996 0.999447 0.999439 0.9996 0.9996 0.99943 0.999422 0.9996 1 1
          1 1 0.842815 0.842545 0.839788 0.839416 0.850084 0.860594 0.860464 0.848586 0.847121 0.860507
          0.860783 0.845773 0.835673 0.836799 0.833879 0.831882 1 1 1 1 1 1
          1 1 0.9995 0.999411 0.999403 0.9995 0.9995 0.999392 0.999382 0.9995 1 1
          1 1 0.827672 0.830713 0.827614 0.823335 0.844523 0.861336 0.862217 0.843449 0.842598 0.863544
          0.865354 0.842051 0.818476 0.82427 0.821016 0.813356 0.876653 0.891778 0.894146 0.877977 0.910446 0.924926
          0.928304 0.913601 0.917263 0.932181 0.935644 0.920731 0.879683 0.896927 0.899764 0.88153 0.942469 0.953772
          0.956722 0.945929 0.968422 0.975331 0.977136 0.970925 0.974181 0.979896 0.981382 0.976306 0.94996 0.96033
          0.962973 0.953257 0.986261 0.989713 0.990417 0.987476 0.995346 0.996443 0.99661 0.99567 0.996734 0.99751
          0.997609 0.996945 0.989588 0.992097 0.992542 0.990459 0.883877 0.903107 0.906514 0.886434 0.924789 0.93968
          0.943193 0.928601 0.933093 0.947363 0.950904 0.937277 0.889656 0.910544 0.914628 0.893172 0.957185 0.966367
          0.96873 0.960302 0.979276 0.983936 0.98515 0.981052 0.983741 0.987474 0.988418 0.985207 0.964135 0.971958
          0.974084 0.967074 0.992108 0.99384 0.994159 0.992672 0.997869 0.998398 0.998447 0.997994 0.998761 0.999097