<?xml version="1.0"?>
<VTKFile type="UnstructuredGrid" version="0.1" byte_order="LittleEndian">
  <UnstructuredGrid>
    <Piece NumberOfCells="1928" NumberOfPoints="5784">
      <PointData Scalars="S_aq">
        <DataArray type="Float32" Name="S_aq" NumberOfComponents="1" format="ascii">
          1 1 1 1 1 1 0.936959 0.999926 0.994235 1 1 1
          1 1 1 1 1 1 1 1 1 1 1 1
          1 1 1 1 1 1 1 1 1 1 1 1
          1 1 1 1 1 1 1 1 1 1 1 1
          1 1 1 1 1 1 1 1 1 1 1 1
          1 1 1 1 1 1 0.999979 1 1 1 1 1
          1 1 1 0.991375 0.971425 0.757124 1 1 1 1 1 1
          1 1 1 1 1 1 1 1 1 1 1 1
          1 1 1 0.999979 1 1 1 1 1 1 1 1
          1 1 1 1 1 1 1 1 1 1 1 1
          1 1 1 1 1 1 1 1 1 1 1 1
          1 1 1 1 1 1 1 1 1 1 1 1
          1 1 1 1 1 1 1 1 1 1 1 1
          1 1 1 1 1 1 0.994235 0.885064 0.78858 1 1 1
          1 1 1 1 1 1 1 1 1 0.999927 0.933896 0.999139
          1 1 1 1 1 1 1 1 1 1 1 1
          1 1 1 1 1 1 1 1 1 1 1 1
          0.78858 0.936959 0.994235 0.999998 0.971425 0.999997 1 1 1 1 1 1
          1 1 1 1 1 1 1 1 1 1 1 1
          1 1 1 1 1 1 1 1 1 1 1 1
          1 1 1 1 1 1 1 1 1 1 1 1
          1 1 1 1 1 1 1 1 1 1 1 1
          1 1 1 0.999994 0.961121 0.999038 1 1 1 1 1 1
          0.757124 0.938848 0.991375 1 1 1 1 1 1 1 1 1
          1 1 1 1 1 1 1 1 1 1 1 1
          1 1 1 1 1 1 1 1 1 1 1 1
          1 1 1 1 1 1 1 1 1 1 1 1
          1 1 1 1 1 1 1 1 1 0.975537 0.999997 0.996467
          1 1 1 1 1 1 1 1 1 1 1 1
          1 1 1 1 1 1 1 1 1 1 1 1
          1 1 1 1 1 1 1 1 1 1 1 1
          1 1 1 1 1 1 0.669025 0.5 0.778333 1 1 1
          1 1 1 1 1 1 1 1 1 1 1 1
          0.996467 0.807253 0.975537 1 1 1 1 1 1 1 1 1
          1 1 1 1 1 1 1 1 1 0.98623 0.999938 0.926068
          1 1 1 1 1 1 0.999511 0.885064 0.994235 1 1 1
          1 1 1 1 1 1 0.961302 0.961752 0.712678 1 1 1
          1 1 1 1 1 1 1 1 1 1 1 1
          1 1 1 1 1 1 0.974308 0.745602 0.978115 1 1 1
          1 1 1 1 1 1 1 1 1 1 1 1
          1 1 1 1 1 1 0.999139 0.933896 0.875239 1 1 1
          1 1 1 1 1 1 1 1 1 1 1 1
          1 1 1 1 0.999104 0.999979 1 1 1 1 1 1
          1 1 1 1 1 1 1 1 1 1 1 1
          1 1 1 1 1 1 1 1 1 1 1 1
          1 1 1 1 1 1 1 1 1 1 1 1
          1 1 1 1 1 1 0.5 0.5 0.664074 1 1 1
          1 1 1 1 1 1 0.705224 0.971425 0.778333 1 1 1
          1 1 1 1 1 1 1 1 1 1 1 1
          1 1 1 1 1 1 0.999978 1 1 1 1 0.5
          1 1 1 1 1 1 1 1 1 1 1 1
          1 1 1 0.778333 0.5 0.705224 1 1 1 1 1 0.999999
          1 1 1 1 1 1 1 1 1 1 1 1
          1 1 1 1 1 1 1 1 1 1 1 1
          1 1 1 1 1 1 1 1 1 1 1 1
          1 1 1 1 1 1 1 1 1 1 1 1
          1 1 1 1 1 1 1 1 1 1 1 1
          1 1 1 1 1 1 1 1 1 1 1 1
          0.662104 1 0.5 1 1 1 1 1 0.994582 1 1 1
          1 1 1 1 1 1 0.999996 1 0.998578 1 1 1
          1 1 1 1 1 1 1 1 1 1 1 1
          1 1 1 1 1 1 1 1 1 1 1 1
          1 1 1 1 1 1 1 1 1 1 1 1
          1 1 1 1 1 1 1 1 1 1 1 1
          1 1 1 1 1 1 1 1 1 1 1 1
          1 1 1 1 1 1 1 1 1 0.999979 0.961752 0.999978
          1 1 1 1 1 1 1 1 1 1 1 1
          1 1 1 1 1 1 0.978115 0.745602 0.768199 1 1 1
          1 1 1 1 1 1 1 1 1 1 1 1
          1 1 1 1 1 1 0.999978 1 0.999979 1 1 1
          1 1 1 1 1 1 1 1 1 1 1 1
          1 1 1 1 1 1 1 1 1 1 1 1
          1 1 1 1 1 1 1 1 1 1 1 1
          1 1 1 1 1 1 1 1 1 1 1 1
          1 1 1 1 1 1 1 1 1 1 1 1
          1 1 1 1 1 1 1 1 1 1 1 1
          1 1 1 0.994582 0.999998 1 1 1 1 0.999938 0.999895 0.926068
          1 1 1 1 1 1 1 1 1 1 1 1
          1 1 1 1 1 1 1 1 1 1 1 1
          1 1 1 1 1 1 1 1 1 1 1 1
          1 1 1 1 1 1 1 1 1 1 1 1
          1 1 1 0.619752 0.5 0.664074 0.999984 1 1 1 1 1
          1 1 1 1 1 1 1 1 1 1 1 1
          1 1 1 1 1 1 1 1 1 1 1 1
          1 1 0.662104 1 1 1 0.99941 0.935373 0.842646 1 1 1
          1 1 1 1 1 1 1 1 1 1 1 1
          1 1 1 0.866931 1 0.662104 1 1 1 1 0.999997 0.999984
          1 1 1 1 0.999895 0.999938 1 1 1 1 1 1
          1 1 1 1 1 1 1 1 1 1 1 1
          1 1 1 1 1 1 1 1 1 1 1 1
          1 1 1 1 1 1 1 1 1 1 1 1
          1 1 1 1 1 1 1 1 1 1 1 1
          1 1 1 1 1 1 1 1 1 1 1 1
          1 1 1 1 1 1 0.974308 0.999996 0.998578 1 1 1
          1 1 1 1 1 1 0.978115 0.933896 0.999927 1 1 1
          1 1 1 1 1 1 0.961302 0.712678 0.800899 1 0.999895 1
          1 1 1 1 1 1 1 1 1 1 1 1
          1 1 1 1 1 1 1 1 1 1 1 1
          1 1 1 1 1 1 1 1 1 1 1 1
          1 1 1 1 1 1 1 1 1 1 1 1
          1 1 1 1 1 1 1 1 1 1 1 1
          1 1 1 1 1 1 1 1 1 1 1 1
          1 1 1 1 1 1 1 1 1 0.994235 0.999926 1
          1 1 1 1 1 1 1 1 1 1 1 1
          1 1 1 1 1 1 1 1 1 0.999927 0.999996 0.978115
          1 1 1 1 1 1 1 1 1 1 1 1
          1 1 1 1 1 1 1 1 1 1 1 1
          1 1 1 1 1 1 1 1 1 1 1 1
          1 1 1 1 1 1 1 1 1 1 1 1
          1 1 1 1 1 1 1 1 1 1 1 1
          1 1 1 0.971974 0.807253 0.996467 1 1 1 1 1 1
          1 1 1 1 1 1 1 1 1 0.757124 0.971425 0.705224
          1 1 1 1 1 1 1 1 1 0.999997 0.971425 0.991375
          1 1 1 0.5 0.5 0.757124 1 1 1 1 1 1
          1 1 1 1 1 1 1 1 1 1 1 1
          1 1 1 1 1 1 1 1 1 1 1 1
          1 1 1 1 1 1 1 1 1 1 1 1
          1 1 1 1 1 1 1 1 1 1 1 1
          1 1 1 1 1 1 1 1 1 1 1 1
          1 1 1 1 1 1 0.664074 0.933896 0.768199 1 1 1
          1 1 1 1 1 1 1 1 1 1 1 1
          0.743537 0.5 0.671719 1 0.999998 0.999997 1 1 1 1 1 1
          1 1 1 1 1 1 1 1 1 1 1 1
          1 1 1 1 1 1 1 1 1 1 1 1
          1 1 1 1 1 1 1 1 1 1 1 1
          1 1 1 1 1 1 1 1 1 1 1 1
          1 1 1 1 1 1 1 1 0.999927 0.710773 0.977765 0.964594
          1 1 1 1 1 1 1 1 1 1 1 1
          1 1 1 1 1 1 1 1 1 1 1 1
          1 1 1 1 1 1 1 1 1 1 1 1
          1 1 1 1 1 1 1 1 1 1 1 1
          1 1 1 1 1 1 1 1 1 1 1 1
          1 1 1 0.778333 0.971425 0.98527 1 1 1 0.712678 0.961752 0.764481
          1 1 1 1 1 1 1 1 1 1 1 1
          1 1 1 1 1 1 1 1 1 1 1 1
          1 1 1 1 1 1 1 1 1 1 1 1
          1 1 1 1 1 1 0.98527 0.971425 0.999998 1 1 1
          1 1 1 1 1 1 1 1 1 1 1 1
          1 1 1 1 1 1 0.961302 1 0.999978 1 1 1
          1 1 1 1 1 1 1 1 1 1 1 1
          1 1 1 1 1 1 1 1 1 1 1 1
          1 1 1 0.875239 0.933896 0.664074 1 1 1 1 1 1
          1 1 1 1 1 1 1 1 1 0.999997 1 1
          1 1 1 1 1 1 1 1 1 1 1 1
          1 1 1 0.720301 0.5 0.807253 1 1 1 1 1 1
          1 1 1 1 1 1 1 1 1 1 1 1
          1 1 1 1 1 1 1 1 1 1 1 1
          1 1 1 1 1 1 1 1 1 1 1 1
          1 1 0.999998 1 1 1 1 1 1 1 1 1
          1 1 1 1 1 1 0.875239 0.664074 0.658479 1 1 1
          1 1 1 1 1 1 0.999994 0.999038 1 1 1 1
          0.5 0.5 0.671719 1 1 0.999556 1 1 1 1 1 1
          1 1 1 0.997261 0.999139 0.875239 1 1 1 1 1 1
          1 1 1 1 1 1 1 1 1 1 1 1
          0.807253 0.5 0.726027 1 1 1 1 1 1 1 1 1
          1 1 1 1 1 1 1 1 1 1 1 1
          1 1 1 0.999978 1 1 0.664074 0.5 0.658479 1 1 1
          1 1 1 1 1 1 1 1 1 1 1 1
          1 1 1 1 1 1 1 1 1 1 1 1
          1 1 1 0.98527 0.999998 0.994582 1 1 1 1 1 1
          1 1 1 0.999139 1 1 0.989064 1 1 1 1 1
          1 1 1 1 1 1 0.988713 1 1 0.999997 1 1
          1 1 1 1 1 1 0.999978 0.961752 0.961302 1 1 1
          1 1 1 1 1 1 1 1 0.999938 1 1 1
          1 1 1 1 1 1 0.999994 1 1 1 1 1
          1 1 1 1 1 1 1 1 1 0.999938 0.999104 1
          1 1 1 0.662104 0.745602 0.866931 1 1 1 1 1 1
          1 1 1 1 1 1 1 1 1 1 1 1
          1 1 1 1 1 1 0.5 0.5 0.705224 0.68205 0.938848 0.757124
          1 1 1 1 1 1 1 1 1 1 1 1
          1 1 1 1 0.999511 0.994235 1 1 1 0.999927 0.999139 1
          1 1 1 1 1 1 1 1 1 1 1 1
          1 1 1 1 1 1 1 1 1 1 1 1
          1 1 1 1 1 1 1 0.999511 1 1 1 1
          1 1 1 1 1 1 0.999994 1 1 1 1 1
          1 1 1 1 1 1 1 1 1 1 1 1
          1 1 1 1 1 1 1 1 1 1 1 1
          1 1 1 0.62155 0.5 0.648074 1 1 1 1 1 1
          1 1 1 1 1 1 1 1 1 1 1 1
          1 1 1 1 1 1 1 1 1 0.999938 1 1
          1 1 1 1 1 1 1 1 1 1 1 1
          1 1 1 1 1 1 0.885064 0.5 0.681593 0.999976 0.961121 0.999994
          1 1 1 1 1 0.999996 1 1 1 1 1 1
          0.977765 0.999999 0.999995 1 1 1 1 1 1 0.662104 0.5 0.598491
          1 1 1 1 1 1 1 1 1 1 1 1
          1 1 1 1 1 1 1 1 1 1 1 1
          0.996467 0.999997 1 1 1 1 1 1 1 1 1 1
          1 1 1 1 1 1 1 1 1 1 1 1
          1 1 1 1 1 1 1 1 1 1 1 1
          1 1 1 1 1 1 1 1 1 0.5 0.5 0.669025
          0.977765 0.710773 0.988713 1 1 1 0.78858 0.885064 0.681593 1 1 1
          1 1 1 1 1 1 1 1 1 1 1 1
          1 1 1 1 1 1 1 1 1 1 1 1
          0.705261 0.953949 0.726027 1 1 1 1 1 1 0.953949 0.865673 0.999259
          1 1 1 1 1 1 1 1 1 1 1 1
          1 1 1 1 1 1 1 0.961121 1 1 1 1
          1 1 1 1 1 1 1 1 1 1 1 1
          1 1 1 1 1 1 1 1 1 0.875239 0.845426 0.997261
          1 1 1 0.5 0.5 0.598491 1 1 1 1 1 1
          0.997261 1 0.999139 1 1 1 1 1 1 1 1 1
          1 1 1 1 1 1 1 1 1 1 1 1
          1 1 1 1 1 1 1 1 1 1 1 1
          1 1 1 1 1 1 1 1 1 1 1 0.999978
          1 1 1 1 1 1 1 1 1 1 1 1
          1 1 1 1 1 1 0.999996 1 1 1 1 1
          1 1 1 1 1 1 1 1 1 1 1 1
          1 1 1 1 1 1 1 1 1 1 1 1
          1 1 1 1 1 1 1 1 1 1 1 1
          1 1 1 1 1 1 1 1 1 1 1 1
          1 1 1 1 1 1 1 1 1 0.5 0.5 0.658479
          1 1 0.999997 1 1 1 1 1 1 1 1 1
          1 1 1 1 1 1 1 1 1 1 1 1
          1 1 1 1 1 1 1 1 1 0.757124 0.5 0.68205
          1 1 1 1 1 1 1 1 0.999996 1 1 1
          1 1 1 1 1 1 1 1 1 1 1 1
          1 1 1 1 1 1 1 1 1 1 1 1
          1 1 1 0.999994 0.935373 0.99941 1 1 1 1 1 1
          1 1 1 1 1 1 1 1 0.989064 1 1 1
          0.957112 0.999104 0.867317 1 1 1 0.658479 0.845426 0.875239 1 1 1
          0.705224 0.5 0.757124 1 1 1 1 1 1 1 1 1
          1 1 1 1 1 1 1 1 1 1 1 1
          1 1 1 1 1 1 1 1 1 1 1 1
          1 1 1 1 1 1 1 1 1 1 1 1
          1 1 1 1 1 1 1 1 1 1 1 1
          1 1 1 0.619752 0.664074 0.768199 1 1 1 1 1 1
          1 1 1 1 1 1 1 1 1 1 1 1
          1 1 1 1 1 1 1 1 1 1 1 1
          1 1 1 1 1 1 1 1 1 0.999998 0.999895 1
          1 1 1 0.961302 1 1 0.866931 0.745602 0.974308 1 1 1
          1 1 1 1 1 1 1 1 1 1 1 1
          1 1 1 0.5 0.5 0.62155 1 1 1 0.98623 0.999104 0.999938
          1 1 1 1 1 1 1 1 1 1 1 1
          0.5 0.5 0.720301 1 1 1 1 1 0.999038 1 1 1
          1 1 1 1 1 1 1 1 1 1 1 1
          1 1 1 1 1 1 1 1 1 1 1 1
          1 0.999511 1 1 1 1 1 1 1 1 1 1
          1 1 1 1 1 1 1 1 1 1 1 1
          1 1 1 1 1 1 1 1 1 1 1 1
          1 1 1 1 1 1 1 1 1 1 1 1
          1 1 1 1 1 1 1 1 1 1 1 1
          1 1 1 1 1 1 1 1 1 1 1 1
          1 1 1 1 1 1 1 1 1 1 1 1
          1 1 1 1 1 1 1 1 1 1 1 1
          1 1 1 1 1 1 1 1 1 1 1 1
          1 1 1 1 1 1 0.999038 0.961121 1 1 1 1
          1 1 1 1 1 1 1 1 1 1 1 1
          1 1 1 1 1 1 0.999038 1 1 1 1 1
          1 1 1 1 1 1 0.726027 0.5 0.705261 1 1 1
          1 1 1 1 1 1 1 1 1 1 1 1
          1 1 1 0.5 0.5 0.726027 1 1 1 1 1 1
          1 1 1 1 1 1 0.67618 0.5 0.743537 1 1 1
          1 1 1 1 1 1 1 1 1 0.658479 0.5 0.669025
          1 1 1 1 1 1 0.669025 0.845426 0.658479 1 1 1
          1 1 1 1 1 1 0.865673 0.999119 0.999259 0.979974 0.999926 0.936959
          1 1 1 1 1 1 1 1 1 1 1 1
          1 1 1 1 1 1 1 1 1 1 1 1
          0.705261 0.865673 0.953949 1 1 1 1 1 1 1 1 1
          1 1 1 0.99941 0.842646 0.964594 1 1 1 1 1 1
          1 1 1 0.991375 1 0.999997 1 1 1 0.5 0.5 0.619752
          1 1 1 0.5 0.5 0.594047 1 1 1 1 1 1
          1 1 1 1 1 1 1 1 1 1 1 1
          0.988713 0.710773 0.986681 1 1 1 1 1 1 1 0.99941 0.999995
          1 1 1 0.5 0.5 0.58382 1 1 1 1 1 1
          0.681593 0.5 0.5 1 1 1 1 1 1 1 1 1
          1 1 1 0.5 0.5 0.67618 1 1 1 1 1 1
          1 1 1 1 1 1 1 1 1 1 1 1
          1 1 1 1 1 1 1 1 1 1 1 1
          1 1 1 1 1 1 1 1 1 1 1 1
          0.5 0.5 0.705261 1 1 1 1 1 1 1 0.999996 1
          1 1 1 1 1 1 1 1 1 1 1 1
          1 1 1 1 1 1 1 1 1 1 1 1
          1 1 1 1 1 1 1 1 1 1 1 1
          1 1 0.999999 1 1 1 1 1 1 1 1 1
          1 1 1 1 1 1 1 1 1 1 1 1
          1 1 1 0.977765 0.999995 0.964594 1 1 1 1 1 1
          1 1 1 1 1 1 1 1 1 1 1 1
          0.768199 0.933896 0.978115 1 1 1 1 1 1 1 1 1
          1 1 1 1 1 1 1 1 1 1 1 1
          1 1 1 1 1 1 0.867317 0.999104 0.98623 1 1 1
          0.999999 0.961121 0.999996 1 1 1 1 1 1 1 1 1
          1 1 1 0.957112 0.703154 0.764481 1 1 1 1 1 1
          1 1 1 1 1 1 1 1 1 1 1 1
          1 1 1 0.957112 0.961752 0.999979 1 1 1 1 1 1
          1 1 1 1 1 1 1 1 1 1 1 1
          1 0.999996 0.999927 1 1 1 1 1 1 1 1 1
          1 1 1 1 1 1 1 1 1 1 1 1
          1 1 1 1 1 1 1 1 1 1 1 1
          1 1 1 1 1 1 1 1 1 1 1 1
          1 1 1 1 1 1 1 1 1 1 1 1
          0.926068 0.743537 0.671719 1 1 1 1 1 1 1 1 1
          1 1 1 1 1 1 1 1 1 1 1 1
          1 1 1 1 1 1 1 1 1 1 1 1
          1 1 1 1 1 1 1 1 1 1 1 1
          0.926068 0.770073 0.98623 1 1 1 1 1 1 1 1 1
          0.5 1 0.669376 1 1 1 0.999994 0.989064 0.935373 1 1 1
          1 1 1 1 1 1 1 0.989064 1 0.994582 0.778333 0.98527
          1 1 1 1 1 1 1 1 1 1 1 1
          1 1 1 1 1 1 1 1 1 1 1 0.988713
          1 1 1 1 1 1 1 1 1 1 1 1
          0.681593 0.5 0.78858 1 1 1 1 1 1 1 1 1
          1 1 1 1 1 1 1 1 1 1 1 1
          1 1 1 1 1 1 1 1 1 0.705261 0.5 0.865673
          1 1 1 1 1 1 1 1 1 1 1 1
          1 1 1 0.669376 1 1 1 1 1 1 1 1
          1 1 1 1 1 1 1 1 1 0.979974 0.743537 0.926068
          1 1 1 1 1 1 0.999998 1 1 1 1 1
          1 1 1 1 1 1 1 1 1 1 1 1
          1 1 1 1 1 1 1 1 1 1 1 1
          1 1 1 1 1 1 1 1 1 1 1 1
          1 1 1 1 0.999038 1 0.764481 0.961752 0.957112 1 1 1
          1 0.961121 0.999999 1 1 1 1 1 1 0.999998 0.999926 0.979974
          1 1 1 1 1 1 1 1 1 1 1 1
          1 1 1 1 1 1 1 1 1 1 1 1
          1 1 1 1 1 1 1 1 1 1 1 1
          1 1 1 1 1 1 1 1 1 1 1 1
          1 1 1 1 1 1 1 1 1 0.999999 1 1
          1 1 1 1 1 1 1 1 1 1 1 1
          1 1 1 1 1 1 1 1 1 1 1 1
          1 0.999996 1 0.997261 0.845426 0.898304 1 1 1 1 1 1
          1 1 1 1 1 1 0.800899 1 0.961302 1 1 1
          1 1 1 1 1 1 1 1 1 1 1 1
          1 1 1 1 1 1 1 1 1 1 1 1
          1 1 1 1 1 1 1 1 1 1 1 1
          1 1 1 1 1 1 1 1 1 0.78858 0.5 0.67618
          1 1 1 1 1 1 1 0.989064 0.999994 1 1 1
          1 1 1 1 1 1 0.978115 0.999996 0.974308 1 1 1
          0.5 0.5 0.68205 1 1 1 1 1 1 1 1 1
          1 1 1 0.999556 1 0.986681 1 1 1 1 1 1
          0.999119 1 1 1 1 1 1 1 1 1 1 1
          1 1 1 0.99941 1 0.999994 1 1 1 1 1 1
          1 1 1 0.994582 1 0.997261 1 1 1 1 1 1
          0.936959 0.743537 0.979974 1 1 1 1 1 1 1 1 1
          1 1 1 1 1 1 1 1 1 0.999995 0.99941 0.964594
          1 1 1 1 1 1 1 1 1 0.999979 0.999104 0.957112
          1 1 1 1 1 1 1 1 1 1 1 1
          1 1 1 1 1 1 1 1 1 1 1 1
          1 1 0.866931 1 1 1 1 1 1 1 1 1
          1 1 1 1 1 1 1 1 1 0.842646 0.935373 0.999556
          1 1 1 1 1 1 1 1 1 1 1 1
          1 1 1 1 1 1 1 1 1 1 1 1
          1 1 1 1 1 1 1 1 1 1 1 1
          1 1 1 1 1 1 1 1 1 1 1 1
          1 1 1 1 1 1 1 1 1 1 1 1
          1 1 1 1 1 1 1 1 1 1 1 1
          1 1 1 1 1 1 1 1 1 1 1 1
          1 1 1 1 1 1 1 1 1 1 1 1
          1 1 1 1 1 1 1 1 1 1 1 1
          1 1 1 1 1 1 1 1 1 1 1 1
          1 1 1 1 1 1 1 1 1 1 1 1
          1 1 1 1 1 1 1 1 1 1 1 1
          1 1 1 1 1 1 1 1 1 1 1 1
          1 1 1 1 1 1 1 1 1 1 1 1
          1 1 1 1 1 1 1 1 1 1 1 1
          1 1 1 1 1 1 1 1 1 1 1 1
          1 1 1 0.999996 1 0.999999 1 1 1 1 1 1
          1 1 1 1 1 1 1 1 1 0.971974 0.938848 0.720301
          1 1 1 1 1 1 0.999994 1 0.999976 1 1 1
          1 1 1 1 1 1 1 1 1 1 1 1
          1 1 1 0.935373 0.989064 1 1 1 1 1 1 1
          1 1 1 1 1 1 0.898304 0.994582 0.997261 1 1 1
          0.671719 0.770073 0.926068 1 1 1 1 1 1 1 1 1
          1 1 1 1 1 1 1 1 1 1 1 1
          0.999996 0.961121 0.999976 1 1 1 1 1 1 0.975537 0.953949 0.999984
          1 1 1 1 1 1 1 1 1 1 1 1
          1 1 1 1 1 1 0.726027 0.953949 0.975537 1 1 1
          1 1 1 1 1 1 1 1 1 1 1 1
          1 1 1 1 1 1 1 1 1 1 1 1
          1 1 1 1 1 1 1 1 1 0.999927 1 1
          1 1 1 1 1 1 1 1 1 1 1 1
          1 1 1 0.720301 0.938848 0.68205 1 1 1 0.986681 0.710773 0.842646
          1 1 1 1 1 1 1 1 1 1 1 1
          1 1 1 1 1 1 1 1 1 1 1 1
          1 1 1 1 1 1 1 1 1 1 1 1
          1 1 1 1 1 1 1 1 1 0.986681 1 0.988713
          1 1 1 1 1 1 1 1 1 1 1 1
          1 1 1 1 1 1 1 1 1 1 1 1
          1 1 1 1 1 1 1 1 1 1 1 1
          1 1 1 1 1 1 1 1 1 1 1 1
          1 1 1 1 1 1 1 1 1 1 1 1
          1 1 1 1 1 1 1 1 1 1 1 1
          1 1 1 1 1 1 1 1 1 1 1 1
          1 1 1 1 1 1 1 1 1 1 1 1
          1 1 1 1 1 1 1 1 1 1 1 1
          1 1 1 1 1 1 1 1 1 1 1 1
          1 1 1 1 1 1 1 1 1 1 1 1
          1 1 1 1 1 1 1 1 1 1 1 1
          1 1 1 0.800899 1 1 0.898304 0.778333 0.994582 1 1 1
          1 1 1 1 1 1 1 1 1 1 1 1
          1 1 1 1 1 1 1 1 1 1 1 1
          1 1 1 0.62155 0.770073 0.671719 1 1 1 1 1 1
          1 1 1 1 1 1 1 1 1 1 1 1
          1 1 1 1 1 1 1 1 1 1 1 1
          1 1 1 1 1 1 1 1 1 1 1 1
          0.768199 0.745602 0.619752 1 1 1 1 1 1 0.991375 0.938848 0.999955
          1 1 1 0.988713 1 0.999999 1 1 1 1 1 1
          1 1 1 1 1 1 1 1 1 1 1 1
          1 1 1 1 1 1 1 1 1 0.998578 1 0.866931
          0.999995 1 1 1 1 1 1 1 1 1 1 1
          1 1 1 1 1 1 1 1 1 1 1 1
          0.999556 0.935373 1 1 1 1 1 1 1 1 1 1
          1 1 1 1 1 1 1 1 1 1 1 1
          1 1 1 1 1 1 1 1 1 1 0.999997 1
          1 1 1 1 1 1 1 1 0.999955 1 1 1
          1 1 1 1 1 1 1 1 1 1 1 1
          1 1 1 1 1 1 1 1 1 1 1 1
          0.898304 0.845426 0.669025 1 1 1 1 1 1 1 1 1
          1 1 1 1 1 1 1 1 1 1 1 1
          1 1 1 1 1 1 1 1 1 1 1 1
          1 1 1 1 1 1 1 1 1 1 1 1
          1 1 1 1 1 0.998578 0.598491 0.745602 0.662104 0.926068 0.999895 0.979974
          1 1 1 0.986681 0.842646 0.999556 1 1 1 1 1 1
          1 1 1 1 1 1 1 1 1 1 1 1
          1 1 1 1 1 1 1 1 1 1 1 1
          1 1 1 1 1 1 0.622304 0.5 0.58382 1 1 1
          1 1 1 1 1 1 0.648074 0.703154 0.867317 1 1 1
          1 1 1 1 1 1 0.999955 0.996467 1 1 1 1
          1 1 1 1 1 0.998578 1 0.999926 1 1 1 1
          1 1 1 1 1 1 1 1 1 1 1 1
          1 1 1 1 1 1 1 1 1 1 1 1
          1 1 1 1 1 1 0.999259 0.999119 1 1 1 1
          1 1 1 0.619752 0.745602 0.598491 0.975537 0.807253 0.726027 1 1 1
          1 0.994235 1 1 1 1 1 1 1 1 1 1
          1 1 1 0.999999 1 0.999999 0.999955 1 0.991375 1 1 1
          1 1 1 1 1 1 1 1 1 1 1 1
          0.999999 1 1 1 1 1 0.842646 0.710773 0.964594 1 1 1
          1 1 1 1 1 1 1 1 1 1 1 1
          1 1 1 1 1 1 1 1 1 1 1 1
          1 1 1 0.999984 0.999997 0.975537 1 1 1 1 1 1
          1 1 1 1 1 1 1 1 1 1 1 1
          1 1 1 1 1 1 0.598491 0.5 0.619752 0.671719 0.5 0.62155
          1 1 1 1 1 1 1 1 1 1 1 0.999259
          1 1 1 1 1 1 0.764481 0.703154 0.622304 1 1 0.999994
          1 1 1 1 1 1 1 1 1 0.866931 0.974308 0.998578
          1 1 1 0.979974 0.999895 0.999998 1 1 1 1 1 1
          1 1 1 0.867317 0.703154 0.957112 1 1 1 1 1 1
          1 1 1 1 1 1 1 1 1 1 1 1
          1 1 1 1 1 1 1 1 1 1 1 1
          1 1 1 1 1 1 1 1 1 1 1 1
          1 1 1 1 1 1 1 1 1 1 1 1
          1 1 1 1 1 1 1 1 1 1 1 1
          1 1 1 1 1 1 1 1 1 1 1 1
          0.936959 0.78858 0.67618 1 1 1 1 1 1 1 1 1
          1 1 1 1 1 1 1 1 1 1 1 1
          1 1 1 1 1 1 1 1 1 1 1 1
          1 1 1 0.867317 0.770073 0.648074 1 1 1 0.669376 1 0.800899
          1 1 1 1 1 1 1 1 0.99941 1 1 1
          1 0.999994 1 1 1 1 1 1 1 1 1 1
          0.622304 0.712678 0.764481 1 1 1 1 1 1 0.58382 0.712678 0.622304
          1 1 1 1 1 1 1 1 1 1 1 1
          1 1 1 1 1 1 1 1 1 1 0.996467 1
          1 1 1 0.67618 0.743537 0.936959 1 1 1 1 1 1
          1 1 1 1 1 1 1 1 1 1 1 1
          0.594047 0.703154 0.648074 1 1 1 1 1 1 1 0.999926 0.999998
          1 1 1 1 1 1 0.720301 0.807253 0.971974 1 1 1
          1 1 1 1 1 1 1 1 1 1 1 1
          1 1 1 1 1 1 1 1 1 1 1 1
          1 1 0.999556 1 1 1 1 1 1 1 1 1
          1 1 1 1 1 1 1 1 1 1 1 1
          1 1 1 1 1 1 1 1 1 1 1 1
          0.999999 0.999999 0.977765 1 1 1 1 1 1 1 1 1
          1 1 1 1 1 0.999999 1 1 1 0.669025 0.778333 0.898304
          1 1 1 1 1 1 1 1 0.999999 1 1 1
          1 1 1 1 1 1 0.800899 0.712678 0.669376 1 1 1
          1 1 1 1 1 1 1 1 1 0.999259 1 0.999984
          0.594047 0.5 0.622304 1 1 1 1 1 1 1 1 1
          1 1 1 1 1 1 1 1 1 1 1 1
          0.988713 0.999999 0.977765 1 1 1 1 1 1 1 1 1
          1 1 1 1 1 1 1 1 1 1 1 1
          1 1 1 1 1 1 1 1 1 1 0.999998 1
          0.622304 0.703154 0.594047 1 1 1 1 1 1 1 1 1
          1 1 1 1 1 1 1 1 1 1 1 1
          1 1 1 0.68205 0.5 0.720301 0.999955 0.938848 0.971974 0.648074 0.5 0.594047
          0.98623 0.770073 0.867317 1 1 1 1 1 1 1 1 1
          0.999976 1 0.999996 1 1 1 1 1 1 1 1 1
          0.971974 0.996467 0.999955 1 1 1 1 1 1 0.999984 0.953949 0.999259
          1 1 1 1 1 1 1 1 1 1 1 1
          1 1 1 1 1 1 1 1 1 1 1 1
          1 1 1 1 1 1 1 1 1 1 1 1
          0.999999 1 1 1 1 1 1 1 1 1 1 1
          1 1 1 1 1 1 1 1 1 1 1 1
          0.58382 0.5 0.669376 0.648074 0.770073 0.62155 0.669376 0.712678 0.58382 1 1 1
          1 1 1 1 1 1 1 1 1 0.999999 1 0.999995
        </DataArray>
        <DataArray type="Float32" Name="p_aq" NumberOfComponents="1" format="ascii">
          163633 166203 163849 116617 124167 119485 186848 181129 181030 147966 150091 148413
          150091 150605 148413 166203 167336 163849 116617 123532 124167 163246 161546 166141
          161546 161622 166141 143303 142948 141491 107098 111809 112523 134459 131357 134016
          138839 140799 139322 163077 158535 158337 127819 128806 129637 162016 164774 162102
          104301 109334 108264 151342 149351 150831 149351 148595 150831 136194 137629 134980
          145523 143745 145815 169509 172127 169752 183701 182078 180247 145815 147407 145523
          138908 137941 139946 178812 181167 194993 166821 163849 169752 153443 151342 150831
          145815 144524 147299 135782 134896 132998 164088 165498 163023 148378 149983 147299
          166203 163434 166451 183701 180247 181539 134832 132654 131961 150831 152977 153443
          158721 160992 161549 124167 129656 130151 132998 134896 132718 152316 150605 152327
          141184 140118 142992 114880 120621 119798 152316 152327 153977 142959 145073 146115
          152909 154205 155265 120487 121265 124040 144755 143303 142133 142798 140538 140014
          162274 164088 163023 142877 140724 140990 150574 151961 149725 150043 149983 148378
          142197 140705 139965 148595 149335 150831 181030 187281 192028 157860 156510 158804
          138908 141206 139119 140990 140724 139012 136933 137941 138908 181932 186541 182321
          142197 142501 140705 147093 149335 148595 158902 158335 159851 162007 163849 166821
          128806 130772 129637 162102 159883 162016 174244 170136 170721 158902 156853 158335
          192028 186848 181030 177750 181167 174886 135795 133860 135443 156287 157679 154993
          158886 157679 156287 164855 168330 164774 157442 158721 159749 137629 136829 134980
          156950 157357 151177 166772 170136 168277 143303 145007 142948 163077 163017 158535
          140867 141206 138908 156287 157940 158886 114880 113323 107594 126916 123274 128236
          147279 146104 150057 158463 156459 156452 170436 172908 172785 134459 132416 131357
          160210 162728 160946 121725 124708 125159 142959 142718 145073 140799 141491 139322
          194993 183656 178812 137941 140215 139946 152709 156056 154909 154993 153977 156287
          174984 177360 177597 137581 139158 139974 161908 161694 164028 159749 158721 161549
          131357 127344 129404 154017 152709 150739 106950 109400 105654 169509 169752 167336
          162007 163077 158337 136135 139158 137581 135782 137696 137941 150739 151451 154017
          146904 145362 147093 147093 148595 146904 128236 123274 123500 180702 175258 176748
          151961 154205 152909 168277 170136 166772 171623 168443 168640 144013 145530 148205
          156950 151177 152696 146047 143303 144755 172832 170136 174244 159761 162016 159883
          154799 151358 152909 173560 176355 176666 165564 168443 166932 154993 152977 152316
          160949 160992 158463 155101 153977 152327 196500 200000 191445 165100 163947 167137
          129612 131961 130722 130772 131520 129637 144013 141184 142992 125982 125205 122150
          176748 188648 180702 163619 161908 164028 137941 137696 140215 158004 160348 158780
          169752 172127 173560 140686 138444 137928 122386 126072 122150 185910 182111 186821
          151451 154500 154017 134951 136481 134297 177557 187281 181030 123101 123777 125394
          152316 153977 154993 162016 164855 164774 188783 187577 194254 168330 167137 164774
          142197 144524 142501 142959 146115 145324 163098 163272 160949 129949 132451 130622
          135782 135651 137696 160060 159883 162102 186448 193216 185415 130003 127344 131357
          142698 144691 144273 147093 145362 144352 174244 176400 172832 124040 123773 120487
          134779 136769 136161 143068 145278 144605 182321 186541 188113 160946 163098 160949
          133401 134212 131319 146867 147279 144895 144352 146234 147093 162958 168255 163811
          134832 136737 137528 181539 184043 183701 157943 159761 159883 177597 177360 179444
          134114 133860 135795 155101 157940 156287 131774 131884 129404 139329 140724 142133
          139481 139189 142181 145815 147299 148205 133887 132998 131329 166687 165579 164624
          138883 141056 139230 147497 149725 148799 160946 162917 163098 160949 163272 160992
          147688 150133 150919 170801 170436 172785 200000 200000 196747 158463 160992 158721
          129267 127864 126741 128484 131437 130942 197184 181167 191445 137528 136769 134832
          156287 153977 155101 160946 162728 162917 148205 146099 144013 157442 158144 154799
          169461 166720 166932 137696 135651 136577 185022 187010 184194 195426 200000 200000
          141056 141559 139230 150057 146104 146280 141640 143745 143561 143985 143163 146280
          129949 132120 132451 191445 200000 197184 169736 167277 167137 107147 111381 106194
          156459 158721 157442 131329 128640 129981 107594 113323 106950 146280 143163 143404
          138691 136956 139230 150057 150247 147279 125205 120258 122150 118423 116805 115346
          135550 139158 136135 144273 142152 142698 168321 166720 169461 156929 157679 159097
          122138 119858 116892 151189 148146 149032 121083 118423 119072 144352 145362 142948
          144769 142776 142461 131289 131961 129612 140799 139329 142133 180107 181677 179269
          148909 147279 146867 113591 109168 114758 138560 138888 140706 123777 125801 125394
          195190 195426 200000 141804 140866 139583 176666 179518 182174 178195 176109 174692
          168568 163246 166141 158463 158721 156459 183205 183048 185568 171449 165874 170562
          121083 121265 118423 166451 163434 165068 116805 113986 113292 112959 106950 113323
          134509 136807 136577 126741 125801 124341 159097 157679 159771 157238 159761 157943
          164610 162728 163946 100000 100000 107594 155664 156510 157860 113986 108264 109334
          142948 141802 144352 129404 127344 124751 137696 136577 138793 137334 136481 134951
          166610 168443 165564 167137 168330 170792 163633 163434 166203 150919 148379 147688
          142421 140447 137540 168330 172544 170792 109168 112292 114758 183701 187577 185022
          170792 173344 169736 132451 134297 134783 114880 114904 120621 132120 134297 132451
          116805 118182 113986 123699 124757 122411 185415 193216 192745 164624 165579 163946
          134832 131961 133338 131329 132566 133887 147299 144524 145966 153395 155101 152327
          134779 136161 134870 125845 127703 123587 185022 182078 183701 128836 126629 129612
          139189 136911 138716 153054 151358 154799 126741 127864 125801 127864 129267 129949
          168640 171171 171623 176355 179518 176666 125394 126629 123632 126278 128571 126741
          141651 143745 141640 152915 151961 150574 162958 157357 156950 128571 129267 126741
          126292 126629 128836 139692 137124 138020 134779 132654 134832 123532 129656 124167
          107098 106128 111809 142948 145007 144828 133830 135382 132275 132654 133401 130559
          121329 114904 118853 144605 145278 146609 170801 170019 168477 119346 122138 116892
          123587 127703 124356 182174 177750 176666 140538 141056 138883 182111 182184 186821
          139489 140014 137629 128836 128614 126292 145405 142776 144769 139583 137124 139692
          118182 118853 113986 107594 100000 109589 166932 168443 169461 129981 132566 131329
          140867 138908 139946 140799 143303 141491 169461 170202 168321 146609 147497 148799
          129404 129582 131774 135443 137207 135795 150574 149983 151965 142877 142765 144895
          130559 133401 131319 198033 200000 196747 175873 171449 170562 172004 170202 169461
          167137 167277 165100 130942 129162 128484 112959 109400 106950 156452 156459 154816
          146280 146104 143985 131319 134212 132690 148980 149983 150574 123632 126629 124040
          190525 195426 195190 168194 167056 165579 116060 118535 116850 144273 144352 142625
          162328 162120 164475 165579 167056 164610 160705 162728 160210 139583 140866 138670
          147299 149983 148205 189427 190525 195190 150574 149725 148730 170562 175258 175873
          169752 163849 167336 179119 182184 182111 175488 176914 174593 139583 141640 141804
          145590 149534 148230 158337 154031 156093 152179 152709 154909 169994 173424 168511
          144828 142549 142948 156452 154048 155833 151177 146099 148205 122411 121157 123699
          176666 173202 173560 144273 146234 144352 119798 120621 123108 159155 156994 154152
          164624 166720 166687 136906 138888 138560 170019 172296 171428 180107 179269 177873
          123632 121265 121083 154816 154048 156452 170721 173344 174244 118853 114904 113986
          158004 160060 160348 126682 126455 122955 186448 183205 185568 170723 172908 170436
          158637 154654 158100 135434 135912 133328 185415 186541 181932 149351 150043 148378
          175895 172634 174490 170721 170136 168277 188783 194254 193755 178195 182184 179119