<?xml version="1.0"?>
<VTKFile type="UnstructuredGrid" version="0.1" byte_order="LittleEndian">
  <UnstructuredGrid>
    <Piece NumberOfCells="200" NumberOfPoints="402">
      <PointData Scalars="p" Vectors="velocity_liq (m/s)">
        <DataArray type="Float32" Name="p" NumberOfComponents="1" format="ascii">
          100000 100284 100000 100284 100563 100563 100841 100841 101117 101117 101393 101393
          101667 101667 101940 101940 102212 102212 102482 102482 102752 102752 103020 103020
          103286 103286 103552 103552 103816 103816 104079 104079 104340 104340 104601 104601
          104860 104860 105117 105117 105374 105374 105629 105629 105883 105883 106135 106135
          106386 106386 106636 106636 106884 106884 107131 107131 107376 107376 107620 107620
          107863 107863 108104 108104 108344 108344 108583 108583 108820 108820 109056 109056
          109291 109291 109524 109524 109757 109757 109987 109987 110217 110217 110445 110445
          110672 110672 110898 110898 111123 111123 111346 111346 111568 111568 111789 111789
          112009 112009 112228 112228 112446 112446 112663 112663 112879 112879 113093 113093
          113307 113307 113520 113520 113732 113732 113943 113943 114153 114153 114362 114362
          114570 114570 114778 114778 114984 114984 115190 115190 115395 115395 115600 115600
          115803 115803 116006 116006 116209 116209 116411 116411 116612 116612 116813 116813
          117013 117013 117213 117213 117412 117412 117611 117611 117810 117810 118007 118007
          118205 118205 118402 118402 118599 118599 118795 118795 118991 118991 119187 119187
          119382 119382 119578 119578 119772 119772 119967 119967 120161 120161 120356 120356
          120550 120550 120743 120743 120937 120937 121130 121130 121323 121323 121517 121517
          121710 121710 121902 121902 122095 122095 122288 122288 122480 122480 122673 122673
          122865 122865 123057 123057 123250 123250 123442 123442 123634 123634 123826 123826
          124018 124018 124210 124210 124402 124402 124594 124594 124786 124786 124978 124978
          125169 125169 125361 125361 125553 125553 125745 125745 125937 125937 126128 126128
          126320 126320 126512 126512 126704 126704 126895 126895 127087 127087 127279 127279
          127470 127470 127662 127662 127854 127854 128046 128046 128237 128237 128429 128429
          128621 128621 128812 128812 129004 129004 129196 129196 129388 129388 129579 129579
          129771 129771 129963 129963 130154 130154 130346 130346 130538 130538 130729 130729
          130921 130921 131113 131113 131305 131305 131496 131496 131688 131688 131880 131880
          132071 132071 132263 132263 132455 132455 132646 132646 132838 132838 133030 133030
          133222 133222 133413 133413 133605 133605 133797 133797 133988 133988 134180 134180
          134372 134372 134564 134564 134755 134755 134947 134947 135139 135139 135330 135330
          135522 135522 135714 135714 135905 135905 136097 136097 136289 136289 136481 136481
          136672 136672 136864 136864 137056 137056 137247 137247 137439 137439 137631 137631
          137822 137822 138014 138014 138206 138206 138398 138398 138589 138589 138781 138781
          138973 138973 139164 139164 139356 139356 139548 139548 139740 139740 139931 139931
          140123 140123 140315 140315 140506 140506 140698 140698 140890 140890 141082 141082
          141273 141273 141465 141465 141657 141657
        </DataArray>
        <DataArray type="Float32" Name="rho" NumberOfComponents="1" format="ascii">
          999.498 999.075 999.498 999.075 998.977 998.977 998.942 998.942 998.916 998.916 998.891 998.891
          998.865 998.865 998.838 998.838 998.811 998.811 998.783 998.783 998.755 998.755 998.726 998.726
          998.697 998.697 998.667 998.667 998.631 998.631 998.592 998.592 998.552 998.552 998.512 998.512
          998.471 998.471 998.43 998.43 998.388 998.388 998.345 998.345 998.302 998.302 998.258 998.258
          998.214 998.214 998.169 998.169 998.124 998.124 998.078 998.078 998.033 998.033 997.986 997.986
          997.938 997.938 997.882 997.882 997.826 997.826 997.771 997.771 997.715 997.715 997.658 997.658
          997.602 997.602 997.546 997.546 997.49 997.49 997.433 997.433 997.377 997.377 997.321 997.321
          997.266 997.266 997.21 997.21 997.155 997.155 997.098 997.098 997.036 997.036 996.974 996.974
          996.913 996.913 996.853 996.853 996.794 996.794 996.735 996.735 996.677 996.677 996.62 996.62
          996.564 996.564 996.509 996.509 996.454 996.454 996.401 996.401 996.349 996.349 996.298 996.298
          996.249 996.249 996.2 996.2 996.152 996.152 996.1 996.1 996.05 996.05 996.001 996.001
          995.954 995.954 995.908 995.908 995.864 995.864 995.821 995.821 995.78 995.78 995.74 995.74
          995.702 995.702 995.665 995.665 995.63 995.63 995.596 995.596 995.564 995.564 995.533 995.533
          995.504 995.504 995.476 995.476 995.449 995.449 995.424 995.424 995.399 995.399 995.377 995.377
          995.355 995.355 995.335 995.335 995.316 995.316 995.298 995.298 995.281 995.281 995.265 995.265
          995.25 995.25 995.237 995.237 995.224 995.224 995.212 995.212 995.201 995.201 995.19 995.19
          995.181 995.181 995.172 995.172 995.164 995.164 995.157 995.157 995.15 995.15 995.144 995.144
          995.138 995.138 995.133 995.133 995.128 995.128 995.124 995.124 995.12 995.12 995.117 995.117
          995.113 995.113 995.111 995.111 995.108 995.108 995.106 995.106 995.104 995.104 995.102 995.102
          995.101 995.101 995.099 995.099 995.098 995.098 995.097 995.097 995.096 995.096 995.095 995.095
          995.094 995.094 995.094 995.094 995.093 995.093 995.093 995.093 995.092 995.092 995.092 995.092
          995.092 995.092 995.091 995.091 995.091 995.091 995.091 995.091 995.091 995.091 995.091 995.091
          995.091 995.091 995.091 995.091 995.091 995.091 995.091 995.091 995.091 995.091 995.091 995.091
          995.091 995.091 995.091 995.091 995.091 995.091 995.091 995.091 995.092 995.092 995.092 995.092
          995.092 995.092 995.092 995.092 995.092 995.092 995.092 995.092 995.092 995.092 995.092 995.092
          995.092 995.092 995.092 995.092 995.092 995.092 995.093 995.093 995.093 995.093 995.093 995.093
          995.093 995.093 995.093 995.093 995.093 995.093 995.093 995.093 995.093 995.093 995.093 995.093
          995.093 995.093 995.094 995.094 995.094 995.094 995.094 995.094 995.094 995.094 995.094 995.094
          995.094 995.094 995.094 995.094 995.094 995.094 995.094 995.094 995.094 995.094 995.095 995.095
          995.095 995.095 995.095 995.095 995.095 995.095 995.095 995.095 995.095 995.095 995.095 995.095
          995.095 995.095 995.095 995.095 995.095 995.095 995.096 995.096 995.096 995.096 995.096 995.096
          995.096 995.096 995.096 995.096 995.096 995.096 995.096 995.096 995.096 995.096 995.096 995.096
          995.096 995.096 995.096 995.096 995.097 995.097 995.097 995.097 995.097 995.097 995.097 995.097
          995.097 995.097 995.097 995.097 995.097 995.097
        </DataArray>
        <DataArray type="Float32" Name="mu" NumberOfComponents="1" format="ascii">
          0.00124138 0.00113672 0.00124138 0.00113672 0.00111914 0.00111914 0.00111281 0.00111281 0.00110805 0.00110805 0.00110344 0.00110344
          0.00109876 0.00109876 0.00109396 0.00109396 0.00108906 0.00108906 0.00108405 0.00108405 0.00107893 0.00107893 0.00107371 0.00107371
          0.00106837 0.00106837 0.00106293 0.00106293 0.00105792 0.00105792 0.00105304 0.00105304 0.00104807 0.00104807 0.00104301 0.00104301
          0.00103788 0.00103788 0.00103266 0.00103266 0.00102737 0.00102737 0.00102201 0.00102201 0.00101658 0.00101658 0.00101108 0.00101108
          0.00100552 0.00100552 0.000999898 0.000999898 0.000994223 0.000994223 0.000988496 0.000988496 0.000982721 0.000982721 0.000976905 0.000976905
          0.000971242 0.000971242 0.000966106 0.000966106 0.000960945 0.000960945 0.000955763 0.000955763 0.000950564 0.000950564 0.000945353 0.000945353
          0.000940134 0.000940134 0.000934913 0.000934913 0.000929693 0.000929693 0.00092448 0.00092448 0.000919278 0.000919278 0.000914093 0.000914093
          0.000908928 0.000908928 0.000903789 0.000903789 0.000898681 0.000898681 0.000893799 0.000893799 0.000889381 0.000889381 0.000885002 0.000885002
          0.000880666 0.000880666 0.000876377 0.000876377 0.000872139 0.000872139 0.000867956 0.000867956 0.000863832 0.000863832 0.000859769 0.000859769
          0.000855772 0.000855772 0.000851844 0.000851844 0.000847987 0.000847987 0.000844206 0.000844206 0.000840501 0.000840501 0.000836877 0.000836877
          0.000833336 0.000833336 0.000829879 0.000829879 0.000826596 0.000826596 0.000823699 0.000823699 0.000820881 0.000820881 0.000818143 0.000818143
          0.000815488 0.000815488 0.000812915 0.000812915 0.000810426 0.000810426 0.00080802 0.00080802 0.000805699 0.000805699 0.000803462 0.000803462
          0.000801308 0.000801308 0.000799239 0.000799239 0.000797253 0.000797253 0.000795349 0.000795349 0.000793528 0.000793528 0.000791787 0.000791787
          0.000790127 0.000790127 0.000788544 0.000788544 0.000787039 0.000787039 0.00078561 0.00078561 0.000784254 0.000784254 0.000782971 0.000782971
          0.000781757 0.000781757 0.000780613 0.000780613 0.000779534 0.000779534 0.00077852 0.00077852 0.000777567 0.000777567 0.000776675 0.000776675
          0.00077584 0.00077584 0.00077506 0.00077506 0.000774333 0.000774333 0.000773656 0.000773656 0.000773028 0.000773028 0.000772446 0.000772446
          0.000771907 0.000771907 0.00077141 0.00077141 0.000770952 0.000770952 0.00077053 0.00077053 0.000770144 0.000770144 0.00076979 0.00076979
          0.000769466 0.000769466 0.000769172 0.000769172 0.000768903 0.000768903 0.00076866 0.00076866 0.00076844 0.00076844 0.000768241 0.000768241
[...]
      <CellData Scalars="process rank">
        <DataArray type="Float32" Name="process rank" NumberOfComponents="1" format="ascii">
          0 0 0 0 0 0 0 0 0 0 0 0
          0 0 0 0 0 0 0 0 0 0 0 0
          0 0 0 0 0 0 0 0 0 0 0 0
          0 0 0 0 0 0 0 0 0 0 0 0
          0 0 0 0 0 0 0 0 0 0 0 0
          0 0 0 0 0 0 0 0 0 0 0 0
          0 0 0 0 0 0 0 0 0 0 0 0
          0 0 0 0 0 0 0 0 0 0 0 0
          0 0 0 0 0 0 0 0 0 0 0 0
          0 0 0 0 0 0 0 0 0 0 0 0
          0 0 0 0 0 0 0 0 0 0 0 0
          0 0 0 0 0 0 0 0 0 0 0 0
          0 0 0 0 0 0 0 0 0 0 0 0
          0 0 0 0 0 0 0 0 0 0 0 0
          0 0 0 0 0 0 0 0 0 0 0 0
          0 0 0 0 0 0 0 0 0 0 0 0
          0 0 0 0 0 0 0 0
        </DataArray>
      </CellData>
      <Points>
        <DataArray type="Float32" Name="Coordinates" NumberOfComponents="3" format="ascii">
          0 0 0 0.025 0 0 0 1 0 0.025 1 0
          0.05 0 0 0.05 1 0 0.075 0 0 0.075 1 0
          0.1 0 0 0.1 1 0 0.125 0 0 0.125 1 0
          0.15 0 0 0.15 1 0 0.175 0 0 0.175 1 0
          0.2 0 0 0.2 1 0 0.225 0 0 0.225 1 0
          0.25 0 0 0.25 1 0 0.275 0 0 0.275 1 0
          0.3 0 0 0.3 1 0 0.325 0 0 0.325 1 0
          0.35 0 0 0.35 1 0 0.375 0 0 0.375 1 0
          0.4 0 0 0.4 1 0 0.425 0 0 0.425 1 0
          0.45 0 0 0.45 1 0 0.475 0 0 0.475 1 0
          0.5 0 0 0.5 1 0 0.525 0 0 0.525 1 0
          0.55 0 0 0.55 1 0 0.575 0 0 0.575 1 0
          0.6 0 0 0.6 1 0 0.625 0 0 0.625 1 0
          0.65 0 0 0.65 1 0 0.675 0 0 0.675 1 0
          0.7 0 0 0.7 1 0 0.725 0 0 0.725 1 0
          0.75 0 0 0.75 1 0 0.775 0 0 0.775 1 0
          0.8 0 0 0.8 1 0 0.825 0 0 0.825 1 0
          0.85 0 0 0.85 1 0 0.875 0 0 0.875 1 0
          0.9 0 0 0.9 1 0 0.925 0 0 0.925 1 0
          0.95 0 0 0.95 1 0 0.975 0 0 0.975 1 0
          1 0 0 1 1 0 1.025 0 0 1.025 1 0
          1.05 0 0 1.05 1 0 1.075 0 0 1.075 1 0
          1.1 0 0 1.1 1 0 1.125 0 0 1.125 1 0
          1.15 0 0 1.15 1 0 1.175 0 0 1.175 1 0
          1.2 0 0 1.2 1 0 1.225 0 0 1.225 1 0
          1.25 0 0 1.25 1 0 1.275 0 0 1.275 1 0
          1.3 0 0 1.3 1 0 1.325 0 0 1.325 1 0
          1.35 0 0 1.35 1 0 1.375 0 0 1.375 1 0
          1.4 0 0 1.4 1 0 1.425 0 0 1.425 1 0
          1.45 0 0 1.45 1 0 1.475 0 0 1.475 1 0
          1.5 0 0 1.5 1 0 1.525 0 0 1.525 1 0
          1.55 0 0 1.55 1 0 1.575 0 0 1.575 1 0
          1.6 0 0 1.6 1 0 1.625 0 0 1.625 1 0
          1.65 0 0 1.65 1 0 1.675 0 0 1.675 1 0
          1.7 0 0 1.7 1 0 1.725 0 0 1.725 1 0
          1.75 0 0 1.75 1 0 1.775 0 0 1.775 1 0
          1.8 0 0 1.8 1 0 1.825 0 0 1.825 1 0
          1.85 0 0 1.85 1 0 1.875 0 0 1.875 1 0
          1.9 0 0 1.9 1 0 1.925 0 0 1.925 1 0
          1.95 0 0 1.95 1 0 1.975 0 0 1.975 1 0
          2 0 0 2 1 0 2.025 0 0 2.025 1 0
          2.05 0 0 2.05 1 0 2.075 0 0 2.075 1 0
          2.1 0 0 2.1 1 0 2.125 0 0 2.125 1 0
          2.15 0 0 2.15 1 0 2.175 0 0 2.175 1 0
          2.2 0 0 2.2 1 0 2.225 0 0 2.225 1 0
          2.25 0 0 2.25 1 0 2.275 0 0 2.275 1 0
          2.3 0 0 2.3 1 0 2.325 0 0 2.325 1 0
          2.35 0 0 2.35 1 0 2.375 0 0 2.375 1 0
          2.4 0 0 2.4 1 0 2.425 0 0 2.425 1 0
          2.45 0 0 2.45 1 0 2.475 0 0 2.475 1 0
          2.5 0 0 2.5 1 0 2.525 0 0 2.525 1 0
          2.55 0 0 2.55 1 0 2.575 0 0 2.575 1 0
          2.6 0 0 2.6 1 0 2.625 0 0 2.625 1 0
          2.65 0 0 2.65 1 0 2.675 0 0 2.675 1 0
          2.7 0 0 2.7 1 0 2.725 0 0 2.725 1 0
          2.75 0 0 2.75 1 0 2.775 0 0 2.775 1 0
          2.8 0 0 2.8 1 0 2.825 0 0 2.825 1 0
          2.85 0 0 2.85 1 0 2.875 0 0 2.875 1 0
          2.9 0 0 2.9 1 0 2.925 0 0 2.925 1 0
          2.95 0 0 2.95 1 0 2.975 0 0 2.975 1 0
          3 0 0 3 1 0 3.025 0 0 3.025 1 0
          3.05 0 0 3.05 1 0 3.075 0 0 3.075 1 0
          3.1 0 0 3.1 1 0 3.125 0 0 3.125 1 0
          3.15 0 0 3.15 1 0 3.175 0 0 3.175 1 0
          3.2 0 0 3.2 1 0 3.225 0 0 3.225 1 0
          3.25 0 0 3.25 1 0 3.275 0 0 3.275 1 0
          3.3 0 0 3.3 1 0 3.325 0 0 3.325 1 0
          3.35 0 0 3.35 1 0 3.375 0 0 3.375 1 0
          3.4 0 0 3.4 1 0 3.425 0 0 3.425 1 0
          3.45 0 0 3.45 1 0 3.475 0 0 3.475 1 0
          3.5 0 0 3.5 1 0 3.525 0 0 3.525 1 0
          3.55 0 0 3.55 1 0 3.575 0 0 3.575 1 0
          3.6 0 0 3.6 1 0 3.625 0 0 3.625 1 0
          3.65 0 0 3.65 1 0 3.675 0 0 3.675 1 0
          3.7 0 0 3.7 1 0 3.725 0 0 3.725 1 0
          3.75 0 0 3.75 1 0 3.775 0 0 3.775 1 0
          3.8 0 0 3.8 1 0 3.825 0 0 3.825 1 0
          3.85 0 0 3.85 1 0 3.875 0 0 3.875 1 0
          3.9 0 0 3.9 1 0 3.925 0 0 3.925 1 0
          3.95 0 0 3.95 1 0 3.975 0 0 3.975 1 0
          4 0 0 4 1 0 4.025 0 0 4.025 1 0
          4.05 0 0 4.05 1 0 4.075 0 0 4.075 1 0
          4.1 0 0 4.1 1 0 4.125 0 0 4.125 1 0
          4.15 0 0 4.15 1 0 4.175 0 0 4.175 1 0
          4.2 0 0 4.2 1 0 4.225 0 0 4.225 1 0
          4.25 0 0 4.25 1 0 4.275 0 0 4.275 1 0
          4.3 0 0 4.3 1 0 4.325 0 0 4.325 1 0
          4.35 0 0 4.35 1 0 4.375 0 0 4.375 1 0
          4.4 0 0 4.4 1 0 4.425 0 0 4.425 1 0
          4.45 0 0 4.45 1 0 4.475 0 0 4.475 1 0
          4.5 0 0 4.5 1 0 4.525 0 0 4.525 1 0
          4.55 0 0 4.55 1 0 4.575 0 0 4.575 1 0
          4.6 0 0 4.6 1 0 4.625 0 0 4.625 1 0
          4.65 0 0 4.65 1 0 4.675 0 0 4.675 1 0
          4.7 0 0 4.7 1 0 4.725 0 0 4.725 1 0
          4.75 0 0 4.75 1 0 4.775 0 0 4.775 1 0
          4.8 0 0 4.8 1 0 4.825 0 0 4.825 1 0
          4.85 0 0 4.85 1 0 4.875 0 0 4.875 1 0
          4.9 0 0 4.9 1 0 4.925 0 0 4.925 1 0
          4.95 0 0 4.95 1 0 4.975 0 0 4.975 1 0
          5 0 0 5 1 0
        </DataArray>
      </Points>
      <Cells>
        <DataArray type="Int32" Name="connectivity" NumberOfComponents="1" format="ascii">
          0 1 3 2 1 4 5 3 4 6 7 5
          6 8 9 7 8 10 11 9 10 12 13 11
          12 14 15 13 14 16 17 15 16 18 19 17
          18 20 21 19 20 22 23 21 22 24 25 23
          24 26 27 25 26 28 29 27 28 30 31 29
          30 32 33 31 32 34 35 33 34 36 37 35
          36 38 39 37 38 40 41 39 40 42 43 41
          42 44 45 43 44 46 47 45 46 48 49 47
          48 50 51 49 50 52 53 51 52 54 55 53
          54 56 57 55 56 58 59 57 58 60 61 59
          60 62 63 61 62 64 65 63 64 66 67 65
          66 68 69 67 68 70 71 69 70 72 73 71
          72 74 75 73 74 76 77 75 76 78 79 77
          78 80 81 79 80 82 83 81 82 84 85 83
          84 86 87 85 86 88 89 87 88 90 91 89
          90 92 93 91 92 94 95 93 94 96 97 95
          96 98 99 97 98 100 101 99 100 102 103 101
          102 104 105 103 104 106 107 105 106 108 109 107
          108 110 111 109 110 112 113 111 112 114 115 113
          114 116 117 115 116 118 119 117 118 120 121 119
          120 122 123 121 122 124 125 123 124 126 127 125
          126 128 129 127 128 130 131 129 130 132 133 131
          132 134 135 133 134 136 137 135 136 138 139 137
          138 140 141 139 140 142 143 141 142 144 145 143
          144 146 147 145 146 148 149 147 148 150 151 149
          150 152 153 151 152 154 155 153 154 156 157 155
          156 158 159 157 158 160 161 159 160 162 163 161
          162 164 165 163 164 166 167 165 166 168 169 167
          168 170 171 169 170 172 173 171 172 174 175 173
          174 176 177 175 176 178 179 177 178 180 181 179
          180 182 183 181 182 184 185 183 184 186 187 185
          186 188 189 187 188 190 191 189 190 192 193 191
          192 194 195 193 194 196 197 195 196 198 199 197
          198 200 201 199 200 202 203 201 202 204 205 203
          204 206 207 205 206 208 209 207 208 210 211 209
          210 212 213 211 212 214 215 213 214 216 217 215
          216 218 219 217 218 220 221 219 220 222 223 221
          222 224 225 223 224 226 227 225 226 228 229 227
          228 230 231 229 230 232 233 231 232 234 235 233
          234 236 237 235 236 238 239 237 238 240 241 239
          240 242 243 241 242 244 245 243 244 246 247 245
          246 248 249 247 248 250 251 249 250 252 253 251
          252 254 255 253 254 256 257 255 256 258 259 257
          258 260 261 259 260 262 263 261 262 264 265 263
          264 266 267 265 266 268 269 267 268 270 271 269
          270 272 273 271 272 274 275 273 274 276 277 275
          276 278 279 277 278 280 281 279 280 282 283 281
          282 284 285 283 284 286 287 285 286 288 289 287
          288 290 291 289 290 292 293 291 292 294 295 293
          294 296 297 295 296 298 299 297 298 300 301 299
          300 302 303 301 302 304 305 303 304 306 307 305
          306 308 309 307 308 310 311 309 310 312 313 311
          312 314 315 313 314 316 317 315 316 318 319 317
          318 320 321 319 320 322 323 321 322 324 325 323
          324 326 327 325 326 328 329 327 328 330 331 329
          330 332 333 331 332 334 335 333 334 336 337 335
          336 338 339 337 338 340 341 339 340 342 343 341
          342 344 345 343 344 346 347 345 346 348 349 347
          348 350 351 349 350 352 353 351 352 354 355 353
          354 356 357 355 356 358 359 357 358 360 361 359
          360 362 363 361 362 364 365 363 364 366 367 365
          366 368 369 367 368 370 371 369 370 372 373 371
          372 374 375 373 374 376 377 375 376 378 379 377
          378 380 381 379 380 382 383 381 382 384 385 383
          384 386 387 385 386 388 389 387 388 390 391 389
          390 392 393 391 392 394 395 393 394 396 397 395
          396 398 399 397 398 400 401 399
        </DataArray>
        <DataArray type="Int32" Name="offsets" NumberOfComponents="1" format="ascii">
          4 8 12 16 20 24 28 32 36 40 44 48
          52 56 60 64 68 72 76 80 84 88 92 96
          100 104 108 112 116 120 124 128 132 136 140 144
          148 152 156 160 164 168 172 176 180 184 188 192
          196 200 204 208 212 216 220 224 228 232 236 240
          244 248 252 256 260 264 268 272 276 280 284 288
          292 296 300 304 308 312 316 320 324 328 332 336
          340 344 348 352 356 360 364 368 372 376 380 384
          388 392 396 400 404 408 412 416 420 424 428 432
          436 440 444 448 452 456 460 464 468 472 476 480
          484 488 492 496 500 504 508 512 516 520 524 528
          532 536 540 544 548 552 556 560 564 568 572 576
          580 584 588 592 596 600 604 608 612 616 620 624
          628 632 636 640 644 648 652 656 660 664 668 672
          676 680 684 688 692 696 700 704 708 712 716 720
          724 728 732 736 740 744 748 752 756 760 764 768
          772 776 780 784 788 792 796 800
        </DataArray>
        <DataArray type="UInt8" Name="types" NumberOfComponents="1" format="ascii">
          9 9 9 9 9 9 9 9 9 9 9 9
          9 9 9 9 9 9 9 9 9 9 9 9
          9 9 9 9 9 9 9 9 9 9 9 9
          9 9 9 9 9 9 9 9 9 9 9 9
          9 9 9 9 9 9 9 9 9 9 9 9
          9 9 9 9 9 9 9 9 9 9 9 9
          9 9 9 9 9 9 9 9 9 9 9 9
          9 9 9 9 9 9 9 9 9 9 9 9
          9 9 9 9 9 9 9 9 9 9 9 9
          9 9 9 9 9 9 9 9 9 9 9 9
          9 9 9 9 9 9 9 9 9 9 9 9
          9 9 9 9 9 9 9 9 9 9 9 9
          9 9 9 9 9 9 9 9 9 9 9 9
          9 9 9 9 9 9 9 9 9 9 9 9
          9 9 9 9 9 9 9 9 9 9 9 9
          9 9 9 9 9 9 9 9 9 9 9 9
          9 9 9 9 9 9 9 9
        </DataArray>
      </Cells>
    </Piece>
  </UnstructuredGrid>
</VTKFile>
