<?xml version="1.0"?>
<VTKFile type="UnstructuredGrid" version="0.1" byte_order="LittleEndian">
  <UnstructuredGrid>
    <Piece NumberOfCells="484" NumberOfPoints="533">
      <CellData Scalars="S_liq">
        <DataArray type="Float32" Name="S_liq" NumberOfComponents="1" format="ascii">
          1 1 1 1 1 1 1 1 1 1 1 1
          1 1 1 1 1 1 1 1 1 1 1 1
          1 1 1 1 1 1 1 0.999999 0.999999 1 1 1
          1 1 1 1 1 1 1 1 1 1 1 0.999987
          0.99966 0.99966 0.999987 1 1 1 1 1 1 1 1 1
          1 1 1 1 1 0.999924 0.998476 0.993011 0.993011 0.998476 0.999924 1
          1 1 1 1 1 1 1 1 1 1 1 1
          1 0.999805 0.996612 0.986503 0.972557 0.972557 0.986503 0.996612 0.999805 1 1 1
          1 1 1 1 1 1 1 1 1 0.999999 0.999704 0.994928
          0.981169 0.963684 0.94691 0.94691 0.963684 0.981169 0.994928 0.999704 0.999999 1 1 1
          1 1 1 1 1 1 1 1 0.999704 0.994259 0.978284 0.958373
          0.939272 0.921402 0.921402 0.939272 0.958373 0.978284 0.994259 0.999704 1 1 1 1
          1 1 1 1 1 1 1 0.999805 0.994928 0.978284 0.956614 0.935527
          0.91537 0.895143 0.895143 0.91537 0.935527 0.956614 0.978284 0.994928 0.999805 1 1 1
          1 1 1 1 1 1 0.999924 0.996612 0.981169 0.958373 0.935527 0.913367
          0.890541 0.864847 0.864847 0.890541 0.913367 0.935527 0.958373 0.981169 0.996612 0.999924 1 1
          1 1 1 1 1 0.999987 0.998476 0.986503 0.963684 0.939272 0.91537 0.890541
          0.861839 0.823692 0.823692 0.861839 0.890541 0.91537 0.939272 0.963684 0.986503 0.998476 0.999987 1
          1 1 1 1 0.999999 0.99966 0.993011 0.972557 0.94691 0.921402 0.895143 0.864847
          0.823692 0.751826 0.751826 0.823692 0.864847 0.895143 0.921402 0.94691 0.972557 0.993011 0.99966 0.999999
          1 1 1 1 0.999999 0.99966 0.993011 0.972557 0.94691 0.921402 0.895143 0.864847
          0.823692 0.751826 0.751826 0.823692 0.864847 0.895143 0.921402 0.94691 0.972557 0.993011 0.99966 0.999999
          1 1 1 1 1 0.999987 0.998476 0.986503 0.963684 0.939272 0.91537 0.890541
          0.861839 0.823692 0.823692 0.861839 0.890541 0.91537 0.939272 0.963684 0.986503 0.998476 0.999987 1
          1 1 1 1 1 1 0.999924 0.996612 0.981169 0.958373 0.935527 0.913367
          0.890541 0.864847 0.864847 0.890541 0.913367 0.935527 0.958373 0.981169 0.996612 0.999924 1 1
          1 1 1 1 1 1 1 0.999805 0.994928 0.978284 0.956614 0.935527
          0.91537 0.895143 0.895143 0.91537 0.935527 0.956614 0.978284 0.994928 0.999805 1 1 1
          1 1 1 1 1 1 1 1 0.999704 0.994259 0.978284 0.958373
          0.939272 0.921402 0.921402 0.939272 0.958373 0.978284 0.994259 0.999704 1 1 1 1
          1 1 1 1 1 1 1 0.999999 0.999704 0.994928 0.981169 0.963684
          0.94691 0.94691 0.963684 0.981169 0.994928 0.999704 0.999999 1 1 1 1 1
          1 1 1 1 1 1 1 0.999805 0.996612 0.986503 0.972557 0.972557
          0.986503 0.996612 0.999805 1 1 1 1 1 1 1 1 1
          1 1 1 1 1 0.999924 0.998476 0.993011 0.993011 0.998476 0.999924 1
          1 1 1 1 1 1 1 1 1 1 1 1
          1 0.999987 0.99966 0.99966 0.999987 1 1 1 1 1 1 1
          1 1 1 1 1 1 1 0.999999 0.999999 1 1 1
          1 1 1 1 1 1 1 1 1 1 1 1
          1 1 1 1 1 1 1 1 1 1 1 1
          1 1 1 1
        </DataArray>
        <DataArray type="Float32" Name="p_liq" NumberOfComponents="1" format="ascii">
          3.46906e+06 3.56478e+06 3.64053e+06 3.69313e+06 3.7201e+06 3.7201e+06 3.69313e+06 3.64053e+06 3.56478e+06 3.46906e+06 3.4661e+06 3.61024e+06
          3.7408e+06 3.85346e+06 3.94364e+06 4.00683e+06 4.03939e+06 4.03939e+06 4.00683e+06 3.94364e+06 3.85346e+06 3.7408e+06 3.61024e+06 3.4661e+06
          3.53481e+06 3.71049e+06 3.87723e+06 4.03042e+06 4.16464e+06 4.27372e+06 4.35118e+06 4.39124e+06 4.39124e+06 4.35118e+06 4.27372e+06 4.16464e+06
          4.03042e+06 3.87723e+06 3.71049e+06 3.53481e+06 3.55826e+06 3.7626e+06 3.96382e+06 4.15775e+06 4.33903e+06 4.50095e+06 4.63542e+06 4.73308e+06
          4.78504e+06 4.78504e+06 4.73308e+06 4.63542e+06 4.50095e+06 4.33903e+06 4.15775e+06 3.96382e+06 3.7626e+06 3.55826e+06 3.53481e+06 3.7626e+06
          3.99352e+06 4.22444e+06 4.45093e+06 4.66698e+06 4.86472e+06 5.03454e+06 5.1676e+06 5.25086e+06 5.25086e+06 5.1676e+06 5.03454e+06 4.86472e+06
          4.66698e+06 4.45093e+06 4.22444e+06 3.99352e+06 3.7626e+06 3.53481e+06 3.4661e+06 3.71049e+06 3.96382e+06 4.22444e+06 4.4895e+06 4.75456e+06
          5.01325e+06 5.25789e+06 5.48466e+06 5.68164e+06 5.80612e+06 5.80612e+06 5.68164e+06 5.48466e+06 5.25789e+06 5.01325e+06 4.75456e+06 4.4895e+06
          4.22444e+06 3.96382e+06 3.71049e+06 3.4661e+06 3.61024e+06 3.87723e+06 4.15775e+06 4.45093e+06 4.75456e+06 5.06456e+06 5.37589e+06 5.69016e+06
          5.9954e+06 6.23925e+06 6.37458e+06 6.37458e+06 6.23925e+06 5.9954e+06 5.69016e+06 5.37589e+06 5.06456e+06 4.75456e+06 4.45093e+06 4.15775e+06
          3.87723e+06 3.61024e+06 3.46906e+06 3.7408e+06 4.03042e+06 4.33903e+06 4.66698e+06 5.01325e+06 5.37589e+06 5.761e+06 6.15849e+06 6.50798e+06
          6.76032e+06 6.89307e+06 6.89307e+06 6.76032e+06 6.50798e+06 6.15849e+06 5.761e+06 5.37589e+06 5.01325e+06 4.66698e+06 4.33903e+06 4.03042e+06
          3.7408e+06 3.46906e+06 3.56478e+06 3.85346e+06 4.16464e+06 4.50095e+06 4.86472e+06 5.25789e+06 5.69016e+06 6.15849e+06 6.59907e+06 6.9573e+06
          7.21134e+06 7.34713e+06 7.34713e+06 7.21134e+06 6.9573e+06 6.59907e+06 6.15849e+06 5.69016e+06 5.25789e+06 4.86472e+06 4.50095e+06 4.16464e+06
          3.85346e+06 3.56478e+06 3.64053e+06 3.94364e+06 4.27372e+06 4.63542e+06 5.03454e+06 5.48466e+06 5.9954e+06 6.50798e+06 6.9573e+06 7.32029e+06
          7.58726e+06 7.73959e+06 7.73959e+06 7.58726e+06 7.32029e+06 6.9573e+06 6.50798e+06 5.9954e+06 5.48466e+06 5.03454e+06 4.63542e+06 4.27372e+06
          3.94364e+06 3.64053e+06 3.69313e+06 4.00683e+06 4.35118e+06 4.73308e+06 5.1676e+06 5.68164e+06 6.23925e+06 6.76032e+06 7.21134e+06 7.58726e+06
          7.88308e+06 8.07397e+06 8.07397e+06 7.88308e+06 7.58726e+06 7.21134e+06 6.76032e+06 6.23925e+06 5.68164e+06 5.1676e+06 4.73308e+06 4.35118e+06
          4.00683e+06 3.69313e+06 3.7201e+06 4.03939e+06 4.39124e+06 4.78504e+06 5.25086e+06 5.80612e+06 6.37458e+06 6.89307e+06 7.34713e+06 7.73959e+06
          8.07397e+06 8.34321e+06 8.34321e+06 8.07397e+06 7.73959e+06 7.34713e+06 6.89307e+06 6.37458e+06 5.80612e+06 5.25086e+06 4.78504e+06 4.39124e+06
          4.03939e+06 3.7201e+06 3.7201e+06 4.03939e+06 4.39124e+06 4.78504e+06 5.25086e+06 5.80612e+06 6.37458e+06 6.89307e+06 7.34713e+06 7.73959e+06
          8.07397e+06 8.34321e+06 8.34321e+06 8.07397e+06 7.73959e+06 7.34713e+06 6.89307e+06 6.37458e+06 5.80612e+06 5.25086e+06 4.78504e+06 4.39124e+06
          4.03939e+06 3.7201e+06 3.69313e+06 4.00683e+06 4.35118e+06 4.73308e+06 5.1676e+06 5.68164e+06 6.23925e+06 6.76032e+06 7.21134e+06 7.58726e+06
          7.88308e+06 8.07397e+06 8.07397e+06 7.88308e+06 7.58726e+06 7.21134e+06 6.76032e+06 6.23925e+06 5.68164e+06 5.1676e+06 4.73308e+06 4.35118e+06
          4.00683e+06 3.69313e+06 3.64053e+06 3.94364e+06 4.27372e+06 4.63542e+06 5.03454e+06 5.48466e+06 5.9954e+06 6.50798e+06 6.9573e+06 7.32029e+06
          7.58726e+06 7.73959e+06 7.73959e+06 7.58726e+06 7.32029e+06 6.9573e+06 6.50798e+06 5.9954e+06 5.48466e+06 5.03454e+06 4.63542e+06 4.27372e+06
          3.94364e+06 3.64053e+06 3.56478e+06 3.85346e+06 4.16464e+06 4.50095e+06 4.86472e+06 5.25789e+06 5.69016e+06 6.15849e+06 6.59907e+06 6.9573e+06
          7.21134e+06 7.34713e+06 7.34713e+06 7.21134e+06 6.9573e+06 6.59907e+06 6.15849e+06 5.69016e+06 5.25789e+06 4.86472e+06 4.50095e+06 4.16464e+06
          3.85346e+06 3.56478e+06 3.46906e+06 3.7408e+06 4.03042e+06 4.33903e+06 4.66698e+06 5.01325e+06 5.37589e+06 5.761e+06 6.15849e+06 6.50798e+06
          6.76032e+06 6.89307e+06 6.89307e+06 6.76032e+06 6.50798e+06 6.15849e+06 5.761e+06 5.37589e+06 5.01325e+06 4.66698e+06 4.33903e+06 4.03042e+06
          3.7408e+06 3.46906e+06 3.61024e+06 3.87723e+06 4.15775e+06 4.45093e+06 4.75456e+06 5.06456e+06 5.37589e+06 5.69016e+06 5.9954e+06 6.23925e+06
          6.37458e+06 6.37458e+06 6.23925e+06 5.9954e+06 5.69016e+06 5.37589e+06 5.06456e+06 4.75456e+06 4.45093e+06 4.15775e+06 3.87723e+06 3.61024e+06
          3.4661e+06 3.71049e+06 3.96382e+06 4.22444e+06 4.4895e+06 4.75456e+06 5.01325e+06 5.25789e+06 5.48466e+06 5.68164e+06 5.80612e+06 5.80612e+06
          5.68164e+06 5.48466e+06 5.25789e+06 5.01325e+06 4.75456e+06 4.4895e+06 4.22444e+06 3.96382e+06 3.71049e+06 3.4661e+06 3.53481e+06 3.7626e+06
          3.99352e+06 4.22444e+06 4.45093e+06 4.66698e+06 4.86472e+06 5.03454e+06 5.1676e+06 5.25086e+06 5.25086e+06 5.1676e+06 5.03454e+06 4.86472e+06
          4.66698e+06 4.45093e+06 4.22444e+06 3.99352e+06 3.7626e+06 3.53481e+06 3.55826e+06 3.7626e+06 3.96382e+06 4.15775e+06 4.33903e+06 4.50095e+06
          4.63542e+06 4.73308e+06 4.78504e+06 4.78504e+06 4.73308e+06 4.63542e+06 4.50095e+06 4.33903e+06 4.15775e+06 3.96382e+06 3.7626e+06 3.55826e+06
          3.53481e+06 3.71049e+06 3.87723e+06 4.03042e+06 4.16464e+06 4.27372e+06 4.35118e+06 4.39124e+06 4.39124e+06 4.35118e+06 4.27372e+06 4.16464e+06
          4.03042e+06 3.87723e+06 3.71049e+06 3.53481e+06 3.4661e+06 3.61024e+06 3.7408e+06 3.85346e+06 3.94364e+06 4.00683e+06 4.03939e+06 4.03939e+06
          4.00683e+06 3.94364e+06 3.85346e+06 3.7408e+06 3.61024e+06 3.4661e+06 3.46906e+06 3.56478e+06 3.64053e+06 3.69313e+06 3.7201e+06 3.7201e+06
          3.69313e+06 3.64053e+06 3.56478e+06 3.46906e+06
        </DataArray>
        <DataArray type="Float32" Name="rho_liq" NumberOfComponents="1" format="ascii">
          1000 1000 1000 1000 1000 1000 1000 1000 1000 1000 1000 1000
          1000 1000 1000 1000 1000 1000 1000 1000 1000 1000 1000 1000
          1000 1000 1000 1000 1000 1000 1000 1000 1000 1000 1000 1000
          1000 1000 1000 1000 1000 1000 1000 1000 1000 1000 1000 1000
          1000 1000 1000 1000 1000 1000 1000 1000 1000 1000 1000 1000
          1000 1000 1000 1000 1000 1000 1000 1000 1000 1000 1000 1000
          1000 1000 1000 1000 1000 1000 1000 1000 1000 1000 1000 1000
          1000 1000 1000 1000 1000 1000 1000 1000 1000 1000 1000 1000
          1000 1000 1000 1000 1000 1000 1000 1000 1000 1000 1000 1000
          1000 1000 1000 1000 1000 1000 1000 1000 1000 1000 1000 1000
          1000 1000 1000 1000 1000 1000 1000 1000 1000 1000 1000 1000
          1000 1000 1000 1000 1000 1000 1000 1000 1000 1000 1000 1000
          1000 1000 1000 1000 1000 1000 1000 1000 1000 1000 1000 1000
          1000 1000 1000 1000 1000 1000 1000 1000 1000 1000 1000 1000
          1000 1000 1000 1000 1000 1000 1000 1000 1000 1000 1000 1000
          1000 1000 1000 1000 1000 1000 1000 1000 1000 1000 1000 1000
          1000 1000 1000 1000 1000 1000 1000 1000 1000 1000 1000 1000
          1000 1000 1000 1000 1000 1000 1000 1000 1000 1000 1000 1000
          1000 1000 1000 1000 1000 1000 1000 1000 1000 1000 1000 1000
          1000 1000 1000 1000 1000 1000 1000 1000 1000 1000 1000 1000
          1000 1000 1000 1000 1000 1000 1000 1000 1000 1000 1000 1000
          1000 1000 1000 1000 1000 1000 1000 1000 1000 1000 1000 1000
          1000 1000 1000 1000 1000 1000 1000 1000 1000 1000 1000 1000
          1000 1000 1000 1000 1000 1000 1000 1000 1000 1000 1000 1000
          1000 1000 1000 1000 1000 1000 1000 1000 1000 1000 1000 1000
          1000 1000 1000 1000 1000 1000 1000 1000 1000 1000 1000 1000
          1000 1000 1000 1000 1000 1000 1000 1000 1000 1000 1000 1000
          1000 1000 1000 1000 1000 1000 1000 1000 1000 1000 1000 1000
          1000 1000 1000 1000 1000 1000 1000 1000 1000 1000 1000 1000
          1000 1000 1000 1000 1000 1000 1000 1000 1000 1000 1000 1000
          1000 1000 1000 1000 1000 1000 1000 1000 1000 1000 1000 1000
          1000 1000 1000 1000 1000 1000 1000 1000 1000 1000 1000 1000
          1000 1000 1000 1000 1000 1000 1000 1000 1000 1000 1000 1000
          1000 1000 1000 1000 1000 1000 1000 1000 1000 1000 1000 1000
          1000 1000 1000 1000 1000 1000 1000 1000 1000 1000 1000 1000
          1000 1000 1000 1000 1000 1000 1000 1000 1000 1000 1000 1000
          1000 1000 1000 1000 1000 1000 1000 1000 1000 1000 1000 1000
          1000 1000 1000 1000 1000 1000 1000 1000 1000 1000 1000 1000
          1000 1000 1000 1000 1000 1000 1000 1000 1000 1000 1000 1000
          1000 1000 1000 1000 1000 1000 1000 1000 1000 1000 1000 1000
          1000 1000 1000 1000
        </DataArray>
        <DataArray type="Float32" Name="mob_liq" NumberOfComponents="1" format="ascii">
          1000 1000 1000 1000 1000 1000 1000 1000 1000 1000 1000 1000
          1000 1000 1000 1000 1000 1000 1000 1000 1000 1000 1000 1000
          1000 1000 1000 1000 1000 1000 1000 999.97 999.97 1000 1000 1000
          1000 1000 1000 1000 1000 1000 1000 1000 1000 1000 999.997 999.625
          995.151 995.151 999.625 999.997 1000 1000 1000 1000 1000 1000 1000 1000
          1000 1000 1000 1000 999.988 998.516 984.038 946.663 946.663 984.038 998.516 999.988
          1000 1000 1000 1000 1000 1000 1000 1000 1000 1000 1000 1000
          999.974 996.883 969.918 910.577 845.176 845.176 910.577 969.918 996.883 999.974 1000 1000
          1000 1000 1000 1000 1000 1000 1000 1000 1000 999.967 995.66 958.589
          884.14 808.471 745.837 745.837 808.471 884.14 958.589 995.66 999.967 1000 1000 1000
          1000 1000 1000 1000 1000 1000 1000 999.974 995.66 954.332 870.648 787.796
          719.604 662.648 662.648 719.604 787.796 870.648 954.332 995.66 999.974 1000 1000 1000
          1000 1000 1000 1000 1000 1000 999.988 996.883 958.589 870.648 781.13 707.182
          644.639 588.071 588.071 644.639 707.182 781.13 870.648 958.589 996.883 999.988 1000 1000
          1000 1000 1000 1000 1000 999.997 998.516 969.918 884.14 787.796 707.182 638.781
          575.944 512.683 512.683 575.944 638.781 707.182 787.796 884.14 969.918 998.516 999.997 1000
          1000 1000 1000 1000 1000 999.625 984.038 910.577 808.471 719.604 644.639 575.944
          505.733 424.759 424.759 505.733 575.944 644.639 719.604 808.471 910.577 984.038 999.625 1000
          1000 1000 1000 1000 999.97 995.151 946.663 845.176 745.837 662.648 588.071 512.683
          424.759 302.175 302.175 424.759 512.683 588.071 662.648 745.837 845.176 946.663 995.151 999.97
          1000 1000 1000 1000 999.97 995.151 946.663 845.176 745.837 662.648 588.071 512.683
          424.759 302.175 302.175 424.759 512.683 588.071 662.648 745.837 845.176 946.663 995.151 999.97
          1000 1000 1000 1000 1000 999.625 984.038 910.577 808.471 719.604 644.639 575.944
          505.733 424.759 424.759 505.733 575.944 644.639 719.604 808.471 910.577 984.038 999.625 1000
          1000 1000 1000 1000 1000 999.997 998.516 969.918 884.14 787.796 707.182 638.781
          575.944 512.683 512.683 575.944 638.781 707.182 787.796 884.14 969.918 998.516 999.997 1000
          1000 1000 1000 1000 1000 1000 999.988 996.883 958.589 870.648 781.13 707.182
          644.639 588.071 588.071 644.639 707.182 781.13 870.648 958.589 996.883 999.988 1000 1000
          1000 1000 1000 1000 1000 1000 1000 999.974 995.66 954.332 870.648 787.796
          719.604 662.648 662.648 719.604 787.796 870.648 954.332 995.66 999.974 1000 1000 1000
          1000 1000 1000 1000 1000 1000 1000 999.967 995.66 958.589 884.14 808.471
          745.837 745.837 808.471 884.14 958.589 995.66 999.967 1000 1000 1000 1000 1000
          1000 1000 1000 1000 1000 1000 999.974 996.883 969.918 910.577 845.176 845.176
          910.577 969.918 996.883 999.974 1000 1000 1000 1000 1000 1000 1000 1000
          1000 1000 1000 1000 999.988 998.516 984.038 946.663 946.663 984.038 998.516 999.988
          1000 1000 1000 1000 1000 1000 1000 1000 1000 1000 1000 1000
          999.997 999.625 995.151 995.151 999.625 999.997 1000 1000 1000 1000 1000 1000
          1000 1000 1000 1000 1000 1000 1000 999.97 999.97 1000 1000 1000
          1000 1000 1000 1000 1000 1000 1000 1000 1000 1000 1000 1000
          1000 1000 1000 1000 1000 1000 1000 1000 1000 1000 1000 1000
          1000 1000 1000 1000
        </DataArray>
        <DataArray type="Float32" Name="S_gas" NumberOfComponents="1" format="ascii">
          2.88263e-11 2.80523e-11 2.74686e-11 2.70773e-11 2.6881e-11 2.6881e-11 2.70773e-11 2.74686e-11 2.80523e-11 2.88263e-11 2.88509e-11 2.7699e-11
          2.67323e-11 2.59507e-11 2.53574e-11 2.49574e-11 2.55075e-11 2.55075e-11 2.49574e-11 2.53574e-11 2.59507e-11 2.67323e-11 2.7699e-11 2.88509e-11
          2.82901e-11 2.69507e-11 2.57917e-11 2.48113e-11 2.40117e-11 2.34002e-11 6.6858e-10 5.40036e-07 5.40036e-07 6.6858e-10 2.34002e-11 2.40117e-11
          2.48113e-11 2.57917e-11 2.69507e-11 2.82901e-11 2.81037e-11 2.65774e-11 2.52282e-11 2.40515e-11 2.30467e-11 2.22957e-11 2.48571e-08 1.34757e-05
          0.000340063 0.000340063 1.34757e-05 2.48571e-08 2.22957e-11 2.30467e-11 2.40515e-11 2.52282e-11 2.65774e-11 2.81037e-11 2.82901e-11 2.65774e-11
          2.50406e-11 2.36718e-11 2.24672e-11 2.2011e-11 1.78504e-07 7.64635e-05 0.0015243 0.00698875 0.00698875 0.0015243 7.64635e-05 1.78504e-07
          2.2011e-11 2.24672e-11 2.36718e-11 2.50406e-11 2.65774e-11 2.82901e-11 2.88509e-11 2.69507e-11 2.52282e-11 2.36718e-11 2.22742e-11 2.23022e-11
          4.68113e-07 0.000194871 0.00338753 0.0134973 0.0274433 0.0274433 0.0134973 0.00338753 0.000194871 4.68113e-07 2.23022e-11 2.22742e-11
          2.36718e-11 2.52282e-11 2.69507e-11 2.88509e-11 2.7699e-11 2.57917e-11 2.40515e-11 2.24672e-11 2.23022e-11 6.22721e-07 0.000295767 0.00507234
          0.0188307 0.0363162 0.0530901 0.0530901 0.0363162 0.0188307 0.00507234 0.000295767 6.22721e-07 2.23022e-11 2.24672e-11 2.40515e-11
          2.57917e-11 2.7699e-11 2.88263e-11 2.67323e-11 2.48113e-11 2.30467e-11 2.2011e-11 4.68113e-07 0.000295767 0.00574088 0.0217155 0.0416268
          0.0607277 0.0785977 0.0785977 0.0607277 0.0416268 0.0217155 0.00574088 0.000295767 4.68113e-07 2.2011e-11 2.30467e-11 2.48113e-11
          2.67323e-11 2.88263e-11 2.80523e-11 2.59507e-11 2.40117e-11 2.22957e-11 1.78504e-07 0.000194871 0.00507234 0.0217155 0.0433864 0.064473
          0.0846301 0.104857 0.104857 0.0846301 0.064473 0.0433864 0.0217155 0.00507234 0.000194871 1.78504e-07 2.22957e-11 2.40117e-11
          2.59507e-11 2.80523e-11 2.74686e-11 2.53574e-11 2.34002e-11 2.48571e-08 7.64635e-05 0.00338753 0.0188307 0.0416268 0.064473 0.0866333
          0.109459 0.135153 0.135153 0.109459 0.0866333 0.064473 0.0416268 0.0188307 0.00338753 7.64635e-05 2.48571e-08 2.34002e-11
          2.53574e-11 2.74686e-11 2.70773e-11 2.49574e-11 6.6858e-10 1.34757e-05 0.0015243 0.0134973 0.0363162 0.0607277 0.0846301 0.109459
          0.138161 0.176308 0.176308 0.138161 0.109459 0.0846301 0.0607277 0.0363162 0.0134973 0.0015243 1.34757e-05 6.6858e-10
          2.49574e-11 2.70773e-11 2.6881e-11 2.55075e-11 5.40036e-07 0.000340063 0.00698875 0.0274433 0.0530901 0.0785977 0.104857 0.135153
          0.176308 0.248174 0.248174 0.176308 0.135153 0.104857 0.0785977 0.0530901 0.0274433 0.00698875 0.000340063 5.40036e-07
          2.55075e-11 2.6881e-11 2.6881e-11 2.55075e-11 5.40036e-07 0.000340063 0.00698875 0.0274433 0.0530901 0.0785977 0.104857 0.135153
          0.176308 0.248174 0.248174 0.176308 0.135153 0.104857 0.0785977 0.0530901 0.0274433 0.00698875 0.000340063 5.40036e-07
          2.55075e-11 2.6881e-11 2.70773e-11 2.49574e-11 6.6858e-10 1.34757e-05 0.0015243 0.0134973 0.0363162 0.0607277 0.0846301 0.109459
          0.138161 0.176308 0.176308 0.138161 0.109459 0.0846301 0.0607277 0.0363162 0.0134973 0.0015243 1.34757e-05 6.6858e-10
          2.49574e-11 2.70773e-11 2.74686e-11 2.53574e-11 2.34002e-11 2.48571e-08 7.64635e-05 0.00338753 0.0188307 0.0416268 0.064473 0.0866333
          0.109459 0.135153 0.135153 0.109459 0.0866333 0.064473 0.0416268 0.0188307 0.00338753 7.64635e-05 2.48571e-08 2.34002e-11
          2.53574e-11 2.74686e-11 2.80523e-11 2.59507e-11 2.40117e-11 2.22957e-11 1.78504e-07 0.000194871 0.00507234 0.0217155 0.0433864 0.064473
          0.0846301 0.104857 0.104857 0.0846301 0.064473 0.0433864 0.0217155 0.00507234 0.000194871 1.78504e-07 2.22957e-11 2.40117e-11
          2.59507e-11 2.80523e-11 2.88263e-11 2.67323e-11 2.48113e-11 2.30467e-11 2.2011e-11 4.68113e-07 0.000295767 0.00574088 0.0217155 0.0416268
          0.0607277 0.0785977 0.0785977 0.0607277 0.0416268 0.0217155 0.00574088 0.000295767 4.68113e-07 2.2011e-11 2.30467e-11 2.48113e-11
          2.67323e-11 2.88263e-11 2.7699e-11 2.57917e-11 2.40515e-11 2.24672e-11 2.23022e-11 6.22721e-07 0.000295767 0.00507234 0.0188307 0.0363162
          0.0530901 0.0530901 0.0363162 0.0188307 0.00507234 0.000295767 6.22721e-07 2.23022e-11 2.24672e-11 2.40515e-11 2.57917e-11 2.7699e-11
          2.88509e-11 2.69507e-11 2.52282e-11 2.36718e-11 2.22742e-11 2.23022e-11 4.68113e-07 0.000194871 0.00338753 0.0134973 0.0274433 0.0274433
          0.0134973 0.00338753 0.000194871 4.68113e-07 2.23022e-11 2.22742e-11 2.36718e-11 2.52282e-11 2.69507e-11 2.88509e-11 2.82901e-11 2.65774e-11
          2.50406e-11 2.36718e-11 2.24672e-11 2.2011e-11 1.78504e-07 7.64635e-05 0.0015243 0.00698875 0.00698875 0.0015243 7.64635e-05 1.78504e-07
          2.2011e-11 2.24672e-11 2.36718e-11 2.50406e-11 2.65774e-11 2.82901e-11 2.81037e-11 2.65774e-11 2.52282e-11 2.40515e-11 2.30467e-11 2.22957e-11
          2.48571e-08 1.34757e-05 0.000340063 0.000340063 1.34757e-05 2.48571e-08 2.22957e-11 2.30467e-11 2.40515e-11 2.52282e-11 2.65774e-11 2.81037e-11
          2.82901e-11 2.69507e-11 2.57917e-11 2.48113e-11 2.40117e-11 2.34002e-11 6.6858e-10 5.40036e-07 5.40036e-07 6.6858e-10 2.34002e-11 2.40117e-11
          2.48113e-11 2.57917e-11 2.69507e-11 2.82901e-11 2.88509e-11 2.7699e-11 2.67323e-11 2.59507e-11 2.53574e-11 2.49574e-11 2.55075e-11 2.55075e-11
          2.49574e-11 2.53574e-11 2.59507e-11 2.67323e-11 2.7699e-11 2.88509e-11 2.88263e-11 2.80523e-11 2.74686e-11 2.70773e-11 2.6881e-11 2.6881e-11
          2.70773e-11 2.74686e-11 2.80523e-11 2.88263e-11
        </DataArray>
        <DataArray type="Float32" Name="p_gas" NumberOfComponents="1" format="ascii">
          3.46907e+06 3.56478e+06 3.64053e+06 3.69313e+06 3.7201e+06 3.7201e+06 3.69313e+06 3.64053e+06 3.56478e+06 3.46907e+06 3.46611e+06 3.61024e+06
          3.7408e+06 3.85346e+06 3.94364e+06 4.00684e+06 4.03939e+06 4.03939e+06 4.00684e+06 3.94364e+06 3.85346e+06 3.7408e+06 3.61024e+06 3.46611e+06
          3.53481e+06 3.71049e+06 3.87723e+06 4.03042e+06 4.16464e+06 4.27372e+06 4.35118e+06 4.39125e+06 4.39125e+06 4.35118e+06 4.27372e+06 4.16464e+06
          4.03042e+06 3.87723e+06 3.71049e+06 3.53481e+06 3.55826e+06 3.7626e+06 3.96382e+06 4.15775e+06 4.33903e+06 4.50095e+06 4.63542e+06 4.73311e+06
          4.78509e+06 4.78509e+06 4.73311e+06 4.63542e+06 4.50095e+06 4.33903e+06 4.15775e+06 3.96382e+06 3.7626e+06 3.55826e+06 3.53481e+06 3.7626e+06
          3.99353e+06 4.22445e+06 4.45094e+06 4.66698e+06 4.86473e+06 5.03458e+06 5.16767e+06 5.25096e+06 5.25096e+06 5.16767e+06 5.03458e+06 4.86473e+06
          4.66698e+06 4.45094e+06 4.22445e+06 3.99353e+06 3.7626e+06 3.53481e+06 3.46611e+06 3.71049e+06 3.96382e+06 4.22445e+06 4.4895e+06 4.75456e+06
          5.01326e+06 5.25794e+06 5.48474e+06 5.68176e+06 5.80626e+06 5.80626e+06 5.68176e+06 5.48474e+06 5.25794e+06 5.01326e+06 4.75456e+06 4.4895e+06
          4.22445e+06 3.96382e+06 3.71049e+06 3.46611e+06 3.61024e+06 3.87723e+06 4.15775e+06 4.45094e+06 4.75456e+06 5.06457e+06 5.37594e+06 5.69026e+06
          5.99552e+06 6.23939e+06 6.37474e+06 6.37474e+06 6.23939e+06 5.99552e+06 5.69026e+06 5.37594e+06 5.06457e+06 4.75456e+06 4.45094e+06 4.15775e+06
          3.87723e+06 3.61024e+06 3.46907e+06 3.7408e+06 4.03042e+06 4.33903e+06 4.66698e+06 5.01326e+06 5.37594e+06 5.7611e+06 6.15861e+06 6.50813e+06
          6.76048e+06 6.89324e+06 6.89324e+06 6.76048e+06 6.50813e+06 6.15861e+06 5.7611e+06 5.37594e+06 5.01326e+06 4.66698e+06 4.33903e+06 4.03042e+06
          3.7408e+06 3.46907e+06 3.56478e+06 3.85346e+06 4.16464e+06 4.50095e+06 4.86473e+06 5.25794e+06 5.69026e+06 6.15861e+06 6.59922e+06 6.95746e+06
          7.21151e+06 7.34731e+06 7.34731e+06 7.21151e+06 6.95746e+06 6.59922e+06 6.15861e+06 5.69026e+06 5.25794e+06 4.86473e+06 4.50095e+06 4.16464e+06
          3.85346e+06 3.56478e+06 3.64053e+06 3.94364e+06 4.27372e+06 4.63542e+06 5.03458e+06 5.48474e+06 5.99552e+06 6.50813e+06 6.95746e+06 7.32047e+06
          7.58744e+06 7.73978e+06 7.73978e+06 7.58744e+06 7.32047e+06 6.95746e+06 6.50813e+06 5.99552e+06 5.48474e+06 5.03458e+06 4.63542e+06 4.27372e+06
          3.94364e+06 3.64053e+06 3.69313e+06 4.00684e+06 4.35118e+06 4.73311e+06 5.16767e+06 5.68176e+06 6.23939e+06 6.76048e+06 7.21151e+06 7.58744e+06
          7.88328e+06 8.07418e+06 8.07418e+06 7.88328e+06 7.58744e+06 7.21151e+06 6.76048e+06 6.23939e+06 5.68176e+06 5.16767e+06 4.73311e+06 4.35118e+06
          4.00684e+06 3.69313e+06 3.7201e+06 4.03939e+06 4.39125e+06 4.78509e+06 5.25096e+06 5.80626e+06 6.37474e+06 6.89324e+06 7.34731e+06 7.73978e+06
          8.07418e+06 8.34344e+06 8.34344e+06 8.07418e+06 7.73978e+06 7.34731e+06 6.89324e+06 6.37474e+06 5.80626e+06 5.25096e+06 4.78509e+06 4.39125e+06
          4.03939e+06 3.7201e+06 3.7201e+06 4.03939e+06 4.39125e+06 4.78509e+06 5.25096e+06 5.80626e+06 6.37474e+06 6.89324e+06 7.34731e+06 7.73978e+06
          8.07418e+06 8.34344e+06 8.34344e+06 8.07418e+06 7.73978e+06 7.34731e+06 6.89324e+06 6.37474e+06 5.80626e+06 5.25096e+06 4.78509e+06 4.39125e+06
          4.03939e+06 3.7201e+06 3.69313e+06 4.00684e+06 4.35118e+06 4.73311e+06 5.16767e+06 5.68176e+06 6.23939e+06 6.76048e+06 7.21151e+06 7.58744e+06
          7.88328e+06 8.07418e+06 8.07418e+06 7.88328e+06 7.58744e+06 7.21151e+06 6.76048e+06 6.23939e+06 5.68176e+06 5.16767e+06 4.73311e+06 4.35118e+06
          4.00684e+06 3.69313e+06 3.64053e+06 3.94364e+06 4.27372e+06 4.63542e+06 5.03458e+06 5.48474e+06 5.99552e+06 6.50813e+06 6.95746e+06 7.32047e+06
          7.58744e+06 7.73978e+06 7.73978e+06 7.58744e+06 7.32047e+06 6.95746e+06 6.50813e+06 5.99552e+06 5.48474e+06 5.03458e+06 4.63542e+06 4.27372e+06
          3.94364e+06 3.64053e+06 3.56478e+06 3.85346e+06 4.16464e+06 4.50095e+06 4.86473e+06 5.25794e+06 5.69026e+06 6.15861e+06 6.59922e+06 6.95746e+06
          7.21151e+06 7.34731e+06 7.34731e+06 7.21151e+06 6.95746e+06 6.59922e+06 6.15861e+06 5.69026e+06 5.25794e+06 4.86473e+06 4.50095e+06 4.16464e+06
          3.85346e+06 3.56478e+06 3.46907e+06 3.7408e+06 4.03042e+06 4.33903e+06 4.66698e+06 5.01326e+06 5.37594e+06 5.7611e+06 6.15861e+06 6.50813e+06
          6.76048e+06 6.89324e+06 6.89324e+06 6.76048e+06 6.50813e+06 6.15861e+06 5.7611e+06 5.37594e+06 5.01326e+06 4.66698e+06 4.33903e+06 4.03042e+06
          3.7408e+06 3.46907e+06 3.61024e+06 3.87723e+06 4.15775e+06 4.45094e+06 4.75456e+06 5.06457e+06 5.37594e+06 5.69026e+06 5.99552e+06 6.23939e+06
          6.37474e+06 6.37474e+06 6.23939e+06 5.99552e+06 5.69026e+06 5.37594e+06 5.06457e+06 4.75456e+06 4.45094e+06 4.15775e+06 3.87723e+06 3.61024e+06
          3.46611e+06 3.71049e+06 3.96382e+06 4.22445e+06 4.4895e+06 4.75456e+06 5.01326e+06 5.25794e+06 5.48474e+06 5.68176e+06 5.80626e+06 5.80626e+06
          5.68176e+06 5.48474e+06 5.25794e+06 5.01326e+06 4.75456e+06 4.4895e+06 4.22445e+06 3.96382e+06 3.71049e+06 3.46611e+06 3.53481e+06 3.7626e+06
          3.99353e+06 4.22445e+06 4.45094e+06 4.66698e+06 4.86473e+06 5.03458e+06 5.16767e+06 5.25096e+06 5.25096e+06 5.16767e+06 5.03458e+06 4.86473e+06
          4.66698e+06 4.45094e+06 4.22445e+06 3.99353e+06 3.7626e+06 3.53481e+06 3.55826e+06 3.7626e+06 3.96382e+06 4.15775e+06 4.33903e+06 4.50095e+06
          4.63542e+06 4.73311e+06 4.78509e+06 4.78509e+06 4.73311e+06 4.63542e+06 4.50095e+06 4.33903e+06 4.15775e+06 3.96382e+06 3.7626e+06 3.55826e+06
          3.53481e+06 3.71049e+06 3.87723e+06 4.03042e+06 4.16464e+06 4.27372e+06 4.35118e+06 4.39125e+06 4.39125e+06 4.35118e+06 4.27372e+06 4.16464e+06
          4.03042e+06 3.87723e+06 3.71049e+06 3.53481e+06 3.46611e+06 3.61024e+06 3.7408e+06 3.85346e+06 3.94364e+06 4.00684e+06 4.03939e+06 4.03939e+06
          4.00684e+06 3.94364e+06 3.85346e+06 3.7408e+06 3.61024e+06 3.46611e+06 3.46907e+06 3.56478e+06 3.64053e+06 3.69313e+06 3.7201e+06 3.7201e+06
          3.69313e+06 3.64053e+06 3.56478e+06 3.46907e+06
        </DataArray>
        <DataArray type="Float32" Name="rho_gas" NumberOfComponents="1" format="ascii">
          23.64 24.2922 24.8084 25.1669 25.3507 25.3507 25.1669 24.8084 24.2922 23.64 23.6198 24.602
          25.4917 26.2595 26.8739 27.3046 27.5264 27.5264 27.3046 26.8739 26.2595 25.4917 24.602 23.6198
          24.088 25.2852 26.4214 27.4653 28.38 29.1233 29.6512 29.9242 29.9242 29.6512 29.1233 28.38
          27.4653 26.4214 25.2852 24.088 24.2478 25.6403 27.0115 28.333 29.5683 30.6718 31.5881 32.2538
          32.608 32.608 32.2538 31.5881 30.6718 29.5683 28.333 27.0115 25.6403 24.2478 24.088 25.6403
          27.2139 28.7875 30.3309 31.8032 33.1508 34.3082 35.2151 35.7827 35.7827 35.2151 34.3082 33.1508
          31.8032 30.3309 28.7875 27.2139 25.6403 24.088 23.6198 25.2852 27.0115 28.7875 30.5937 32.4
          34.1629 35.8302 37.3758 38.7184 39.5668 39.5668 38.7184 37.3758 35.8302 34.1629 32.4 30.5937
          28.7875 27.0115 25.2852 23.6198 24.602 26.4214 28.333 30.3309 32.4 34.5125 36.6344 38.7763
          40.8565 42.5184 43.4407 43.4407 42.5184 40.8565 38.7763 36.6344 34.5125 32.4 30.3309 28.333
          26.4214 24.602 23.64 25.4917 27.4653 29.5683 31.8032 34.1629 36.6344 39.259 41.9679 44.3497
          46.0694 46.974 46.974 46.0694 44.3497 41.9679 39.259 36.6344 34.1629 31.8032 29.5683 27.4653
          25.4917 23.64 24.2922 26.2595 28.38 30.6718 33.1508 35.8302 38.7763 41.9679 44.9704 47.4117
          49.1429 50.0683 50.0683 49.1429 47.4117 44.9704 41.9679 38.7763 35.8302 33.1508 30.6718 28.38
          26.2595 24.2922 24.8084 26.8739 29.1233 31.5881 34.3082 37.3758 40.8565 44.3497 47.4117 49.8854