<?xml version="1.0"?>
<VTKFile type="PolyData" version="0.1" byte_order="LittleEndian">
  <PolyData>
    <Piece NumberOfLines="1738" NumberOfPoints="1739">
      <CellData Scalars="p">
        <DataArray type="Float32" Name="p" NumberOfComponents="1" format="ascii">
          19306.9 19575.8 19640.4 19704 19766.8 19828.9 19890.4 19953.6 20018.5 20083 20147 20212.1
          20278.1 20343.7 20408.9 20473.6 20537.9 20601.8 20664.4 20725.8 20786.8 20847.3 20903.8 20956.1
          21008 21059.7 21111 21155.9 21194.4 21232.6 21270.4 21310.5 21352.8 21394.7 21436.2 21477.3
          21515.1 21549.6 21583.7 21617.5 21650.9 21683.9 21716.5 21748.8 21780.6 21812.1 21843.2 21874
          21904.3 21935.5 21967.5 21999.1 22030.3 22061.7 22093.1 22124.2 22154.7 22184.8 22213.3 22240.4
          22267.1 22293.4 22321.2 22350.4 22379.2 22407.6 22435.6 22463.2 22490.4 22517.6 22544.9 22571.8
          22598.2 22624.1 22649.6 22674.3 22698.3 22721.7 22744.7 22766.5 22787 22807.1 22826.7 22842.6
          22854.9 22866.9 22878.5 22893 22910.2 22927 22943.4 22959.3 22974.9 22991.6 23009.4 23026.7
          23043.6 23060 23075.4 23089.9 23103.9 23117.6 23130.1 23141.7 23153 23163.9 23175.7 23188.4
          23200.5 23212.1 23223.1 21920.5 21922.7 21924.7 21926.4 21929.2 21933 21936.7 21940.1 21918.8
          21917.3 21915.6 21914.9 21915.4 21143.1 21156 21168.7 21181.3 21193.7 21205.8 21217.7 21229.6
          21241.4 21252.9 21264 21274.8 21286.1 21297.9 21309.5 21320.2 21330.1 21339.7 21349.1 21359.3
          21370.4 21380.5 21389.6 21398.6 21407.3 21417.6 21429.3 21440.8 21450.2 21457.4 21464.4 21471.3
          21479.6 21489.5 21499 21509.5 21520.9 21532 21542.9 21553.3 21563.4 21573.3 21583 21592.5
          21601.8 19764.9 20161 20509.8 20857.6 21204.3 21554.8 21908.9 22262 22575.6 22849.8 23123.6
          23414.9 23723.4 24031 24192.6 24208.6 24223.9 24238.9 24250.3 24258.2 24265.9 24273.5 24282.7
          24293.3 24303.8 24312.8 24320.3 24327.8 24335.2 24342.5 24349.8 24356.9 24362.8 24367.6 24372.3
          24376.1 24378.9 24381.7 24384.1 24386.2 24388.2 24390.3 24392.4 24394.4 24397.3 24401.2 24405
          24409.3 24414.1 24418.7 24324.7 24604.7 24883.8 25162.1 25410.6 25629.3 25847.4 26065 26282.2
          26479.3 26656.4 26832.9 27008.6 27183.6 27358.1 27522.9 27678.2 27833 27987 28140.4 28293
          28445.1 28571.2 28671.4 28771 28870 28968.4 29066.2 29163.5 29260.1 29356.1 29445.1 29527.2
          29608.8 29689.8 29770.4 29850.5 29930 30008.9 30087.3 30165.2 30242.4 30314.7 30382.2 30449.2
          30515.7 30581.6 30647.1 30697 30731.4 30765.3 30798.9 30832.1 30859.6 30881.4 30902.8 30923.7
          30944.1 30964 30983.5 31002.5 31021.1 31039.2 31056.9 31074.2 31090.6 31106.3 31121.6 31136.4
          31151 31165.1 31179 31192.5 31206 31219.4 31232.6 31245.4 31257.9 31270 31281.9 31292.8
          31302.9 31312.7 31322.2 31331.5 31340.6 30851.8 30858.3 30864.5 30870.5 30876.4 30884.5 30894.9
          30905 30914.4 30923 30931.4 30939.9 30948.5 30957 30966.2 30976.2 30986.1 30855.3 30868.7
          30881.8 30894.8 30909.2 30925 30940.7 30957.3 30974.8 30992.2 31009.3 31026.2 31042.9 31058.5
          31073.2 31087.7 31102 31116.1 31126.3 31132.6 31138.7 31144.6 31150.4 31158.6 31169.3 31179.8
          31190.2 31199.3 31207.2 31214.9 31222.4 31229.8 31237.7 31246 31254.2 31262.2 31270.2 31278.9
          31288.4 31297.8 31307 31316 31324.8 31333.5 31157.1 31164.8 31172.4 31180.7 31189.5 31198.2
          31203.7 31206.1 31208.3 31210.5 31209.6 31205.7 31201.6 31197.5 30693.3 30720.4 30743.7 30763.4
          30783.1 30803.2 30823.7 30844.1 30868 30895.4 30922.6 30939.5 30946.1 30952.1 30957.5 30962.8
          30968 30975.7 30985.9 30999.6 31016.8 31033.8 31049 31062.5 31075.8 31089 31098.4 31104.2
          31109.8 31115.9 31122.4 31128.4 31133.9 31139.4 31144.7 31150 31158.4 31170 31181.5 31193.3
          31205.4 31217.4 31229.2 31240.9 31253.9 31268.3 31282.5 31295.8 31308.3 31321.2 31334.5 31347.5
          31360.3 31372.4 31383.7 31394.9 31405.9 31416.7 31427.3 31437.7 31447.9 31457.9 31467.6 31476.8
          31485.9 31494.9 31503.8 30944.2 30960.3 30976.2 30991.9 31007.7 31023.6 31038.6 31052.6 31066.5
          31080.3 31093.9 31109.6 31127.3 31144.9 31162.3 31181.2 31201.6 31221.6 31242.3 31263.5 31284.5
          31304.2 31322.6 31340.7 31358.1 31374.8 31391.3 31409.3 31428.7 31447.9 31466.7 31485.3 31503.5
          31520.1 31535 31549.7 31564.2 31575.5 31583.5 31591.4 31599 31607.9 31618 31628 31636.7
          31644.4 31651.8 31659 31576.9 31587.8 31598.5 31609.1 31618.5 31626.8 31634.9 31643 31650.9
          31655.5 31656.9 31658.1 31659.2 31661.8 31665.8 31669.7 31676.5 31686 31695.5 31704.9 31658.4
          31665.6 31672.8 31680.2 31688 31695.5 31702.8 31708 31711 31714 31716.8 31722.2 31730.1
          31616.1 31619.5 31625.1 31632.1 31638.5 31644.8 31651.1 31656.2 31660.2 31664.1 30284.6 30291.9
          30298.9 30305.3 30311.3 30317.1 30322.8 30328.4 30334 30339.5 30344.9 30352.8 30363 30373.1
          30383.4 30393.9 30399.2 30399.5 30399.6 30399.7 30404.6 30415.5 30426.2 30436.7 30447.1 30457.4
          30467.5 30477.5 30487.3 30283.7 30289.1 30294.1 30298.7 30302.7 30306.6 30310.4 30314.1 30317.3
          30320.1 30322.8 30325.4 30329.5 30335.1 30340.5 30345.7 30353.6 30364.1 30369.6 30370.2 30370.7
          30370.8 30373.5 30376.3 30378.4 30379.9 30381.2 30382.5 30382.8 30382.2 30381.5 30380.6 30379.7
          30378.7 30325.4 30322.8 30320.1 30317.3 30314.4 29732.8 29737.8 29742.4 29746.3 29749.3 29752.3
          29756.1 29760.8 29765.3 29769.7 29775 29781.1 29787.1 29792.9 29800.1 29808.7 29817.1 29825.3
          29831.8 29836.7 29841.4 29845.9 29850.7 29855.8 29860.7 29865.6 29867.9 29867.9 29867.7 29867.4
          29407.4 29414.3 29420.8 29427.1 29434 29441.5 29448.8 29455.1 29460.5 29465.7 29469.1 29470.7
          29472.1 29473.4 29473.7 29473.2 29472.4 29471.6 29470.5 29469.3 29468 29466.5 29468.3 29473.5
          29478.6 29483.1 29487.2 29491.1 29498.1 29508.2 29518.1 29527.7 29536.6 29544.7 29552.5 29560.2
          28536.8 28568.1 28599.1 28635.3 28676.8 28713.8 28746.6 28779.1 28811.3 28843.3 28877.5 28913.8
          28949.9 28985.7 29020.2 29053.4 29086.4 29119.3 29144.4 29161.7 29178.9 29195.9 29212.7 29229.4
          29246 29261.9 29277.2 29292.3 29307.4 29324.1 29342.5 29360.7 29378.8 29396.7 29410.1 29418.9
          29427.6 29436.1 29444.5 29452.8 29460.9 29468.5 29475.7 29482.7 29490.9 29500.3 29509.6 29516
          29519.7 29524.5 29530.6 29536.4 29467.3 29472 29475.5 29477.5 29479.3 29480.4 29480.8 29481
          29481 29480.8 29480.4 29479.8 29479.1 29480.4 29483.8 29487 29406.5 29408.2 29409.7 29411.2
          29412.4 29414.6 29417.6 29420.4 29422.9 29426.7 29431.6 29436.3 29440.8 29444.9 29449.1 29453.2
          29457.1 29460.8 29464.3 29469.9 29477.5 29485 29493.3 29502.4 29511.3 29520 29146.2 29167.3
          29188.2 29205.1 29218 29230.7 29243.3 29255.7 29268.1 29280.2 29292.2 29306.3 29322.4 29338.3
          29354 29365.9 29373.8 29381.5 29389.1 29396.5 29405.8 29417 29427.9 29439.8 29452.6 29465.2
          29477.6 29489.8 29501.8 29513.6 29526.2 29539.6 29552.9 29566 29577.5 29587.2 29596.8 29606.3
          29615.9 29625.6 29635.1 29643.5 29650.6 29657.6 29664.5 29674.3 29687.2 29699.7 29712.1 29724.2
          29736 29747.7 29759.1 29770.3 29781.2 29791.9 29802.2 29812.4 29822.4 29832.7 29843.5 29854.1
          29864.4 29874.6 29884.5 29894 29903.3 29912.5 29921.5 28527.4 28540.1 28552.3 28564.3 28575.6
          28586.2 28597.1 28608.4 28624.4 28645 28662.6 28677.2 28693.8 28712.4 28730.2 28747.1 28764
          28780 28795.1 28810.1 28825.1 28840.9 28857.7 28874.4 28885.5 28891.1 28896.5 28901.4 28905.9
          28910.3 28916.1 28923.5 28930.6 28939.9 28951.4 28959.9 28965.3 28970.5 28972.7 28972 28971.3
          28972.4 28975.5 28979.2 28983.3 28983.8 28980.7 28977.5 28888.9 28901.3 28913.6 28927.7 28943.6
          28959.2 28974.7 28990 29004.9 29019.4 29033.7 29047 29059.1 29071.1 29085.6 29102.7 29119.7
          29134.1 29146.1 29157.9 29169.6 29179.5 29187.9 29196.1 29204.1 29212.2 29220.4 29225.3 29226.8
          29227.2 29226.4 29225.5 29228.1 29234.4 29240.5 29246.4 29252.1 29257.7 29263.2 29268.5 29273.6
          29281.7 29292.8 29303.6 29314.4 29324 29332.6 29340.9 29347.5 29352.3 29356.9 29361.3 29365
          29368 29370.7 29373.3 29375.8 29378.1 28525.9 28535.5 28544.7 28553.6 28561.9 28569.4 28576.9
          28584.2 28591.3 28598.2 28605 28611.7 28618.3 27454.8 27473.8 27492.3 27510.3 27527.9 27546.8
          27567.1 27587.1 27606.9 27626.3 27645.1 27663.6 27681.9 27699.9 27717.5 27735.5 27753.7 27771.7
          27789.4 27806.8 27823.9 27840.8 27854.2 27864.3 27874.1 27883.6 27892.8 27901.8 27910.5 27918.9
          27928.5 27939.4 27950.1 27960.6 27969.3 27976.2 27982.8 27989.3 27998.2 28009.6 28020.7 28028.9
          28034.2 28039.5 28043.2 28045.4 28049.6 28055.8 28060.4 28063.3 28066.1 28070.6 28076.7 28082.7
          28088.6 28094.3 28101.1 28108.9 28116.6 28121.8 28124.5 28127.1 28129.5 27847.3 27843.6 27839.6
          27835.5 27833 27832.2 27831.2 27832.2 27835.2 27838 27840.7 27841.4 27840 27838.4 27841.5
          27849.3 27857 27864.6 27867 27544.5 27560 27575.3 27589.2 27601.6 27613.8 27625.6 27636.5
          27646.4 27656 27667.8 27681.7 27695.2 27708.4 27718.8 27726.5 27733.9 27741 27746.2 27749.6
          27752.8 27758 27765 27771.8 27780.5 27791.2 26396.9 26409.2 26421.1 26432.5 26443.6 26454.5
          26463.3 26470 26476.7 26482.4 26487.1 26491.7 26495.6 26498.6 26501.5 26504.3 26507.2 26510.4
          26513.5 26519 26527 26534.7 26545.5 26559.3 26569.7 26576.8 26584.9 26593.9 26602.8 26613
          26624.5 26635.9 26646.9 26657.6 26668.1 26675.3 26679.2 26683 26688.1 26694.4 26702.6 26712.9
          26723 26730.4 26735.1 26739.7 26743.9 26747.5 26751.1 26754.4 26757.6 26760.7 26761.9 26761.4
          26760.6 26759.6 26761.1 26765 26768.8 26774.9 26401.1 26421.7 26441.7 26461.2 26480.3 26496
          26508.5 26520.8 26531.8 26541.8 26551.6 26561.8 26572.4 26582.9 26594.7 26607.8 26618.5 26626.8
          26635 26644.7 26655.7 26666.6 26676.3 26684.8 26694 26703.9 26713.2 26721.6 26730 26738.5
          26747.1 26755.6 26763.2 26770.1 26776.7 26783.3 26790.3 26797.7 26805 26814.3 26825.6 26834.7
          26841.6 26848.4 26855.7 26863.4 26871 26878.6 26886.3 26893.8 26899.1 26902.1 26905 26907.8
          26910.3 26912.7 26915 26913.8 26909.3 26907.4 26908.1 26908.8 26912.1 26918.1 26925.6 26934.8
          26943.9 26952.8 26961.6 26693.4 26702.2 26710.8 26715.6 26716.6 26717.4 26720.7 26726.6 26732.4
          26738 26743.7 26748.8 26753.3 26757.9 26393.4 26398.5 26402.9 26406.8 26411.4 26416.8 26423.3
          26430.9 26438.4 26446.5 26455.5 26461.8 26465.4 26468.9 26472.4 26475.8 26483.5 26495.6 26507.5
          26519.3 26530.3 26540.8 26551.1 26561.2 26571.2 26581.1 26594.8 26612 26629.1 26646 26662.6
          26678.9 26691.8 26701.5 26710.8 26719.9 26728.8 26738.9 26750.3 26761.5 26772.5 26782.5 26791.6
          26800.5 26810.2 26820.6 26830.7 26692.7 26704.2 26715.3 26726.1 26736.6 26746.8 26756.7 26766.3
          26775.6 26784.6 26793.3 26389.1 26385.7 26381.7 26378.6 26376.7 26374.6 26372.8 26371.3 26369.8
          26368.1 26368.8 26372 26375 26377.9 26383.1 26390.6 26398 26405.5 26410.5 26413.1 26418
          26425.1 26432 26439.5 26447.5 26411.4 26405.4 26403.2 26404.7 26408.3 26413.9 26419.4 26426.6
          26435.4 26444.2 26449.5 26451.6 26453.6 26395.5 26405.2 26414.5 26423.4 26434.2 26446.7 26459.1
          26471.2 26481.7 26490.4 26498.9 26507.2 26514.3 26520.3 26526.1 26531.7 26537.1 26543.5 26551
          26558.3 26565.4 26572.3 26578.9 26585.3 26593.5 26603.5 26613.2 26622.6 26632.3 26642.4 26652.4
          26662.1 26669.9 26675.8 26681.5 26685.5 26687.8 26689.9 26480.1 26485.6 26491 26496.2 26500.4
          26503.8 26506.9 26509.9 26513.2 26516.8 26520.2 26523.8 26527.9 26531.7 26535.4 26540.8 26547.9
          26554.8 26561.5 26568 26575.9 26585.4 26594.6 26603.7 26612.2 26620.2 26627.9 26633.5 26637
          26640.3 26643.4 26646.2 26652 26660.7 26669.1 26677.4 25306 25315.6 25324.8 25333.7 25340.5
          25345.2 25349.7 25354.1 25359 25364.4 25369.7 25375.1 25380.4 25385.6 25392.3 25400.5 25408.5
          25416.2 25422.4 25426.9 25431.2 25436.9 25444 25450.9 25456.6 25461 25465.3 25470.4 25476.5
          25482.3 25488 25494.1 25500.5 25506.8 25512.9 25455.6 25458.1 25463.1 25470.5 25477.9 25485.2
          25492.4 24188.3 24195.6 24205.5 24217.3 24228.8 24240.9 24252.8 24264.4 24277.1 24290.8 24304.2
          24314.2 24320.7 24330.4 24343 24354 24363.4 24372.5 24381.4 24389 24395.5 24191.8 24206.4
          24220.8 24238.1 24251.9 24258.9 24259.4 24281.5 24299.8 24314.3 24328.7 24341.4 24352.5 24362.8
          24369.6 24373.5 24373.9 24371 24370.7 24373.2 24376.5 24380.6 24384.5 24388.3 24391.3 24393.4
          24395.4 24364.8 24378.1 24391.3 24404.1 24416.4 24428.7 24439.9 24450.2 24460.3 24471.2 24482.8
          24494.2 24505.5 24516.6 24527.2 24537.2 24547.1 24556.7 24563.6 24567.9 24572 24576 24579.8
          24586.5 24596 24605.3 24614.4 24623.3 24632.1 24565 24572.1 24578.8 24585.4 24591.7 24597.9
          24603.8 24609.5 24617.5 24627.9 24638 24647.9 24657.6 24665.6 24671.9 24677.9 24683.9 24687.9
          24690.1 24693 24696.6 24700 24703.3 24663.2 24664.6 24665.8 24666.8 24667.6 24466.4 24468.6
          24470.7 24471 24469.5 24467.9 24466.1 24464.3 24462.3 23268.2 23283.5 23298.2 23312.4 23326.2
          23337.8 23347.3 23355.9 23363.5 23371.3 23379.3 23387.1 23394.2 23398 23398.9 23399.5 23399.9
          23400 23399.9 23399.5 23399.4 23403.1 23406.6 23410.7 23415.3 23419.8 23355.2 23361.4 23365.9
          23369 23372.4 23376.1 23379.3 23381.9 23384.4 23385.5 23385.2 23384.8 23384.2 23383.5 23339.7
          23352.9 23366 23378.9 23389.3 23397.2 23404.3 23410.7 23415.2 23417.7 23420.1 23422.2 23425.9
          23431 23435.1 23438.1 23439.7 23439.9 23442.3 23447 23451.6 23456 23459.5 23462 23464.3
          23268.3 23283.8 23298.9 23313.6 23331.7 23350.2 23365.3 23378.8 23390.6 23401.2 23410.6 23422.1
          23435.5 23447.1 23456.7 23467.5 23479.4 23491 23502.3 23514.9 23528.7 23539.3 23546.7 23553.7
          23560.6 23568.4 23577.3 23585.6 23593.4 23601 23608.2 23614.9 23621.5 23625.4 23626.6 23627.7
          23629.7 23632.3 23635.7 23639.6 23644.4 23650.1 23655.5 23659.9 23663.3 23666.5 23442.5 23443.1
          23443.4 23443.5 23442.7 23441.2 23442 23445 23447.8 23453.6 23462.4 23266.8 23279.6 23291.8
          23303.7 23315.1 23327 23339.3 23351.4 23365.2 23380.7 23395.9 23410.7 23425.3 23439.5 23453.4
          23467 23480.2 23493 23504.4 23514.2 23523.9 23532.7 23540.6 23548.1 23555.3 23562.2 23568.7
          23574.9 23580.8 23590.4 23603.4 23616 23628.2 23640.1 23650.5 23659.5 23668.1 23676.5 23684.6
          23689.8 23692.2 23694.3 23692.6 23686.9 23681 23677.2 23675.4 23673.4 23676.6 23685 23693.1
          23701.5 23710.1 23715.9 23719.1 21384 21396.7 21408.9 21420.2 21430.7 21441 21450.9 21460.7
          21468.4 21474 21479.4 21484.6 21490.6 21497.5 21504.2 21510 21515 21519.8 21522.9 21524.4
          21525.8 21526.9 21528 21469.5 21477.5 21483 21486.1 21489 21494.1 21501.4
        </DataArray>
        <DataArray type="Float32" Name="rho" NumberOfComponents="1" format="ascii">
          1000 1000 1000 1000 1000 1000 1000 1000 1000 1000 1000 1000
          1000 1000 1000 1000 1000 1000 1000 1000 1000 1000 1000 1000
          1000 1000 1000 1000 1000 1000 1000 1000 1000 1000 1000 1000
          1000 1000 1000 1000 1000 1000 1000 1000 1000 1000 1000 1000
          1000 1000 1000 1000 1000 1000 1000 1000 1000 1000 1000 1000
          1000 1000 1000 1000 1000 1000 1000 1000 1000 1000 1000 1000
          1000 1000 1000 1000 1000 1000 1000 1000 1000 1000 1000 1000
          1000 1000 1000 1000 1000 1000 1000 1000 1000 1000 1000 1000
          1000 1000 1000 1000 1000 1000 1000 1000 1000 1000 1000 1000
          1000 1000 1000 1000 1000 1000 1000 1000 1000 1000 1000 1000
          1000 1000 1000 1000 1000 1000 1000 1000 1000 1000 1000 1000
          1000 1000 1000 1000 1000 1000 1000 1000 1000 1000 1000 1000
          1000 1000 1000 1000 1000 1000 1000 1000 1000 1000 1000 1000
          1000 1000 1000 1000 1000 1000 1000 1000 1000 1000 1000 1000
          1000 1000 1000 1000 1000 1000 1000 1000 1000 1000 1000 1000
          1000 1000 1000 1000 1000 1000 1000 1000 1000 1000 1000 1000
          1000 1000 1000 1000 1000 1000 1000 1000 1000 1000 1000 1000
          1000 1000 1000 1000 1000 1000 1000 1000 1000 1000 1000 1000
          1000 1000 1000 1000 1000 1000 1000 1000 1000 1000 1000 1000
          1000 1000 1000 1000 1000 1000 1000 1000 1000 1000 1000 1000
          1000 1000 1000 1000 1000 1000 1000 1000 1000 1000 1000 1000
          1000 1000 1000 1000 1000 1000 1000 1000 1000 1000 1000 1000
          1000 1000 1000 1000 1000 1000 1000 1000 1000 1000 1000 1000
          1000 1000 1000 1000 1000 1000 1000 1000 1000 1000 1000 1000
          1000 1000 1000 1000 1000 1000 1000 1000 1000 1000 1000 1000
          1000 1000 1000 1000 1000 1000 1000 1000 1000 1000 1000 1000
          1000 1000 1000 1000 1000 1000 1000 1000 1000 1000 1000 1000
          1000 1000 1000 1000 1000 1000 1000 1000 1000 1000 1000 1000
          1000 1000 1000 1000 1000 1000 1000 1000 1000 1000 1000 1000
          1000 1000 1000 1000 1000 1000 1000 1000 1000 1000 1000 1000
          1000 1000 1000 1000 1000 1000 1000 1000 1000 1000 1000 1000
          1000 1000 1000 1000 1000 1000 1000 1000 1000 1000 1000 1000
          1000 1000 1000 1000 1000 1000 1000 1000 1000 1000 1000 1000
          1000 1000 1000 1000 1000 1000 1000 1000 1000 1000 1000 1000
          1000 1000 1000 1000 1000 1000 1000 1000 1000 1000 1000 1000
          1000 1000 1000 1000 1000 1000 1000 1000 1000 1000 1000 1000
          1000 1000 1000 1000 1000 1000 1000 1000 1000 1000 1000 1000
          1000 1000 1000 1000 1000 1000 1000 1000 1000 1000 1000 1000
          1000 1000 1000 1000 1000 1000 1000 1000 1000 1000 1000 1000
          1000 1000 1000 1000 1000 1000 1000 1000 1000 1000 1000 1000
          1000 1000 1000 1000 1000 1000 1000 1000 1000 1000 1000 1000
          1000 1000 1000 1000 1000 1000 1000 1000 1000 1000 1000 1000
          1000 1000 1000 1000 1000 1000 1000 1000 1000 1000 1000 1000
          1000 1000 1000 1000 1000 1000 1000 1000 1000 1000 1000 1000
          1000 1000 1000 1000 1000 1000 1000 1000 1000 1000 1000 1000
          1000 1000 1000 1000 1000 1000 1000 1000 1000 1000 1000 1000
          1000 1000 1000 1000 1000 1000 1000 1000 1000 1000 1000 1000
          1000 1000 1000 1000 1000 1000 1000 1000 1000 1000 1000 1000
          1000 1000 1000 1000 1000 1000 1000 1000 1000 1000 1000 1000
          1000 1000 1000 1000 1000 1000 1000 1000 1000 1000 1000 1000
          1000 1000 1000 1000 1000 1000 1000 1000 1000 1000 1000 1000
          1000 1000 1000 1000 1000 1000 1000 1000 1000 1000 1000 1000
          1000 1000 1000 1000 1000 1000 1000 1000 1000 1000 1000 1000
          1000 1000 1000 1000 1000 1000 1000 1000 1000 1000 1000 1000
          1000 1000 1000 1000 1000 1000 1000 1000 1000 1000 1000 1000
          1000 1000 1000 1000 1000 1000 1000 1000 1000 1000 1000 1000
          1000 1000 1000 1000 1000 1000 1000 1000 1000 1000 1000 1000
          1000 1000 1000 1000 1000 1000 1000 1000 1000 1000 1000 1000
          1000 1000 1000 1000 1000 1000 1000 1000 1000 1000 1000 1000
          1000 1000 1000 1000 1000 1000 1000 1000 1000 1000 1000 1000
          1000 1000 1000 1000 1000 1000 1000 1000 1000 1000 1000 1000
          1000 1000 1000 1000 1000 1000 1000 1000 1000 1000 1000 1000
          1000 1000 1000 1000 1000 1000 1000 1000 1000 1000 1000 1000
          1000 1000 1000 1000 1000 1000 1000 1000 1000 1000 1000 1000
          1000 1000 1000 1000 1000 1000 1000 1000 1000 1000 1000 1000
          1000 1000 1000 1000 1000 1000 1000 1000 1000 1000 1000 1000
          1000 1000 1000 1000 1000 1000 1000 1000 1000 1000 1000 1000
          1000 1000 1000 1000 1000 1000 1000 1000 1000 1000 1000 1000
          1000 1000 1000 1000 1000 1000 1000 1000 1000 1000 1000 1000
          1000 1000 1000 1000 1000 1000 1000 1000 1000 1000 1000 1000
          1000 1000 1000 1000 1000 1000 1000 1000 1000 1000 1000 1000
          1000 1000 1000 1000 1000 1000 1000 1000 1000 1000 1000 1000
          1000 1000 1000 1000 1000 1000 1000 1000 1000 1000 1000 1000
          1000 1000 1000 1000 1000 1000 1000 1000 1000 1000 1000 1000
          1000 1000 1000 1000 1000 1000 1000 1000 1000 1000 1000 1000
          1000 1000 1000 1000 1000 1000 1000 1000 1000 1000 1000 1000
          1000 1000 1000 1000 1000 1000 1000 1000 1000 1000 1000 1000
          1000 1000 1000 1000 1000 1000 1000 1000 1000 1000 1000 1000
          1000 1000 1000 1000 1000 1000 1000 1000 1000 1000 1000 1000
          1000 1000 1000 1000 1000 1000 1000 1000 1000 1000 1000 1000
          1000 1000 1000 1000 1000 1000 1000 1000 1000 1000 1000 1000
          1000 1000 1000 1000 1000 1000 1000 1000 1000 1000 1000 1000
          1000 1000 1000 1000 1000 1000 1000 1000 1000 1000 1000 1000
          1000 1000 1000 1000 1000 1000 1000 1000 1000 1000 1000 1000
          1000 1000 1000 1000 1000 1000 1000 1000 1000 1000 1000 1000
          1000 1000 1000 1000 1000 1000 1000 1000 1000 1000 1000 1000
          1000 1000 1000 1000 1000 1000 1000 1000 1000 1000 1000 1000
          1000 1000 1000 1000 1000 1000 1000 1000 1000 1000 1000 1000
          1000 1000 1000 1000 1000 1000 1000 1000 1000 1000 1000 1000
          1000 1000 1000 1000 1000 1000 1000 1000 1000 1000 1000 1000
          1000 1000 1000 1000 1000 1000 1000 1000 1000 1000 1000 1000
          1000 1000 1000 1000 1000 1000 1000 1000 1000 1000 1000 1000
          1000 1000 1000 1000 1000 1000 1000 1000 1000 1000 1000 1000
          1000 1000 1000 1000 1000 1000 1000 1000 1000 1000 1000 1000
          1000 1000 1000 1000 1000 1000 1000 1000 1000 1000 1000 1000
          1000 1000 1000 1000 1000 1000 1000 1000 1000 1000 1000 1000
          1000 1000 1000 1000 1000 1000 1000 1000 1000 1000 1000 1000
          1000 1000 1000 1000 1000 1000 1000 1000 1000 1000 1000 1000
          1000 1000 1000 1000 1000 1000 1000 1000 1000 1000 1000 1000
          1000 1000 1000 1000 1000 1000 1000 1000 1000 1000 1000 1000
          1000 1000 1000 1000 1000 1000 1000 1000 1000 1000 1000 1000
          1000 1000 1000 1000 1000 1000 1000 1000 1000 1000 1000 1000
          1000 1000 1000 1000 1000 1000 1000 1000 1000 1000 1000 1000
          1000 1000 1000 1000 1000 1000 1000 1000 1000 1000 1000 1000
          1000 1000 1000 1000 1000 1000 1000 1000 1000 1000 1000 1000
          1000 1000 1000 1000 1000 1000 1000 1000 1000 1000 1000 1000
          1000 1000 1000 1000 1000 1000 1000 1000 1000 1000 1000 1000
          1000 1000 1000 1000 1000 1000 1000 1000 1000 1000 1000 1000
          1000 1000 1000 1000 1000 1000 1000 1000 1000 1000 1000 1000
          1000 1000 1000 1000 1000 1000 1000 1000 1000 1000 1000 1000
          1000 1000 1000 1000 1000 1000 1000 1000 1000 1000 1000 1000
          1000 1000 1000 1000 1000 1000 1000 1000 1000 1000 1000 1000
          1000 1000 1000 1000 1000 1000 1000 1000 1000 1000 1000 1000
          1000 1000 1000 1000 1000 1000 1000 1000 1000 1000 1000 1000
          1000 1000 1000 1000 1000 1000 1000 1000 1000 1000 1000 1000
          1000 1000 1000 1000 1000 1000 1000 1000 1000 1000 1000 1000
          1000 1000 1000 1000 1000 1000 1000 1000 1000 1000 1000 1000
          1000 1000 1000 1000 1000 1000 1000 1000 1000 1000 1000 1000
          1000 1000 1000 1000 1000 1000 1000 1000 1000 1000 1000 1000
          1000 1000 1000 1000 1000 1000 1000 1000 1000 1000 1000 1000
          1000 1000 1000 1000 1000 1000 1000 1000 1000 1000 1000 1000
          1000 1000 1000 1000 1000 1000 1000 1000 1000 1000 1000 1000
          1000 1000 1000 1000 1000 1000 1000 1000 1000 1000 1000 1000
          1000 1000 1000 1000 1000 1000 1000 1000 1000 1000 1000 1000
          1000 1000 1000 1000 1000 1000 1000 1000 1000 1000 1000 1000
          1000 1000 1000 1000 1000 1000 1000 1000 1000 1000 1000 1000
          1000 1000 1000 1000 1000 1000 1000 1000 1000 1000 1000 1000
          1000 1000 1000 1000 1000 1000 1000 1000 1000 1000 1000 1000
          1000 1000 1000 1000 1000 1000 1000 1000 1000 1000 1000 1000
          1000 1000 1000 1000 1000 1000 1000 1000 1000 1000 1000 1000
          1000 1000 1000 1000 1000 1000 1000 1000 1000 1000 1000 1000
          1000 1000 1000 1000 1000 1000 1000 1000 1000 1000 1000 1000
          1000 1000 1000 1000 1000 1000 1000 1000 1000 1000 1000 1000
          1000 1000 1000 1000 1000 1000 1000 1000 1000 1000 1000 1000
          1000 1000 1000 1000 1000 1000 1000 1000 1000 1000 1000 1000
          1000 1000 1000 1000 1000 1000 1000 1000 1000 1000 1000 1000
          1000 1000 1000 1000 1000 1000 1000 1000 1000 1000 1000 1000
          1000 1000 1000 1000 1000 1000 1000 1000 1000 1000 1000 1000
          1000 1000 1000 1000 1000 1000 1000 1000 1000 1000 1000 1000
          1000 1000 1000 1000 1000 1000 1000 1000 1000 1000 1000 1000
          1000 1000 1000 1000 1000 1000 1000 1000 1000 1000 1000 1000
          1000 1000 1000 1000 1000 1000 1000 1000 1000 1000 1000 1000
          1000 1000 1000 1000 1000 1000 1000 1000 1000 1000 1000 1000
          1000 1000 1000 1000 1000 1000 1000 1000 1000 1000 1000 1000
          1000 1000 1000 1000 1000 1000 1000 1000 1000 1000
        </DataArray>
        <DataArray type="Float32" Name="mu" NumberOfComponents="1" format="ascii">
          0.001 0.001 0.001 0.001 0.001 0.001 0.001 0.001 0.001 0.001 0.001 0.001
          0.001 0.001 0.001 0.001 0.001 0.001 0.001 0.001 0.001 0.001 0.001 0.001
          0.001 0.001 0.001 0.001 0.001 0.001 0.001 0.001 0.001 0.001 0.001 0.001
          0.001 0.001 0.001 0.001 0.001 0.001 0.001 0.001 0.001 0.001 0.001 0.001
          0.001 0.001 0.001 0.001 0.001 0.001 0.001 0.001 0.001 0.001 0.001 0.001
          0.001 0.001 0.001 0.001 0.001 0.001 0.001 0.001 0.001 0.001 0.001 0.001
          0.001 0.001 0.001 0.001 0.001 0.001 0.001 0.001 0.001 0.001 0.001 0.001
          0.001 0.001 0.001 0.001 0.001 0.001 0.001 0.001 0.001 0.001 0.001 0.001
          0.001 0.001 0.001 0.001 0.001 0.001 0.001 0.001 0.001 0.001 0.001 0.001
          0.001 0.001 0.001 0.001 0.001 0.001 0.001 0.001 0.001 0.001 0.001 0.001
          0.001 0.001 0.001 0.001 0.001 0.001 0.001 0.001 0.001 0.001 0.001 0.001
          0.001 0.001 0.001 0.001 0.001 0.001 0.001 0.001 0.001 0.001 0.001 0.001
          0.001 0.001 0.001 0.001 0.001 0.001 0.001 0.001 0.001 0.001 0.001 0.001
          0.001 0.001 0.001 0.001 0.001 0.001 0.001 0.001 0.001 0.001 0.001 0.001
          0.001 0.001 0.001 0.001 0.001 0.001 0.001 0.001 0.001 0.001 0.001 0.001
          0.001 0.001 0.001 0.001 0.001 0.001 0.001 0.001 0.001 0.001 0.001 0.001
          0.001 0.001 0.001 0.001 0.001 0.001 0.001 0.001 0.001 0.001 0.001 0.001
          0.001 0.001 0.001 0.001 0.001 0.001 0.001 0.001 0.001 0.001 0.001 0.001
          0.001 0.001 0.001 0.001 0.001 0.001 0.001 0.001 0.001 0.001 0.001 0.001
          0.001 0.001 0.001 0.001 0.001 0.001 0.001 0.001 0.001 0.001 0.001 0.001
          0.001 0.001 0.001 0.001 0.001 0.001 0.001 0.001 0.001 0.001 0.001 0.001
          0.001 0.001 0.001 0.001 0.001 0.001 0.001 0.001 0.001 0.001 0.001 0.001
          0.001 0.001 0.001 0.001 0.001 0.001 0.001 0.001 0.001 0.001 0.001 0.001
          0.001 0.001 0.001 0.001 0.001 0.001 0.001 0.001 0.001 0.001 0.001 0.001
          0.001 0.001 0.001 0.001 0.001 0.001 0.001 0.001 0.001 0.001 0.001 0.001
          0.001 0.001 0.001 0.001 0.001 0.001 0.001 0.001 0.001 0.001 0.001 0.001
          0.001 0.001 0.001 0.001 0.001 0.001 0.001 0.001 0.001 0.001 0.001 0.001
          0.001 0.001 0.001 0.001 0.001 0.001 0.001 0.001 0.001 0.001 0.001 0.001
          0.001 0.001 0.001 0.001 0.001 0.001 0.001 0.001 0.001 0.001 0.001 0.001
          0.001 0.001 0.001 0.001 0.001 0.001 0.001 0.001 0.001 0.001 0.001 0.001
          0.001 0.001 0.001 0.001 0.001 0.001 0.001 0.001 0.001 0.001 0.001 0.001
          0.001 0.001 0.001 0.001 0.001 0.001 0.001 0.001 0.001 0.001 0.001 0.001
          0.001 0.001 0.001 0.001 0.001 0.001 0.001 0.001 0.001 0.001 0.001 0.001
          0.001 0.001 0.001 0.001 0.001 0.001 0.001 0.001 0.001 0.001 0.001 0.001
          0.001 0.001 0.001 0.001 0.001 0.001 0.001 0.001 0.001 0.001 0.001 0.001
          0.001 0.001 0.001 0.001 0.001 0.001 0.001 0.001 0.001 0.001 0.001 0.001
          0.001 0.001 0.001 0.001 0.001 0.001 0.001 0.001 0.001 0.001 0.001 0.001
          0.001 0.001 0.001 0.001 0.001 0.001 0.001 0.001 0.001 0.001 0.001 0.001
          0.001 0.001 0.001 0.001 0.001 0.001 0.001 0.001 0.001 0.001 0.001 0.001
          0.001 0.001 0.001 0.001 0.001 0.001 0.001 0.001 0.001 0.001 0.001 0.001
          0.001 0.001 0.001 0.001 0.001 0.001 0.001 0.001 0.001 0.001 0.001 0.001
          0.001 0.001 0.001 0.001 0.001 0.001 0.001 0.001 0.001 0.001 0.001 0.001
          0.001 0.001 0.001 0.001 0.001 0.001 0.001 0.001 0.001 0.001 0.001 0.001
          0.001 0.001 0.001 0.001 0.001 0.001 0.001 0.001 0.001 0.001 0.001 0.001
          0.001 0.001 0.001 0.001 0.001 0.001 0.001 0.001 0.001 0.001 0.001 0.001
          0.001 0.001 0.001 0.001 0.001 0.001 0.001 0.001 0.001 0.001 0.001 0.001
          0.001 0.001 0.001 0.001 0.001 0.001 0.001 0.001 0.001 0.001 0.001 0.001
          0.001 0.001 0.001 0.001 0.001 0.001 0.001 0.001 0.001 0.001 0.001 0.001
          0.001 0.001 0.001 0.001 0.001 0.001 0.001 0.001 0.001 0.001 0.001 0.001
          0.001 0.001 0.001 0.001 0.001 0.001 0.001 0.001 0.001 0.001 0.001 0.001
          0.001 0.001 0.001 0.001 0.001 0.001 0.001 0.001 0.001 0.001 0.001 0.001
          0.001 0.001 0.001 0.001 0.001 0.001 0.001 0.001 0.001 0.001 0.001 0.001
          0.001 0.001 0.001 0.001 0.001 0.001 0.001 0.001 0.001 0.001 0.001 0.001