<?xml version="1.0"?>
<VTKFile type="PolyData" version="0.1" byte_order="LittleEndian">
  <PolyData>
    <Piece NumberOfLines="1738" NumberOfPoints="1739">
      <CellData Scalars="pressure">
        <DataArray type="Float32" Name="pressure" NumberOfComponents="1" format="ascii">
          19306.8 19575.7 19640.3 19703.9 19766.7 19828.8 19890.3 19953.5 20018.4 20082.9 20146.9 20212
          20278 20343.6 20408.8 20473.5 20537.8 20601.7 20664.3 20725.7 20786.7 20847.2 20903.6 20956
          21007.9 21059.6 21110.9 21155.8 21194.3 21232.5 21270.3 21310.4 21352.7 21394.6 21436.1 21477.2
          21515 21549.5 21583.6 21617.4 21650.8 21683.8 21716.4 21748.7 21780.5 21812 21843.1 21873.9
          21904.2 21935.4 21967.4 21999 22030.2 22061.6 22093 22124.1 22154.6 22184.7 22213.2 22240.3
          22267 22293.3 22321.1 22350.3 22379.1 22407.5 22435.5 22463.1 22490.3 22517.5 22544.8 22571.7
          22598.1 22624 22649.5 22674.2 22698.2 22721.6 22744.6 22766.4 22786.9 22807 22826.6 22842.5
          22854.8 22866.8 22878.4 22892.9 22910.1 22926.9 22943.3 22959.2 22974.8 22991.5 23009.3 23026.6
          23043.5 23059.9 23075.3 23089.8 23103.8 23117.5 23130 23141.6 23152.9 23163.8 23175.6 23188.3
          23200.4 23212 23223 21920.4 21922.6 21924.6 21926.3 21929.1 21932.9 21936.6 21940 21918.7
          21917.2 21915.5 21914.8 21915.3 21143 21155.9 21168.6 21181.2 21193.6 21205.7 21217.6 21229.5
          21241.3 21252.8 21263.9 21274.7 21286 21297.8 21309.4 21320.1 21330 21339.6 21349 21359.2
          21370.3 21380.4 21389.5 21398.5 21407.2 21417.5 21429.2 21440.7 21450.1 21457.3 21464.3 21471.2
          21479.5 21489.3 21498.9 21509.4 21520.8 21531.9 21542.8 21553.2 21563.3 21573.2 21582.9 21592.4
          21601.7 19764.8 20160.8 20509.7 20857.5 21204.2 21554.7 21908.8 22261.9 22575.5 22849.7 23123.4
          23414.7 23723.2 24030.8 24192.5 24208.4 24223.8 24238.8 24250.2 24258.1 24265.8 24273.4 24282.5
          24293.2 24303.6 24312.7 24320.2 24327.7 24335.1 24342.4 24349.6 24356.8 24362.7 24367.5 24372.2
          24375.9 24378.8 24381.6 24384 24386.1 24388.1 24390.2 24392.3 24394.3 24397.2 24401.1 24404.9
          24409.2 24414 24418.6 24324.6 24604.6 24883.7 25162 25410.5 25629.2 25847.3 26064.9 26282
          26479.2 26656.3 26832.8 27008.5 27183.5 27357.9 27522.8 27678.1 27832.8 27986.9 28140.3 28292.9
          28445 28571.1 28671.3 28770.9 28869.9 28968.3 29066.1 29163.4 29260 29356 29445 29527.1
          29608.7 29689.7 29770.3 29850.4 29929.9 30008.9 30087.3 30165.1 30242.3 30314.7 30382.1 30449.1
          30515.6 30581.5 30647 30696.9 30731.3 30765.2 30798.8 30832 30859.5 30881.3 30902.7 30923.6
          30944 30963.9 30983.4 31002.4 31021 31039.2 31056.9 31074.1 31090.6 31106.2 31121.5 31136.4
          31150.9 31165.1 31178.9 31192.4 31205.9 31219.4 31232.5 31245.3 31257.8 31269.9 31281.8 31292.7
          31302.8 31312.6 31322.2 31331.5 31340.5 30851.7 30858.2 30864.4 30870.4 30876.3 30884.4 30894.8
          30905 30914.3 30923 30931.4 30939.9 30948.5 30956.9 30966.1 30976.1 30986 30855.2 30868.6
          30881.8 30894.7 30909.1 30924.9 30940.6 30957.2 30974.7 30992.1 31009.2 31026.1 31042.8 31058.5
          31073.1 31087.6 31101.9 31116 31126.3 31132.5 31138.6 31144.6 31150.3 31158.6 31169.2 31179.7
          31190.1 31199.2 31207.1 31214.8 31222.3 31229.7 31237.6 31245.9 31254.1 31262.2 31270.1 31278.8
          31288.3 31297.7 31306.9 31315.9 31324.8 31333.5 31157 31164.7 31172.4 31180.6 31189.4 31198.1
          31203.6 31206 31208.2 31210.4 31209.5 31205.6 31201.5 31197.4 30693.2 30720.3 30743.6 30763.3
          30783 30803.1 30823.6 30844 30867.9 30895.3 30922.5 30939.4 30946.1 30952 30957.4 30962.7
          30967.9 30975.6 30985.8 30999.5 31016.7 31033.7 31048.9 31062.4 31075.7 31088.9 31098.3 31104.1
          31109.7 31115.8 31122.3 31128.3 31133.9 31139.3 31144.7 31149.9 31158.3 31169.9 31181.4 31193.2
          31205.3 31217.3 31229.2 31240.8 31253.9 31268.2 31282.4 31295.8 31308.3 31321.2 31334.4 31347.4
          31360.2 31372.3 31383.6 31394.8 31405.8 31416.6 31427.2 31437.6 31447.8 31457.9 31467.5 31476.7
          31485.9 31494.8 31503.7 30944.2 30960.2 30976.1 30991.8 31007.7 31023.5 31038.5 31052.5 31066.4
          31080.2 31093.8 31109.5 31127.2 31144.8 31162.2 31181.1 31201.5 31221.5 31242.2 31263.5 31284.5
          31304.2 31322.5 31340.6 31358 31374.7 31391.3 31409.2 31428.7 31447.8 31466.6 31485.2 31503.5
          31520 31534.9 31549.6 31564.1 31575.4 31583.4 31591.3 31598.9 31607.8 31618 31627.9 31636.7
          31644.3 31651.7 31658.9 31576.8 31587.7 31598.4 31609 31618.4 31626.7 31634.9 31642.9 31650.8
          31655.4 31656.8 31658 31659.1 31661.7 31665.7 31669.6 31676.4 31685.9 31695.4 31704.8 31658.3
          31665.6 31672.7 31680.2 31687.9 31695.4 31702.7 31707.9 31710.9 31713.9 31716.7 31722.1 31730
          31616 31619.5 31625 31632 31638.4 31644.7 31651 31656.1 31660.1 31664 30284.5 30291.8
          30298.8 30305.2 30311.2 30317 30322.7 30328.3 30333.9 30339.4 30344.8 30352.7 30362.9 30373
          30383.3 30393.8 30399.1 30399.4 30399.5 30399.6 30404.5 30415.4 30426.1 30436.7 30447.1 30457.3
          30467.4 30477.4 30487.2 30283.6 30289 30294 30298.6 30302.6 30306.5 30310.3 30314 30317.2
          30320 30322.7 30325.4 30329.5 30335 30340.4 30345.6 30353.5 30364 30369.6 30370.1 30370.6
          30370.7 30373.5 30376.2 30378.3 30379.8 30381.1 30382.4 30382.7 30382.1 30381.4 30380.6 30379.6
          30378.6 30325.4 30322.7 30320 30317.2 30314.3 29732.7 29737.7 29742.4 29746.2 29749.2 29752.2
          29756 29760.7 29765.2 29769.6 29774.9 29781 29787 29792.8 29800 29808.6 29817 29825.2
          29831.7 29836.6 29841.3 29845.8 29850.6 29855.7 29860.6 29865.5 29867.9 29867.8 29867.6 29867.3
          29407.3 29414.2 29420.7 29427 29433.9 29441.4 29448.7 29455 29460.4 29465.6 29469 29470.6
          29472 29473.3 29473.6 29473.1 29472.3 29471.5 29470.4 29469.2 29467.9 29466.4 29468.2 29473.4
          29478.5 29483 29487.1 29491 29498 29508.1 29518 29527.6 29536.5 29544.6 29552.5 29560.1
          28536.7 28568 28599 28635.2 28676.7 28713.7 28746.5 28779 28811.2 28843.2 28877.4 28913.7
          28949.8 28985.6 29020.1 29053.3 29086.3 29119.2 29144.3 29161.6 29178.8 29195.8 29212.6 29229.3
          29245.9 29261.8 29277.1 29292.2 29307.3 29324 29342.4 29360.6 29378.7 29396.6 29410 29418.8
          29427.5 29436 29444.4 29452.7 29460.8 29468.4 29475.6 29482.6 29490.8 29500.3 29509.5 29515.9
          29519.6 29524.4 29530.5 29536.4 29467.2 29471.9 29475.4 29477.4 29479.2 29480.3 29480.7 29480.9
          29480.9 29480.7 29480.3 29479.7 29479 29480.3 29483.7 29486.9 29406.4 29408.1 29409.6 29411.1
          29412.3 29414.5 29417.5 29420.3 29422.8 29426.6 29431.5 29436.2 29440.7 29444.8 29449 29453.1
          29457 29460.7 29464.2 29469.8 29477.4 29484.9 29493.2 29502.3 29511.2 29519.9 29146.1 29167.2
          29188.1 29205 29217.9 29230.6 29243.2 29255.6 29268 29280.1 29292.2 29306.2 29322.3 29338.2
          29353.9 29365.8 29373.7 29381.4 29389 29396.4 29405.7 29416.9 29427.9 29439.7 29452.5 29465.1
          29477.5 29489.7 29501.7 29513.5 29526.1 29539.5 29552.8 29566 29577.4 29587.1 29596.8 29606.2
          29615.8 29625.5 29635 29643.4 29650.5 29657.5 29664.4 29674.2 29687.1 29699.6 29712 29724.1
          29736 29747.6 29759 29770.2 29781.2 29791.8 29802.1 29812.3 29822.3 29832.6 29843.4 29854
          29864.3 29874.5 29884.4 29893.9 29903.2 29912.4 29921.4 28527.3 28539.9 28552.2 28564.2 28575.5
          28586.1 28597 28608.3 28624.3 28644.9 28662.5 28677.1 28693.7 28712.3 28730.1 28747 28763.9
          28779.9 28795 28810 28825 28840.8 28857.6 28874.3 28885.4 28891 28896.4 28901.3 28905.8
          28910.2 28916 28923.4 28930.5 28939.8 28951.3 28959.8 28965.2 28970.4 28972.6 28971.9 28971.2
          28972.3 28975.4 28979.1 28983.2 28983.7 28980.6 28977.4 28888.8 28901.2 28913.5 28927.6 28943.5
          28959.1 28974.6 28989.9 29004.8 29019.3 29033.6 29046.9 29059 29071 29085.5 29102.6 29119.6
          29134 29146 29157.8 29169.5 29179.4 29187.8 29196 29204 29212.1 29220.3 29225.2 29226.7
          29227.1 29226.3 29225.4 29228 29234.3 29240.4 29246.3 29252 29257.6 29263.1 29268.4 29273.5
          29281.6 29292.7 29303.5 29314.3 29323.9 29332.5 29340.8 29347.4 29352.2 29356.8 29361.2 29364.9
          29367.9 29370.6 29373.2 29375.7 29378 28525.8 28535.4 28544.6 28553.5 28561.8 28569.3 28576.8
          28584.1 28591.2 28598.1 28604.9 28611.6 28618.2 27454.7 27473.7 27492.2 27510.2 27527.8 27546.7
          27567 27587 27606.8 27626.2 27645 27663.5 27681.8 27699.8 27717.4 27735.4 27753.6 27771.6
          27789.3 27806.7 27823.8 27840.7 27854.1 27864.2 27874 27883.5 27892.7 27901.7 27910.4 27918.8
          27928.4 27939.3 27950 27960.5 27969.2 27976.1 27982.7 27989.2 27998.1 28009.5 28020.6 28028.8
          28034.1 28039.4 28043.1 28045.3 28049.5 28055.7 28060.2 28063.2 28066 28070.5 28076.6 28082.6
          28088.5 28094.2 28101 28108.8 28116.5 28121.7 28124.4 28127 28129.4 27847.2 27843.5 27839.5
          27835.4 27832.9 27832.1 27831.1 27832.1 27835.1 27837.9 27840.6 27841.3 27839.8 27838.3 27841.4
          27849.2 27856.9 27864.5 27866.9 27544.4 27559.9 27575.2 27589.1 27601.5 27613.7 27625.5 27636.4
          27646.3 27655.9 27667.7 27681.6 27695.1 27708.3 27718.7 27726.4 27733.8 27740.9 27746.1 27749.5
          27752.7 27757.9 27764.9 27771.7 27780.4 27791.1 26396.7 26409.1 26420.9 26432.4 26443.5 26454.4
          26463.2 26469.9 26476.6 26482.3 26487 26491.6 26495.5 26498.5 26501.4 26504.2 26507.1 26510.3
          26513.4 26518.9 26526.8 26534.6 26545.4 26559.2 26569.6 26576.7 26584.8 26593.8 26602.7 26612.9
          26624.4 26635.8 26646.8 26657.4 26668 26675.2 26679.1 26682.9 26688 26694.3 26702.5 26712.8
          26722.9 26730.3 26735 26739.6 26743.7 26747.4 26750.9 26754.3 26757.5 26760.6 26761.8 26761.2
          26760.5 26759.5 26761 26764.9 26768.7 26774.8 26401 26421.6 26441.6 26461.1 26480.1 26495.9
          26508.4 26520.6 26531.7 26541.7 26551.4 26561.7 26572.3 26582.8 26594.6 26607.7 26618.4 26626.7
          26634.9 26644.6 26655.6 26666.5 26676.2 26684.7 26693.9 26703.8 26713 26721.5 26729.9 26738.4
          26747 26755.5 26763.1 26769.9 26776.6 26783.2 26790.2 26797.6 26804.9 26814.2 26825.5 26834.6
          26841.5 26848.3 26855.5 26863.3 26870.9 26878.5 26886.2 26893.7 26899 26902 26904.9 26907.6
          26910.2 26912.6 26914.9 26913.7 26909.2 26907.3 26908 26908.7 26912 26918 26925.5 26934.7
          26943.8 26952.7 26961.5 26693.3 26702.1 26710.7 26715.5 26716.5 26717.3 26720.6 26726.5 26732.3
          26737.9 26743.5 26748.6 26753.2 26757.8 26393.3 26398.4 26402.8 26406.7 26411.3 26416.7 26423.2
          26430.8 26438.2 26446.4 26455.4 26461.7 26465.3 26468.8 26472.3 26475.7 26483.4 26495.5 26507.4
          26519.1 26530.2 26540.7 26551 26561.1 26571.1 26581 26594.6 26611.9 26629 26645.9 26662.5
          26678.8 26691.7 26701.3 26710.7 26719.8 26728.6 26738.8 26750.2 26761.4 26772.4 26782.4 26791.5
          26800.4 26810.1 26820.5 26830.6 26692.6 26704.1 26715.2 26726 26736.5 26746.7 26756.6 26766.2
          26775.5 26784.5 26793.2 26389 26385.6 26381.6 26378.5 26376.6 26374.5 26372.7 26371.2 26369.7
          26368 26368.7 26371.8 26374.9 26377.8 26383 26390.5 26397.9 26405.4 26410.4 26413 26417.9
          26425 26431.9 26439.4 26447.4 26411.3 26405.3 26403.1 26404.6 26408.2 26413.8 26419.3 26426.5
          26435.3 26444.1 26449.4 26451.5 26453.5 26395.4 26405.1 26414.4 26423.3 26434 26446.6 26459
          26471.1 26481.5 26490.2 26498.8 26507.1 26514.2 26520.2 26526 26531.6 26537 26543.4 26550.9
          26558.2 26565.3 26572.1 26578.8 26585.1 26593.4 26603.4 26613.1 26622.5 26632.2 26642.3 26652.3
          26662 26669.8 26675.7 26681.4 26685.4 26687.7 26689.8 26480 26485.5 26490.9 26496.1 26500.3
          26503.7 26506.8 26509.8 26513.1 26516.7 26520 26523.7 26527.8 26531.6 26535.3 26540.7 26547.8
          26554.7 26561.4 26567.8 26575.8 26585.2 26594.5 26603.6 26612.1 26620.1 26627.8 26633.4 26636.9
          26640.2 26643.3 26646.1 26651.9 26660.5 26669 26677.3 25305.9 25315.5 25324.7 25333.6 25340.4
          25345.1 25349.6 25354 25358.9 25364.3 25369.6 25375 25380.3 25385.5 25392.2 25400.4 25408.4
          25416.1 25422.3 25426.8 25431.1 25436.8 25443.9 25450.8 25456.5 25460.9 25465.2 25470.3 25476.3
          25482.2 25487.9 25494 25500.4 25506.7 25512.8 25455.5 25458 25462.9 25470.4 25477.8 25485.1
          25492.3 24188.2 24195.5 24205.4 24217.2 24228.7 24240.8 24252.7 24264.3 24277 24290.7 24304.1
          24314.1 24320.6 24330.3 24342.9 24353.9 24363.3 24372.4 24381.3 24388.9 24395.4 24191.7 24206.3
          24220.7 24237.9 24251.7 24258.8 24259.3 24281.4 24299.7 24314.2 24328.6 24341.3 24352.4 24362.7
          24369.4 24373.3 24373.8 24370.9 24370.6 24373.1 24376.4 24380.5 24384.4 24388.2 24391.2 24393.3
          24395.3 24364.7 24378 24391.2 24404 24416.3 24428.5 24439.8 24450.1 24460.2 24471.1 24482.7
          24494.1 24505.4 24516.5 24527.1 24537.1 24547 24556.6 24563.5 24567.8 24571.9 24575.9 24579.7
          24586.3 24595.9 24605.2 24614.3 24623.2 24631.9 24564.9 24571.9 24578.7 24585.3 24591.6 24597.7
          24603.7 24609.3 24617.4 24627.7 24637.9 24647.8 24657.5 24665.5 24671.7 24677.8 24683.7 24687.8
          24690 24692.9 24696.4 24699.9 24703.2 24663.1 24664.5 24665.7 24666.7 24667.5 24466.3 24468.5
          24470.6 24470.9 24469.4 24467.8 24466 24464.2 24462.2 23268.1 23283.4 23298.1 23312.3 23326.1
          23337.7 23347.2 23355.8 23363.4 23371.2 23379.2 23387 23394.1 23397.9 23398.8 23399.4 23399.8
          23399.9 23399.8 23399.4 23399.3 23403 23406.5 23410.6 23415.2 23419.7 23355.1 23361.2 23365.8
          23368.9 23372.3 23376 23379.1 23381.8 23384.3 23385.4 23385.1 23384.6 23384.1 23383.4 23339.6
          23352.8 23365.9 23378.8 23389.2 23397.1 23404.2 23410.6 23415 23417.6 23420 23422.1 23425.7
          23430.9 23435 23438 23439.6 23439.8 23442.2 23446.9 23451.5 23455.9 23459.4 23461.8 23464.2
          23268.2 23283.7 23298.8 23313.5 23331.6 23350.1 23365.2 23378.7 23390.5 23401.1 23410.5 23421.9
          23435.4 23447 23456.6 23467.4 23479.3 23490.8 23502.1 23514.7 23528.6 23539.2 23546.5 23553.6
          23560.5 23568.3 23577.2 23585.5 23593.3 23600.9 23608.1 23614.8 23621.4 23625.3 23626.5 23627.6
          23629.5 23632.2 23635.6 23639.5 23644.3 23650 23655.4 23659.8 23663.2 23666.4 23442.4 23443
          23443.3 23443.3 23442.6 23441.1 23441.9 23444.9 23447.7 23453.5 23462.3 23266.7 23279.5 23291.7
          23303.6 23315 23326.9 23339.2 23351.3 23365.1 23380.6 23395.8 23410.6 23425.2 23439.4 23453.3
          23466.9 23480.1 23492.9 23504.2 23514.1 23523.8 23532.6 23540.5 23548 23555.2 23562.1 23568.6
          23574.8 23580.7 23590.3 23603.2 23615.9 23628.1 23640 23650.4 23659.4 23668 23676.4 23684.5
          23689.7 23692 23694.2 23692.5 23686.8 23680.9 23677.1 23675.2 23673.3 23676.5 23684.9 23693
          23701.4 23710 23715.8 23719 21383.9 21396.6 21408.8 21420.1 21430.6 21440.9 21450.8 21460.6
          21468.3 21473.9 21479.3 21484.5 21490.5 21497.4 21504.1 21509.9 21514.9 21519.7 21522.8 21524.3
          21525.7 21526.8 21527.9 21469.4 21477.4 21482.9 21486 21488.9 21494 21501.3
        </DataArray>
        <DataArray type="Float32" Name="rho" NumberOfComponents="1" format="ascii">
          1000 1000 1000 1000 1000 1000 1000 1000 1000 1000 1000 1000
          1000 1000 1000 1000 1000 1000 1000 1000 1000 1000 1000 1000
          1000 1000 1000 1000 1000 1000 1000 1000 1000 1000 1000 1000
          1000 1000 1000 1000 1000 1000 1000 1000 1000 1000 1000 1000
          1000 1000 1000 1000 1000 1000 1000 1000 1000 1000 1000 1000
          1000 1000 1000 1000 1000 1000 1000 1000 1000 1000 1000 1000
          1000 1000 1000 1000 1000 1000 1000 1000 1000 1000 1000 1000
          1000 1000 1000 1000 1000 1000 1000 1000 1000 1000 1000 1000
          1000 1000 1000 1000 1000 1000 1000 1000 1000 1000 1000 1000
          1000 1000 1000 1000 1000 1000 1000 1000 1000 1000 1000 1000
          1000 1000 1000 1000 1000 1000 1000 1000 1000 1000 1000 1000
          1000 1000 1000 1000 1000 1000 1000 1000 1000 1000 1000 1000
          1000 1000 1000 1000 1000 1000 1000 1000 1000 1000 1000 1000
          1000 1000 1000 1000 1000 1000 1000 1000 1000 1000 1000 1000
          1000 1000 1000 1000 1000 1000 1000 1000 1000 1000 1000 1000
          1000 1000 1000 1000 1000 1000 1000 1000 1000 1000 1000 1000
          1000 1000 1000 1000 1000 1000 1000 1000 1000 1000 1000 1000
          1000 1000 1000 1000 1000 1000 1000 1000 1000 1000 1000 1000
          1000 1000 1000 1000 1000 1000 1000 1000 1000 1000 1000 1000
          1000 1000 1000 1000 1000 1000 1000 1000 1000 1000 1000 1000
          1000 1000 1000 1000 1000 1000 1000 1000 1000 1000 1000 1000
          1000 1000 1000 1000 1000 1000 1000 1000 1000 1000 1000 1000
          1000 1000 1000 1000 1000 1000 1000 1000 1000 1000 1000 1000
          1000 1000 1000 1000 1000 1000 1000 1000 1000 1000 1000 1000
          1000 1000 1000 1000 1000 1000 1000 1000 1000 1000 1000 1000
          1000 1000 1000 1000 1000 1000 1000 1000 1000 1000 1000 1000
          1000 1000 1000 1000 1000 1000 1000 1000 1000 1000 1000 1000
          1000 1000 1000 1000 1000 1000 1000 1000 1000 1000 1000 1000
          1000 1000 1000 1000 1000 1000 1000 1000 1000 1000 1000 1000
          1000 1000 1000 1000 1000 1000 1000 1000 1000 1000 1000 1000
          1000 1000 1000 1000 1000 1000 1000 1000 1000 1000 1000 1000
          1000 1000 1000 1000 1000 1000 1000 1000 1000 1000 1000 1000
          1000 1000 1000 1000 1000 1000 1000 1000 1000 1000 1000 1000
          1000 1000 1000 1000 1000 1000 1000 1000 1000 1000 1000 1000
          1000 1000 1000 1000 1000 1000 1000 1000 1000 1000 1000 1000
          1000 1000 1000 1000 1000 1000 1000 1000 1000 1000 1000 1000
          1000 1000 1000 1000 1000 1000 1000 1000 1000 1000 1000 1000
          1000 1000 1000 1000 1000 1000 1000 1000 1000 1000 1000 1000
          1000 1000 1000 1000 1000 1000 1000 1000 1000 1000 1000 1000
          1000 1000 1000 1000 1000 1000 1000 1000 1000 1000 1000 1000
          1000 1000 1000 1000 1000 1000 1000 1000 1000 1000 1000 1000
          1000 1000 1000 1000 1000 1000 1000 1000 1000 1000 1000 1000
          1000 1000 1000 1000 1000 1000 1000 1000 1000 1000 1000 1000
          1000 1000 1000 1000 1000 1000 1000 1000 1000 1000 1000 1000
          1000 1000 1000 1000 1000 1000 1000 1000 1000 1000 1000 1000
          1000 1000 1000 1000 1000 1000 1000 1000 1000 1000 1000 1000
          1000 1000 1000 1000 1000 1000 1000 1000 1000 1000 1000 1000
          1000 1000 1000 1000 1000 1000 1000 1000 1000 1000 1000 1000
          1000 1000 1000 1000 1000 1000 1000 1000 1000 1000 1000 1000
          1000 1000 1000 1000 1000 1000 1000 1000 1000 1000 1000 1000
          1000 1000 1000 1000 1000 1000 1000 1000 1000 1000 1000 1000
          1000 1000 1000 1000 1000 1000 1000 1000 1000 1000 1000 1000
          1000 1000 1000 1000 1000 1000 1000 1000 1000 1000 1000 1000
          1000 1000 1000 1000 1000 1000 1000 1000 1000 1000 1000 1000
          1000 1000 1000 1000 1000 1000 1000 1000 1000 1000 1000 1000
          1000 1000 1000 1000 1000 1000 1000 1000 1000 1000 1000 1000
          1000 1000 1000 1000 1000 1000 1000 1000 1000 1000 1000 1000
          1000 1000 1000 1000 1000 1000 1000 1000 1000 1000 1000 1000
          1000 1000 1000 1000 1000 1000 1000 1000 1000 1000 1000 1000
          1000 1000 1000 1000 1000 1000 1000 1000 1000 1000 1000 1000
          1000 1000 1000 1000 1000 1000 1000 1000 1000 1000 1000 1000
          1000 1000 1000 1000 1000 1000 1000 1000 1000 1000 1000 1000
          1000 1000 1000 1000 1000 1000 1000 1000 1000 1000 1000 1000
          1000 1000 1000 1000 1000 1000 1000 1000 1000 1000 1000 1000
          1000 1000 1000 1000 1000 1000 1000 1000 1000 1000 1000 1000
          1000 1000 1000 1000 1000 1000 1000 1000 1000 1000 1000 1000
          1000 1000 1000 1000 1000 1000 1000 1000 1000 1000 1000 1000
          1000 1000 1000 1000 1000 1000 1000 1000 1000 1000 1000 1000
          1000 1000 1000 1000 1000 1000 1000 1000 1000 1000 1000 1000
          1000 1000 1000 1000 1000 1000 1000 1000 1000 1000 1000 1000
          1000 1000 1000 1000 1000 1000 1000 1000 1000 1000 1000 1000
          1000 1000 1000 1000 1000 1000 1000 1000 1000 1000 1000 1000
          1000 1000 1000 1000 1000 1000 1000 1000 1000 1000 1000 1000
          1000 1000 1000 1000 1000 1000 1000 1000 1000 1000 1000 1000
          1000 1000 1000 1000 1000 1000 1000 1000 1000 1000 1000 1000
          1000 1000 1000 1000 1000 1000 1000 1000 1000 1000 1000 1000
          1000 1000 1000 1000 1000 1000 1000 1000 1000 1000 1000 1000
          1000 1000 1000 1000 1000 1000 1000 1000 1000 1000 1000 1000
          1000 1000 1000 1000 1000 1000 1000 1000 1000 1000 1000 1000
          1000 1000 1000 1000 1000 1000 1000 1000 1000 1000 1000 1000
          1000 1000 1000 1000 1000 1000 1000 1000 1000 1000 1000 1000
          1000 1000 1000 1000 1000 1000 1000 1000 1000 1000 1000 1000
          1000 1000 1000 1000 1000 1000 1000 1000 1000 1000 1000 1000
          1000 1000 1000 1000 1000 1000 1000 1000 1000 1000 1000 1000
          1000 1000 1000 1000 1000 1000 1000 1000 1000 1000 1000 1000
          1000 1000 1000 1000 1000 1000 1000 1000 1000 1000 1000 1000
          1000 1000 1000 1000 1000 1000 1000 1000 1000 1000 1000 1000
          1000 1000 1000 1000 1000 1000 1000 1000 1000 1000 1000 1000
          1000 1000 1000 1000 1000 1000 1000 1000 1000 1000 1000 1000
          1000 1000 1000 1000 1000 1000 1000 1000 1000 1000 1000 1000
          1000 1000 1000 1000 1000 1000 1000 1000 1000 1000 1000 1000
          1000 1000 1000 1000 1000 1000 1000 1000 1000 1000 1000 1000
          1000 1000 1000 1000 1000 1000 1000 1000 1000 1000 1000 1000
          1000 1000 1000 1000 1000 1000 1000 1000 1000 1000 1000 1000
          1000 1000 1000 1000 1000 1000 1000 1000 1000 1000 1000 1000
          1000 1000 1000 1000 1000 1000 1000 1000 1000 1000 1000 1000
          1000 1000 1000 1000 1000 1000 1000 1000 1000 1000 1000 1000
          1000 1000 1000 1000 1000 1000 1000 1000 1000 1000 1000 1000
          1000 1000 1000 1000 1000 1000 1000 1000 1000 1000 1000 1000
          1000 1000 1000 1000 1000 1000 1000 1000 1000 1000 1000 1000
          1000 1000 1000 1000 1000 1000 1000 1000 1000 1000 1000 1000
          1000 1000 1000 1000 1000 1000 1000 1000 1000 1000 1000 1000
          1000 1000 1000 1000 1000 1000 1000 1000 1000 1000 1000 1000
          1000 1000 1000 1000 1000 1000 1000 1000 1000 1000 1000 1000
          1000 1000 1000 1000 1000 1000 1000 1000 1000 1000 1000 1000
          1000 1000 1000 1000 1000 1000 1000 1000 1000 1000 1000 1000
          1000 1000 1000 1000 1000 1000 1000 1000 1000 1000 1000 1000
          1000 1000 1000 1000 1000 1000 1000 1000 1000 1000 1000 1000
          1000 1000 1000 1000 1000 1000 1000 1000 1000 1000 1000 1000
          1000 1000 1000 1000 1000 1000 1000 1000 1000 1000 1000 1000
          1000 1000 1000 1000 1000 1000 1000 1000 1000 1000 1000 1000
          1000 1000 1000 1000 1000 1000 1000 1000 1000 1000 1000 1000
          1000 1000 1000 1000 1000 1000 1000 1000 1000 1000 1000 1000
          1000 1000 1000 1000 1000 1000 1000 1000 1000 1000 1000 1000
          1000 1000 1000 1000 1000 1000 1000 1000 1000 1000 1000 1000
          1000 1000 1000 1000 1000 1000 1000 1000 1000 1000 1000 1000
          1000 1000 1000 1000 1000 1000 1000 1000 1000 1000 1000 1000
          1000 1000 1000 1000 1000 1000 1000 1000 1000 1000 1000 1000
          1000 1000 1000 1000 1000 1000 1000 1000 1000 1000 1000 1000
          1000 1000 1000 1000 1000 1000 1000 1000 1000 1000 1000 1000
          1000 1000 1000 1000 1000 1000 1000 1000 1000 1000 1000 1000
          1000 1000 1000 1000 1000 1000 1000 1000 1000 1000 1000 1000
          1000 1000 1000 1000 1000 1000 1000 1000 1000 1000 1000 1000
          1000 1000 1000 1000 1000 1000 1000 1000 1000 1000 1000 1000
          1000 1000 1000 1000 1000 1000 1000 1000 1000 1000 1000 1000
          1000 1000 1000 1000 1000 1000 1000 1000 1000 1000 1000 1000
          1000 1000 1000 1000 1000 1000 1000 1000 1000 1000 1000 1000
          1000 1000 1000 1000 1000 1000 1000 1000 1000 1000 1000 1000
          1000 1000 1000 1000 1000 1000 1000 1000 1000 1000 1000 1000
          1000 1000 1000 1000 1000 1000 1000 1000 1000 1000 1000 1000
          1000 1000 1000 1000 1000 1000 1000 1000 1000 1000 1000 1000
          1000 1000 1000 1000 1000 1000 1000 1000 1000 1000 1000 1000
          1000 1000 1000 1000 1000 1000 1000 1000 1000 1000 1000 1000
          1000 1000 1000 1000 1000 1000 1000 1000 1000 1000 1000 1000
          1000 1000 1000 1000 1000 1000 1000 1000 1000 1000 1000 1000
          1000 1000 1000 1000 1000 1000 1000 1000 1000 1000 1000 1000
          1000 1000 1000 1000 1000 1000 1000 1000 1000 1000 1000 1000
          1000 1000 1000 1000 1000 1000 1000 1000 1000 1000 1000 1000
          1000 1000 1000 1000 1000 1000 1000 1000 1000 1000 1000 1000
          1000 1000 1000 1000 1000 1000 1000 1000 1000 1000 1000 1000
          1000 1000 1000 1000 1000 1000 1000 1000 1000 1000 1000 1000
          1000 1000 1000 1000 1000 1000 1000 1000 1000 1000 1000 1000
          1000 1000 1000 1000 1000 1000 1000 1000 1000 1000 1000 1000
          1000 1000 1000 1000 1000 1000 1000 1000 1000 1000 1000 1000
          1000 1000 1000 1000 1000 1000 1000 1000 1000 1000
        </DataArray>
        <DataArray type="Float32" Name="mu" NumberOfComponents="1" format="ascii">
          0.001 0.001 0.001 0.001 0.001 0.001 0.001 0.001 0.001 0.001 0.001 0.001
          0.001 0.001 0.001 0.001 0.001 0.001 0.001 0.001 0.001 0.001 0.001 0.001
          0.001 0.001 0.001 0.001 0.001 0.001 0.001 0.001 0.001 0.001 0.001 0.001
          0.001 0.001 0.001 0.001 0.001 0.001 0.001 0.001 0.001 0.001 0.001 0.001
          0.001 0.001 0.001 0.001 0.001 0.001 0.001 0.001 0.001 0.001 0.001 0.001
          0.001 0.001 0.001 0.001 0.001 0.001 0.001 0.001 0.001 0.001 0.001 0.001
          0.001 0.001 0.001 0.001 0.001 0.001 0.001 0.001 0.001 0.001 0.001 0.001
          0.001 0.001 0.001 0.001 0.001 0.001 0.001 0.001 0.001 0.001 0.001 0.001
          0.001 0.001 0.001 0.001 0.001 0.001 0.001 0.001 0.001 0.001 0.001 0.001
          0.001 0.001 0.001 0.001 0.001 0.001 0.001 0.001 0.001 0.001 0.001 0.001
          0.001 0.001 0.001 0.001 0.001 0.001 0.001 0.001 0.001 0.001 0.001 0.001
          0.001 0.001 0.001 0.001 0.001 0.001 0.001 0.001 0.001 0.001 0.001 0.001
          0.001 0.001 0.001 0.001 0.001 0.001 0.001 0.001 0.001 0.001 0.001 0.001
          0.001 0.001 0.001 0.001 0.001 0.001 0.001 0.001 0.001 0.001 0.001 0.001
          0.001 0.001 0.001 0.001 0.001 0.001 0.001 0.001 0.001 0.001 0.001 0.001
          0.001 0.001 0.001 0.001 0.001 0.001 0.001 0.001 0.001 0.001 0.001 0.001
          0.001 0.001 0.001 0.001 0.001 0.001 0.001 0.001 0.001 0.001 0.001 0.001
          0.001 0.001 0.001 0.001 0.001 0.001 0.001 0.001 0.001 0.001 0.001 0.001
          0.001 0.001 0.001 0.001 0.001 0.001 0.001 0.001 0.001 0.001 0.001 0.001
          0.001 0.001 0.001 0.001 0.001 0.001 0.001 0.001 0.001 0.001 0.001 0.001
          0.001 0.001 0.001 0.001 0.001 0.001 0.001 0.001 0.001 0.001 0.001 0.001
          0.001 0.001 0.001 0.001 0.001 0.001 0.001 0.001 0.001 0.001 0.001 0.001
          0.001 0.001 0.001 0.001 0.001 0.001 0.001 0.001 0.001 0.001 0.001 0.001
          0.001 0.001 0.001 0.001 0.001 0.001 0.001 0.001 0.001 0.001 0.001 0.001
          0.001 0.001 0.001 0.001 0.001 0.001 0.001 0.001 0.001 0.001 0.001 0.001
          0.001 0.001 0.001 0.001 0.001 0.001 0.001 0.001 0.001 0.001 0.001 0.001
          0.001 0.001 0.001 0.001 0.001 0.001 0.001 0.001 0.001 0.001 0.001 0.001
          0.001 0.001 0.001 0.001 0.001 0.001 0.001 0.001 0.001 0.001 0.001 0.001
          0.001 0.001 0.001 0.001 0.001 0.001 0.001 0.001 0.001 0.001 0.001 0.001
          0.001 0.001 0.001 0.001 0.001 0.001 0.001 0.001 0.001 0.001 0.001 0.001
          0.001 0.001 0.001 0.001 0.001 0.001 0.001 0.001 0.001 0.001 0.001 0.001
          0.001 0.001 0.001 0.001 0.001 0.001 0.001 0.001 0.001 0.001 0.001 0.001
          0.001 0.001 0.001 0.001 0.001 0.001 0.001 0.001 0.001 0.001 0.001 0.001
          0.001 0.001 0.001 0.001 0.001 0.001 0.001 0.001 0.001 0.001 0.001 0.001
          0.001 0.001 0.001 0.001 0.001 0.001 0.001 0.001 0.001 0.001 0.001 0.001
          0.001 0.001 0.001 0.001 0.001 0.001 0.001 0.001 0.001 0.001 0.001 0.001
          0.001 0.001 0.001 0.001 0.001 0.001 0.001 0.001 0.001 0.001 0.001 0.001
          0.001 0.001 0.001 0.001 0.001 0.001 0.001 0.001 0.001 0.001 0.001 0.001
          0.001 0.001 0.001 0.001 0.001 0.001 0.001 0.001 0.001 0.001 0.001 0.001
          0.001 0.001 0.001 0.001 0.001 0.001 0.001 0.001 0.001 0.001 0.001 0.001
          0.001 0.001 0.001 0.001 0.001 0.001 0.001 0.001 0.001 0.001 0.001 0.001
          0.001 0.001 0.001 0.001 0.001 0.001 0.001 0.001 0.001 0.001 0.001 0.001
          0.001 0.001 0.001 0.001 0.001 0.001 0.001 0.001 0.001 0.001 0.001 0.001
          0.001 0.001 0.001 0.001 0.001 0.001 0.001 0.001 0.001 0.001 0.001 0.001
          0.001 0.001 0.001 0.001 0.001 0.001 0.001 0.001 0.001 0.001 0.001 0.001
          0.001 0.001 0.001 0.001 0.001 0.001 0.001 0.001 0.001 0.001 0.001 0.001
          0.001 0.001 0.001 0.001 0.001 0.001 0.001 0.001 0.001 0.001 0.001 0.001
          0.001 0.001 0.001 0.001 0.001 0.001 0.001 0.001 0.001 0.001 0.001 0.001
          0.001 0.001 0.001 0.001 0.001 0.001 0.001 0.001 0.001 0.001 0.001 0.001
          0.001 0.001 0.001 0.001 0.001 0.001 0.001 0.001 0.001 0.001 0.001 0.001
          0.001 0.001 0.001 0.001 0.001 0.001 0.001 0.001 0.001 0.001 0.001 0.001
          0.001 0.001 0.001 0.001 0.001 0.001 0.001 0.001 0.001 0.001 0.001 0.001
          0.001 0.001 0.001 0.001 0.001 0.001 0.001 0.001 0.001 0.001 0.001 0.001