<?xml version="1.0"?>
<VTKFile type="UnstructuredGrid" version="0.1" byte_order="LittleEndian">
  <UnstructuredGrid>
    <Piece NumberOfCells="1670" NumberOfPoints="911">
      <CellData Scalars="S_aq">
        <DataArray type="Float32" Name="S_aq" NumberOfComponents="1" format="ascii">
          0.999881 0.0660786 0.0629166 0.116881 1 0.0748199 0.830084 1 0.996925 0.999998 0.984197 1
          0.998386 1 0.948177 1 1 0.970457 0.987002 1 1 0.933354 1 1
          0.9919 1 0.618293 1 1 0.692604 1 1 0.0639105 0.724668 1 0.067668
          1 0.872374 1 1 0.996904 0.998315 0.997646 0.9984 1 0.998328 0.953061 1
          0.8123 1 0.0808168 1 1 0.063076 1 0.167231 0.736855 1 0.0654408 1
          0.998685 1 1 0.0675195 0.69914 0.077158 1 0.208677 1 1 1 0.119234
          0.860626 0.999589 1 0.993979 0.994618 1 1 0.16384 0.998235 0.914226 1 1
          0.951357 0.994349 1 1 0.658304 1 1 0.0627688 1 0.633463 1 1
          0.0658679 0.999109 0.0984851 0.782179 1 0.0741073 1 1 1 0.90972 0.566952 1
          0.078194 0.31945 0.998461 0.0627077 0.0752214 0.843759 1 0.76708 1 0.0665093 1 1
          1 0.0767573 0.774052 0.0658919 0.0698134 0.368173 1 0.840192 1 0.0811398 0.997921 0.129363
          1 0.991456 0.992343 0.985355 0.98928 1 1 1 1 1 0.15031 1
          0.11784 0.865822 0.846139 1 1 1 1 0.0883874 1 1 0.0696631 0.816025
          1 0.0652524 0.742548 0.0688884 1 0.646883 0.426904 0.106674 0.952011 0.956546 0.826865 1
          0.948113 0.936549 1 0.25853 1 0.997477 1 0.998609 0.823043 1 0.0701694 0.0948059
          1 0.995733 0.140491 0.901301 0.998532 1 1 0.319579 1 1 1 1
          1 0.998696 1 0.998245 1 0.362339 0.999053 0.992996 0.994614 0.984558 0.931735 0.931283
          0.606568 0.105638 0.0696942 1 0.0743088 1 0.489732 0.167569 0.905815 0.996999 0.999929 1
          1 1 0.0648858 0.0688817 1 1 0.727232 0.657591 0.845184 1 0.062069 1
          0.565941 0.69254 1 0.0630831 1 1 0.41962 1 0.998693 0.998155 1 0.076766
          1 0.775762 0.26109 0.999803 0.999581 0.99999 1 1 1 1 1 1
          0.108591 1 1 1 1 1 1 1 0.275065 0.36825 1 0.828356
          0.809868 1 1 1 1 1 1 1 1 0.632007 1 1
          1 1 1 0.477693 1 1 1 1 1 1 1 1
          0.0928551 1 1 1 1 1 1 1 1 1 0.791869 1
          0.856095 1 0.145223 0.999996 1 1 1 1 1 0.981048 1 1
          1 1 1 1 1 1 1 1 1 1 1 0.526594
          1 1 1 1 1 1 1 0.726541 1 1 1 1
          1 1 0.701811 1 1 1 1 1 1 1 1 1
          1 1 1 0.616957 0.999391 1 1 1 1 1 1 1
          1 1 1 1 1 1 1 1 1 1 1 1
          1 1 0.498478 1 1 1 1 1 1 1 1 1
          1 1 1 0.82001 0.100768 1 1 0.15091 1 1 1 1
          1 1 1 1 0.997646 1 1 1 1 1 1 0.998342
          1 0.997935 1 1 1 1 0.996254 1 1 1 1 1
          0.999243 1 0.288498 1 1 1 1 1 1 1 1 1
          0.870418 1 1 1 1 1 1 1 0.999394 1 1 0.667794
          1 1 1 1 1 1 1 0.199571 1 1 0.998514 1
          1 1 1 1 1 1 1 1 1 1 0.820286 1
          1 1 1 1 1 1 0.998901 1 1 1 1 1
          1 1 1 1 1 1 1 1 1 1 1 0.663312
          0.996101 1 1 0.998059 1 1 1 1 1 1 1 1
          1 1 1 1 1 1 1 1 1 0.290002 0.99918 1
          1 1 0.992547 1 1 1 0.721056 0.842621 1 0.609225 1 1
          0.981983 1 1 1 1 1 0.91146 0.507156 1 1 1 1
          1 0.999218 1 1 1 1 1 1 0.324689 1 1 0.9995
          0.856101 1 1 0.151599 1 1 1 1 1 1 1 1
          1 1 1 0.684627 1 1 1 0.927239 1 1 1 1
          1 1 1 1 1 1 1 1 1 1 0.901227 0.993237
          1 0.688575 1 1 1 1 1 1 1 1 1 1
          1 1 1 1 1 1 0.848113 1 1 1 1 1
          0.900501 1 1 1 1 1 1 1 1 1 1 1
          1 1 1 1 1 1 1 1 1 1 1 1
          1 1 1 1 1 1 1 1 1 1 1 1
          1 1 1 1 1 0.679393 1 1 1 1 1 1
          1 1 1 1 1 1 1 1 1 1 1 1
          1 1 0.819651 1 1 1 1 1 1 1 1 1
          1 1 1 1 1 1 1 1 1 1 1 1
          0.948591 0.999156 1 0.733383 1 1 1 1 1 1 0.244377 0.741145
          0.797814 1 1 1 1 1 1 1 1 1 1 1
          1 1 1 1 1 1 1 1 0.352061 1 1 1
          1 1 1 1 1 0.987245 1 1 1 1 1 1
          0.977104 1 1 1 1 1 1 1 1 1 1 1
          1 1 1 1 1 0.998062 1 0.977162 1 1 1 1
          0.966716 1 0.815588 1 1 0.120861 1 1 1 1 1 1
          1 1 1 0.812969 1 1 1 1 1 1 1 1
          1 1 1 0.967989 1 1 1 1 1 1 1 1
          1 0.999632 1 1 1 1 1 1 1 0.0896472 1 1
          0.999716 0.381818 0.136423 1 1 1 1 0.998291 1 1 1 1
          1 1 1 1 1 1 1 1 1 0.529948 1 1
          1 1 1 0.652184 1 1 1 1 1 1 1 1
          0.67354 1 1 1 0.91577 1 1 1 1 1 1 0.194585
          1 1 1 1 1 1 1 1 0.711087 1 0.99798 1
          1 0.155249 1 1 1 0.999037 1 1 1 0.223783 1 1
          1 1 1 1 0.59751 1 0.449458 1 1 1 0.999926 0.999979
          1 1 1 1 0.460446 1 1 1 1 1 1 1
          1 0.660392 1 1 1 1 1 1 1 1 1 1
          1 1 0.568621 0.995022 1 0.231806 1 1 0.963277 1 1 1
          1 1 1 1 0.995548 1 1 1 1 1 1 1
          0.89891 1 0.794045 1 1 1 1 0.990909 0.629705 0.718817 0.974537 1
          0.834264 1 0.97165 1 1 1 1 1 0.954652 1 1 1
          1 1 0.0927545 1 1 0.135041 1 1 1 1 1 1
          1 1 0.779253 1 1 0.998616 0.99454 1 0.93461 1 0.327539 1
          1 1 1 1 1 1 1 1 1 1 1 1
          1 1 1 1 1 0.125476 0.801031 0.923213 1 1 1 1
          1 0.430034 1 0.842741 0.923014 1 1 1 1 1 1 1
          1 1 1 1 1 0.917445 1 1 1 1 0.924026 0.823034
          1 1 0.907306 1 1 1 1 1 1 1 1 1
          1 1 1 1 1 1 1 1 1 1 1 1
          1 0.895363 0.569542 1 1 1 1 1 1 1 1 1
          1 1 1 1 1 1 1 1 1 1 1 1
          1 1 1 1 1 1 0.675712 1 1 1 1 1
          1 1 1 1 1 0.743354 1 1 1 1 1 1
          1 1 1 0.904665 1 1 1 1 1 1 0.991415 1
          1 0.381496 1 1 1 1 1 1 1 1 1 1
          1 1 1 1 1 1 1 0.997847 1 1 0.999856 1
          1 1 1 1 1 1 1 1 1 1 0.748752 0.750128
          1 1 1 1 1 1 1 1 1 1 1 1
          1 1 1 1 1 1 1 1 1 1 1 1
          1 1 1 1 1 1 0.995782 1 1 1 1 1
          1 1 1 1 1 1 1 1 1 1 1 1
          1 0.784457 1 1 1 1 1 1 1 1 1 1
          1 0.999028 1 1 1 1 1 1 1 0.982591 1 1
          1 1 1 1 1 1 1 1 1 1 1 1
          1 0.600456 1 0.590146 0.998342 0.991414 1 0.546888 0.996809 1 1 1
          1 1 1 1 1 1 1 1 1 0.277501 0.624844 0.998311
          0.811006 1 0.984901 1 1 1 1 1 0.995861 1 1 1
          1 1 1 1 1 0.820157 1 1 1 1 1 1
          1 1 1 1 1 0.998485 1 1 1 1 1 1
          1 1 1 1 1 1 1 1 1 1 1 1
          1 0.850388 1 1 1 1 1 1 1 1 1 1
          1 1 1 1 1 0.918647 1 1 1 1 0.689039 0.996623
          1 0.479693 1 0.328685 1 1 1 1 1 1 1 1
          0.959449 1 1 1 1 1 1 1 1 0.501049 0.874766 1
          1 0.943116 0.429101 1 0.859567 1 1 1 1 1 1 0.781434
          1 1 1 1 1 0.997425 0.691611 0.999199 1 1 1 0.913575
          0.196177 1 1 1 1 1 1 1 1 1 1 1
          1 1 1 1 1 1 1 1 1 1 1 1
          1 1 1 1 1 1 1 1 1 1 1 0.151522
          0.0928415 1 1 0.221439 1 0.547125 1 1 1 1 1 1
          1 1 1 1 1 1 1 1 1 1 1 1
          1 0.133771 1 1 1 0.222745 1 1 1 1 1 1
          1 1 1 1 1 1 1 0.837318 1 1 1 1
          1 0.105415 1 0.164688 1 1 1 1 1 1 1 0.271612
          1 0.997703 1 1 1 1 1 1 1 1 1 1
          1 1 1 1 1 1 1 1 1 1 1 1
          0.123234 1 1 1 1 1 1 1 0.167312 1 0.334439 1
          1 1 1 1 1 1 0.998303 1 1 1 0.937061 1
          1 0.0910356 1 0.161911 1 1 1 1 1 0.96781 0.805456 1
          1 0.149149 1 0.402754 1 0.998656 1 1 1 1 1 1
          1 1 1 1 1 1 1 1 0.998254 1 1 1
          1 1 1 1 0.750289 1 1 1 0.908214 0.175168 1 1
          1 0.274521 1 1 1 1 1 1 1 1 1 1
          1 1 1 1 1 1 1 1 1 0.779226 1 0.991335
          1 1 1 1 1 1 1 1 1 1 1 1
          1 1 1 1 1 1 1 1 1 1 1 1
          1 0.980408 0.748038 1 1 0.992644 1 1 1 1 1 1
          0.845944 1 0.207843 1 1 1 0.10036 1 0.12176 1 1 1
          1 1 1 1 1 1 1 1 0.993776 1 1 1
          1 1
        </DataArray>
        <DataArray type="Float32" Name="p_aq" NumberOfComponents="1" format="ascii">
          96461.7 100267 100683 99792.4 91058.7 100139 91347.7 91390.3 91020.8 96384.7 96414.1 95071.1
          97513.3 93658.5 96264 95251.2 93220.4 97959.9 96636.1 92678.3 97117.4 94053.2 93140.4 97337
          93828.5 94075.1 98476.3 92700.2 95709.5 95159.4 91056.4 95132.3 100360 94695 94669.6 100029
          91291.4 96232 95632.3 93858.6 98013.7 93160.5 96464.2 94669.6 96789.4 94357.5 95819.6 95285.5
          94569.7 94537.2 99407.6 91787.3 91030.5 100606 97959.3 98011.4 93182.1 93203 100251 91020
          95983.8 91329.9 95676.1 100068 95714.9 99128.4 93640.4 98983.9 92192.9 92291.9 95622.9 98870.5
          95710.9 94591.7 93873 94973.9 94502.6 96642.2 92235.8 98196.4 98165 92995 93655.9 97096
          95238.6 94068.3 94465.7 94730.8 96151.3 90973 96121.9 100555 95001.8 98355.7 92829.2 91295
          100293 98354.4 98414.8 92789.7 92812.2 99924.3 91281.2 92168.9 97550.4 93619.4 97577.9 93029
          99038.6 98913.6 92253.5 100737 99052 98871.1 90981.7 92263 92300.2 100261 90955.9 91862
          95853.8 99358.1 95917.4 100329 99460 99211.3 91311.5 91935.8 91970.7 99878.1 91282.3 98405.9
          92827.4 98347 92817.8 97292.6 97464.6 93693.6 96160.3 92356.4 95214.4 92149 98834.5 94769
          99039.7 95286.9 94812.6 91244 91736.1 93890.1 91753 99434.6 93702.4 91256.5 100009 93899.2
          97477.2 100300 93697.8 99662.1 97292.3 97326.5 97520.7 98770.8 97186.8 96707.7 97207.9 93221.7
          97549.9 97936.7 95930.5 98370 94173.1 96984.2 94139.3 97010.1 97462.2 91851.6 99542.4 98511.2
          92710.7 98460.8 99330.3 92693.4 91838.5 92559 92766.2 98370.9 96089.8 96554 94593.4 94111.5
          97369.5 93798.8 97558 93613.6 93222.6 98039.8 97952.4 93217.6 95438.3 95915.2 95050.1 94575.8
          98011.5 98683.1 99559.6 91864 99148.8 92192.5 98988.2 99317.6 92166.3 91839.8 95044.5 94610.6
          91192 91686.1 100315 99704.3 96605.6 96742.3 96774.1 96641.3 96669.2 90922.2 100685 97023.7
          97066.1 94151.4 94155.6 100436 90932.1 94555.9 98561.2 92622 95497.7 95279.1 91999.3 99252.3
          96436.6 96486.6 98226.7 95955.6 95059.4 95454.6 96266.5 96289.6 93437.6 93680.7 95841.2 98331
          100117 96067.1 98161.9 97208.1 95846 97652.2 95701 92058.4 99730.5 99811.1 94589.3 96306.4
          96254.5 95020.6 95157.7 96228.9 92817.6 92597.4 95213.4 95016.3 95684.1 98828.4 95378.7 93389.6
          93675.3 95512.4 93251.7 99453 95844 93366.7 95381.3 95284 93653.5 94631.3 91302 96901
          100143 93558 98773.9 96295.7 96298.4 94282 92583.4 95888.3 96416.5 96198.3 95241.3 93938.6
          94401.4 96302.8 99817.3 98611.7 95672.7 95323.3 95586.5 97953.7 95218.2 98927.4 97736.8 97421
          92885.7 95916.4 91661.5 92614.2 94462.1 92411 95886.1 95750.5 95073.5 93082.2 97186.2 99570
          95185 91489.7 95892.7 95682.8 94528.4 94178.6 93978.2 98271 95948.3 96807.4 93315.9 94060.2
          96955.3 94742.9 98767.5 98555.4 96390.5 98429.1 95314.5 95717.4 94161.6 91132.4 97351.4 95040.2
          94306.9 95472.1 96176.2 99063.8 97719.5 97349.1 95276.5 93584.3 95549.7 93674.4 95500.7 95368.1
          95558.2 96019.7 94531.6 91955.1 96255.6 98617.5 92003.7 94535 95949.1 95585.8 93498.6 97060.4
          95165.5 95204.9 99507.1 96687.7 96860.1 96714.4 91596.1 91939.2 93025.9 94693.8 98423.2 98289.3
          92324.3 93887.7 94628 97011.7 100147 96756 97829.1 99860.4 95430.6 97687.3 93389.8 98390.8
          94875 96707.4 97442.4 93900.7 98559.9 96968.8 96074.3 97868.9 95881.1 93150.9 97178.5 98232.9
          94857.6 92739.8 97619.9 92258.4 97255.2 94309.4 95390.2 95253.9 96199.1 95409 93937.3 92464.6
          96780.6 94937.2 99733.4 97463.9 92294.8 93213.9 94196.5 96111.5 95311.4 92259.7 95358.8 96381.7
          99233.6 92956 98519.8 95542.1 97469.4 92796.5 95521.5 93991.7 92256.6 98003.1 95220.1 98296
          95005.6 94062.6 96122 94232 95329 92665 93746.8 99988.4 93983.4 96504.9 98816.5 94401
          95751.5 96580.7 93695.8 93248.4 97502.1 95499.2 96058.8 94883.4 95170.8 91385.5 99227.8 91331.4
          91887.8 96003.6 95043.8 91306.8 91874.5 96747.8 98185.8 97016.6 94737.6 92969.3 97968 93155.6
          95334.1 94074.5 95161.2 94013.4 96967.8 91022.7 91347.8 91883.8 92752.5 95427.7 92897 97685
          94580.2 93676.3 95412.2 93892 96610.1 93133.2 94557.2 94965.7 97139.8 93406.1 94258.8 94569.1
          94361 93399.9 93222.5 93547.3 96711.4 92238.1 94544.7 96707.8 94538.8 99779.3 97720.2 94592.7
          94491.4 92087.4 99057.7 92929.2 95164.2 95006.9 97740.2 99307.2 95450.2 99368.1 95020 94700.8
          98890.4 95602.9 94491.9 94618.9 94938.9 92795.6 98916.3 99259.6 95059.4 92641.2 96371.1 97760.2
          94309.9 97257.5 94925.4 96089.5 94927.3 94083 94169.5 95382.8 99785.9 94591.4 96342.3 97242.8
          93361 97171.9 94151.9 100112 95221.7 94166.3 91565.9 91999.8 94689.5 91247.7 97615.8 91108.9
          94883.2 93787.8 96422.1 99276.1 94801.6 94464.6 97366.6 92422.8 98002.7 95414.3 96400.6 97015.7
          93649 95027.5 95582.1 98508.8 98258.1 91393.9 91564.2 94902.5 98969.2 91236.6 91323.2 98988.4
          93244 99345.6 95695 96103.7 95721.3 95195 96700.6 91755.2 96586.5 98136 93982 94921.5
          95502.2 92129.6 92180.9 92234.1 98363 97855.9 92531.9 97901 90918.6 97537.7 96883.7 94226.4
          99074 95298.5 92701.1 92772.4 94862.2 98072.3 97524.4 94891.5 95539.5 95480.4 95834.7 93670.5
          92701.5 95301.2 95310.4 98148.9 97769.8 97228.6 94565.9 96757.5 96443.6 94541.1 92867.8 96046
          96778.1 95374.6 95333.9 96590.6 95348.8 95249.4 95361.1 95315.1 97993.4 97860.5 95463.5 96520.6
          94988.7 95364.5 94673.5 95318.1 94844.1 98785.3 93601.5 91027.5 94065.8 91385.4 93168.7 94573.8
          92226.1 96043.3 94764.1 91345.1 97928.2 96014.3 93935 94973.2 95713.6 95212.3 95126.3 94871.6
          95567.4 96242.5 96403.7 95662.7 94872.4 98322.8 91831.5 95589.1 96618.4 95712.8 95475.5 98211.1
          95328.2 95420.4 95143.6 92687.4 95183.1 94932.6 95939.6 95003.5 96404 96013.5 95832 97355.2
          99127 98740.5 95214.5 98188.8 95232.6 95085.5 96083.9 96189.6 96865.5 95122.6 99930.5 98720.4
          96323.1 95801.5 95137.1 94728.8 96595.6 97743.9 97873.8 97300.7 97215.8 97806.5 98366.6 98721.2
          94136.6 95363.2 94961.3 92250 95402 93992.5 92440.2 96165.1 99763.4 94495.5 97666.4 97440.9
          94304 97393.9 92641.4 93133 96520.7 94058 96018.3 97965.6 94218.5 94136 94926 95240.6
          95489.9 95931 94400.7 95282.1 95518.6 93827.7 94628 95509.5 93528.6 97194.8 93064.4 93190
          95614 95814.4 96588.8 93941.2 94417.1 96797.2 95517 94796 91856.2 92201 94436.6 97072.8
          93411.4 95222.3 97035.4 95516.5 93809 100102 95084 92488.8 95587.6 93661.7 94613.1 94348
          96702.1 97158.2 97773.6 99337.8 97413.5 92259.3 96651 96800.8 91117.5 95838.4 96637.1 96194
          92854.8 94527.7 97959.8 92429.4 94796.7 94580.7 94177.7 96800.2 95847.3 95295.9 95288.7 96151.9
          95620.6 97581.2 95242.6 95044.5 94023.6 92008.3 93795.5 92141.7 96172.2 100176 98139.7 95592.4
          97161.1 99584.4 99850.3 96284.2 96392.7 98626.1 98094.8 98890.8 97020.3 94238.8 96164 94009.1
          92829.2 93257.4 94836.5 96157 93699.3 96612.7 94145.3 95886.9 91462.3 99290.2 91553.7 93342
          95953.2 93793.8 95042.8 99310.3 96233.8 93083.7 92961.7 93665.4 92320.6 96903 94554.7 96268.5
          98288.3 96874.4 91222.2 93525.5 98918.2 93906.5 95921.7 94182.5 97412.8 93567.8 97685.9 99879.3
          94503.3 91932.6 95597.4 98663.9 96915.6 97261 93084.8 95973 99448.2 95778.2 97240.2 92277.8
          92777.4 99919.2 94420 94998.4 98084.6 92202.2 94521 95411.5 95875 99900.2 94448.9 91903.2
          96267.5 95964.9 97368.3 92659.3 99302.7 95287.1 99603.9 94594.5 97171.5 94820.1 98570 98398
          93325.8 94288.2 92708.8 96909.4 99496.2 92514.7 92327.8 92279.6 96734.3 96590.4 91124.3 96927.1
          94358.5 97689.5 98444.5 96234.2 95623.2 95302.4 91435.5 96575.8 97751.6 94508 94048.3 92791.9
          93597.5 95268.5 99435.9 98208.3 93536.1 99831.6 91803.7 91761.1 99102.6 93770.1 93773.8 92810.8
          91587.4 94787.9 92646.1 93621.5 98245.8 97018.4 91904.4 95361 98395.8 93588.5 92711.6 98770.9
          91598 95014.4 99193.9 96438.4 93800.2 95364.8 91424.7 99036.1 99155.4 97729.6 98692.1 97746.7
          92741.1 93116.2 98642.2 95545.9 94366.1 94131.7 90982.3 97976.5 99003.8 94890 92225.1 94558.9
          92109 93852.4 100212 93402.9 96724.3 100136 95528.5 91237.4 94105.1 94436.9 97465.2 93346.3
          97158.8 91224.5 94983.3 95756.6 93430.5 98774.2 98864.7 92809 99157 92648.7 99604.9 98337.3
          91745.3 93009.7 91292.4 93185.5 97906.4 93187.4 94363.8 96628 96807.4 93293.7 91869.9 96584
          96386.9 96746.7 95365.3 98311.3 97740.5 99958 95405.7 94822.4 94215.7 97669.1 97280.1 92017.3
          92930.2 99530.5 96723.2 93905.9 93973.2 96634.1 93062.2 93173.8 97372.7 97302 94652.1 94611.8
          97535.2 97301.1 95216.2 92769.2 91012.6 94460 92941.6 93824.5 95219.7 93390 94882.7 98906.4
          91399.7 91343.5 96114.1 94566 94630.6 95693.1 95515.1 94608.9 98143.7 98389.3 95569 95743.4
          95334.2 92248.1 95630.6 97546.9 97269.1 94732.4 97846.5 91632.9 94436 97495.6 95293.3 95369.7
          97196.9 96067.6 99792.2 94114.8 90999.4 97521.6 92320.6 94502.6 94566.7 96597.4 98364.9 94839.7
          94617.5 94821.5 95552 97143.1 96304.3 94659.2 91318.4 92484 95359.9 95715.5 95123.3 93158.4
          95220.4 92126.7 93249.8 93556.9 98210.9 95028.4 99373.4 98423.8 96491.5 98644 95031.2 94605.1
          95213.9 97178.8 93057.2 91554.8 95442.5 99596 94873.2 95045.5 96178.9 96584.8 96904.2 92731.1
          94856.7 94236.4 97542.8 96751.5 93954.1 95986.2 92291.6 92496 94619.9 92630.3 95258.1 95377.7
          96812.9 99984.1 93590.1 95337.3 96685.8 95298.1 94896.4 91987.1 93241.7 93580.6 95301.6 97323.7
          95119 97145 95227.5 95182.8 95100 95986.1 94427.1 99114.3 94556.3 92457.5 99098.3 95932.5
          94473.2 94899.9 97552.3 93931.9 95443 95409.1 91619.5 94373.3 94139.1 94187.9 99442 99032.6
          98058.5 96017.2 92613.7 92731 98778.9 97134 95606 94004.2 90990.2 94099.8 93245.8 91267.8
          95217.9 93286.1 97508.4 92723.3 96078.9 94146.6 93563.5 97147.5 92466.8 94088.9 94698.4 93171.3
          94845.6 97181.5 93113.6 92776.2 96230.2 97670.7 92694.9 98815 93844.4 96590.9 95309.3 95840.5
          94854.4 95222.9 97068.9 98562.5 94128.2 96144.4 91394.7 93642.4 98787.4 97855.3 96830.5 94989.5
          95256.9 98668.6 95080.7 94599.8 91868.9 97933.3 92591.3 94866.8 93595.6 98294.2 95380.1 97096.7
          98018.8 92238.1 95299.1 92738.5 96059.3 96865.3 94232 96146.8 95236.1 98223.2 97347.8 91158.8
          96483 93888.1 92286.3 96340 95095.3 96599 93697.2 97797.5 93595 95351.2 94811.6 96015.8
          95745.5 99695.9 91885.2 99776.1 99204.5 94501.2 95576 99759.6 99198.2 94174.2 92818.9 93935.7
          96047.6 97942.3 93124 97906.9 95267.2 96711 95374 96798.5 93921.5 100098 99756.8 99209.7
          98161.3 95641 97995.3 93367 96054.4 97136 95583.1 96625.6 93806 97894.6 96262.3 96089.6
          93904.7 97626.6 96543.8 96200.2 96572.4 97467 97789.3 97454 94238.4 98856.2 96524.7 94257.1
          96171.6 91342 93236.8 96314.4 96585 98936.7 92037.3 98059.5 95772.8 96091.5 93238.2 91796
          95631.8 91739 95965.8 96294.8 92174.9 95474 95864.5 96226.8 95545.1 98283.5 92206.9 91848.6
          95911.5 98293.3 94446.6 93320 95962.6 93673 95919.8 94951.1 95711 96981.4 96886.6 95667.6
          91362.2 96460.4 94748 93672.2 97198.3 93225.2 96946.3 91042.9 95371.6 96872.8 99462.6 99012.6
          96332.6 99869.3 93385.6 99998.4 96150.5 96441.9 93804.6 91852.2 95605.6 96625.3 93712.3 98038.4
          92303.2 95461.1 94684.3 94090.7 97420.3 95845.2 94941.7 92570.5 92811 99669.7 99542.3 95615.5
          98958.7 91257.1 99888.1 92099.2 97608.3 91778 95290 94886.6 95088.3 95628.9 94395.6 99276.7
          94514.5 92953.1 96877.5 95738 94970.5 98878.9 98785.7 98778.9 92718.9 93202.6 97888.4 92426.1
          100216 93520.2 94188.4 96605.4 92043.9 95274 98363.5 98283.4 95795.7 92952.3 93562.5 96119.8
          95411.1 95487.8 95254.4 97198.5 98302.5 95293.4 95244.4 92885.3 93256.7 93860.3 96475.9 94119.9
          94399.4 96554.6 98143.8 95032.7 94305.7 95141.4 95170.1 94484.6 93069.4 98046.5 91344.9 99788
          100124 91014.6 91055.4 100079 91388.6 99726.1 92996.5 98122.8 94094.4 97025.9 96091.6 95023.8
          95879.5 95235.1 94520.7 96598.8 97101.9 98445 92672.1 97317.5 97981.3 93134.5 94058.9 97052.4
          91036.7 100090 95973.5 95129.9 91269.7 99854.5 94665.8 96438.6 93840 97273 95027.9 96088.2
          96407.3 94708.4 93391.4 94431.9 96683.6 97727.2 91762.5 99360.2 94530.3 96576.9 93152.3 97956.7
          90994.7 100128 91018.5 100108 93201.1 97903.1 95247.8 95868.4 95427.6 91311.2 95671.6 99810.7
          93513.8 98964.4 93631.1 97478.6 95433.1 95611.8 92305.6 98814.9 95985 95130.7 98481.1 93717.1
          93865 97400 97251.2 92215.8 98152 92224.1 98891.2 93254.1 93632.9 97864 97482.7 90954.3
          100171 94978.7 96119.9 96128.4 94983.4 92763.1 98349.5 91257.1 99866.3 91284.7 99833.1 92809
          98298.1 97538.5 92152.1 98962.7 92154.4 92945 98901.2 93019.9 98091.3 98019.6 98870.1 92253.5
          90941.4 100191 90973.9 100155 92298.9 98808.5 95191.4 91851 95845.5 99270.1 99202.4 91925.6
          91269.7 99861.4 91305.3 99815.1 91967.6 99143.2 92766.8 98337 92815.4 98298.1 94519.5 94991.4
          96616.3 96141.9 95907.9 96350.2 95202.3 94758.8 92138.9 92375.2 98983 98745.5 93625.6 93773.8
          97223.5 91721.1 93883.8 91228.3 99397.4 97405.6 93699.2 91720.9 99399 99892 97472.9 97284.1
          91229.8 99892.9 94280.2 93574.8 93592.4 97554.1 97525.4 92635.1 94075.8 95215.2 97072 95916.9
          94457.4 95329.6 95765.2 95787.1 95351.2 93106.3 92664 91812.8 98450 99308.4 91841.6 99274
          92704.6 98405.8 94989.3 96539.9 96074.7 92789.8 92558.4 98329 98560.3 96587.4 94526.9 97038.5
          94075.6 93174.5 97939.1 93208.2 97905.9 93966.3 94176.7 96940.2 97151.3 94041.5 93770.3 92149.5
          91822.8 98975.1 99304.3 91856.5 92186.5 99259.3 98925.9 94492 94320.6 96601.9 96734.8 91669.1
          99452.7 91174.9 99947.5 94079.6 97022 90909.4 100217 90906.5 100219 94154.2 96948 96571.5
          94539.4 95036.7 96079.6 94601 96515.4 94570.9 96426.9 91988.6 99132 93608.6 92580.7 98536.7
          95769.1 95347
        </DataArray>
        <DataArray type="Float32" Name="rho_aq" NumberOfComponents="1" format="ascii">
          1000 1000 1000 1000 1000 1000 1000 1000 1000 1000 1000 1000
          1000 1000 1000 1000 1000 1000 1000 1000 1000 1000 1000 1000
          1000 1000 1000 1000 1000 1000 1000 1000 1000 1000 1000 1000
          1000 1000 1000 1000 1000 1000 1000 1000 1000 1000 1000 1000
          1000 1000 1000 1000 1000 1000 1000 1000 1000 1000 1000 1000
          1000 1000 1000 1000 1000 1000 1000 1000 1000 1000 1000 1000
          1000 1000 1000 1000 1000 1000 1000 1000 1000 1000 1000 1000
          1000 1000 1000 1000 1000 1000 1000 1000 1000 1000 1000 1000
          1000 1000 1000 1000 1000 1000 1000 1000 1000 1000 1000 1000
          1000 1000 1000 1000 1000 1000 1000 1000 1000 1000 1000 1000
          1000 1000 1000 1000 1000 1000 1000 1000 1000 1000 1000 1000
          1000 1000 1000 1000 1000 1000 1000 1000 1000 1000 1000 1000
          1000 1000 1000 1000 1000 1000 1000 1000 1000 1000 1000 1000
          1000 1000 1000 1000 1000 1000 1000 1000 1000 1000 1000 1000
          1000 1000 1000 1000 1000 1000 1000 1000 1000 1000 1000 1000
          1000 1000 1000 1000 1000 1000 1000 1000 1000 1000 1000 1000
          1000 1000 1000 1000 1000 1000 1000 1000 1000 1000 1000 1000
          1000 1000 1000 1000 1000 1000 1000 1000 1000 1000 1000 1000
          1000 1000 1000 1000 1000 1000 1000 1000 1000 1000 1000 1000
          1000 1000 1000 1000 1000 1000 1000 1000 1000 1000 1000 1000
          1000 1000 1000 1000 1000 1000 1000 1000 1000 1000 1000 1000
          1000 1000 1000 1000 1000 1000 1000 1000 1000 1000 1000 1000
          1000 1000 1000 1000 1000 1000 1000 1000 1000 1000 1000 1000
          1000 1000 1000 1000 1000 1000 1000 1000 1000 1000 1000 1000
          1000 1000 1000 1000 1000 1000 1000 1000 1000 1000 1000 1000
          1000 1000 1000 1000 1000 1000 1000 1000 1000 1000 1000 1000
          1000 1000 1000 1000 1000 1000 1000 1000 1000 1000 1000 1000
          1000 1000 1000 1000 1000 1000 1000 1000 1000 1000 1000 1000
          1000 1000 1000 1000 1000 1000 1000 1000 1000 1000 1000 1000
          1000 1000 1000 1000 1000 1000 1000 1000 1000 1000 1000 1000
          1000 1000 1000 1000 1000 1000 1000 1000 1000 1000 1000 1000
          1000 1000 1000 1000 1000 1000 1000 1000 1000 1000 1000 1000
          1000 1000 1000 1000 1000 1000 1000 1000 1000 1000 1000 1000
          1000 1000 1000 1000 1000 1000 1000 1000 1000 1000 1000 1000
          1000 1000 1000 1000 1000 1000 1000 1000 1000 1000 1000 1000
          1000 1000 1000 1000 1000 1000 1000 1000 1000 1000 1000 1000
          1000 1000 1000 1000 1000 1000 1000 1000 1000 1000 1000 1000
          1000 1000 1000 1000 1000 1000 1000 1000 1000 1000 1000 1000
          1000 1000 1000 1000 1000 1000 1000 1000 1000 1000 1000 1000
          1000 1000 1000 1000 1000 1000 1000 1000 1000 1000 1000 1000
          1000 1000 1000 1000 1000 1000 1000 1000 1000 1000 1000 1000
          1000 1000 1000 1000 1000 1000 1000 1000 1000 1000 1000 1000
          1000 1000 1000 1000 1000 1000 1000 1000 1000 1000 1000 1000
          1000 1000 1000 1000 1000 1000 1000 1000 1000 1000 1000 1000
          1000 1000 1000 1000 1000 1000 1000 1000 1000 1000 1000 1000
          1000 1000 1000 1000 1000 1000 1000 1000 1000 1000 1000 1000
          1000 1000 1000 1000 1000 1000 1000 1000 1000 1000 1000 1000
          1000 1000 1000 1000 1000 1000 1000 1000 1000 1000 1000 1000
          1000 1000 1000 1000 1000 1000 1000 1000 1000 1000 1000 1000
          1000 1000 1000 1000 1000 1000 1000 1000 1000 1000 1000 1000
          1000 1000 1000 1000 1000 1000 1000 1000 1000 1000 1000 1000
          1000 1000 1000 1000 1000 1000 1000 1000 1000 1000 1000 1000
          1000 1000 1000 1000 1000 1000 1000 1000 1000 1000 1000 1000
          1000 1000 1000 1000 1000 1000 1000 1000 1000 1000 1000 1000
          1000 1000 1000 1000 1000 1000 1000 1000 1000 1000 1000 1000
          1000 1000 1000 1000 1000 1000 1000 1000 1000 1000 1000 1000
          1000 1000 1000 1000 1000 1000 1000 1000 1000 1000 1000 1000
          1000 1000 1000 1000 1000 1000 1000 1000 1000 1000 1000 1000
          1000 1000 1000 1000 1000 1000 1000 1000 1000 1000 1000 1000
          1000 1000 1000 1000 1000 1000 1000 1000 1000 1000 1000 1000
          1000 1000 1000 1000 1000 1000 1000 1000 1000 1000 1000 1000
          1000 1000 1000 1000 1000 1000 1000 1000 1000 1000 1000 1000
          1000 1000 1000 1000 1000 1000 1000 1000 1000 1000 1000 1000
          1000 1000 1000 1000 1000 1000 1000 1000 1000 1000 1000 1000
          1000 1000 1000 1000 1000 1000 1000 1000 1000 1000 1000 1000
          1000 1000 1000 1000 1000 1000 1000 1000 1000 1000 1000 1000
          1000 1000 1000 1000 1000 1000 1000 1000 1000 1000 1000 1000
          1000 1000 1000 1000 1000 1000 1000 1000 1000 1000 1000 1000
          1000 1000 1000 1000 1000 1000 1000 1000 1000 1000 1000 1000
          1000 1000 1000 1000 1000 1000 1000 1000 1000 1000 1000 1000
          1000 1000 1000 1000 1000 1000 1000 1000 1000 1000 1000 1000
          1000 1000 1000 1000 1000 1000 1000 1000 1000 1000 1000 1000
          1000 1000 1000 1000 1000 1000 1000 1000 1000 1000 1000 1000
          1000 1000 1000 1000 1000 1000 1000 1000 1000 1000 1000 1000
          1000 1000 1000 1000 1000 1000 1000 1000 1000 1000 1000 1000
          1000 1000 1000 1000 1000 1000 1000 1000 1000 1000 1000 1000
          1000 1000 1000 1000 1000 1000 1000 1000 1000 1000 1000 1000
          1000 1000 1000 1000 1000 1000 1000 1000 1000 1000 1000 1000
          1000 1000 1000 1000 1000 1000 1000 1000 1000 1000 1000 1000
          1000 1000 1000 1000 1000 1000 1000 1000 1000 1000 1000 1000
          1000 1000 1000 1000 1000 1000 1000 1000 1000 1000 1000 1000
          1000 1000 1000 1000 1000 1000 1000 1000 1000 1000 1000 1000
          1000 1000 1000 1000 1000 1000 1000 1000 1000 1000 1000 1000
          1000 1000 1000 1000 1000 1000 1000 1000 1000 1000 1000 1000
          1000 1000 1000 1000 1000 1000 1000 1000 1000 1000 1000 1000
          1000 1000 1000 1000 1000 1000 1000 1000 1000 1000 1000 1000
          1000 1000 1000 1000 1000 1000 1000 1000 1000 1000 1000 1000
          1000 1000 1000 1000 1000 1000 1000 1000 1000 1000 1000 1000
          1000 1000 1000 1000 1000 1000 1000 1000 1000 1000 1000 1000
          1000 1000 1000 1000 1000 1000 1000 1000 1000 1000 1000 1000
          1000 1000 1000 1000 1000 1000 1000 1000 1000 1000 1000 1000
          1000 1000 1000 1000 1000 1000 1000 1000 1000 1000 1000 1000
          1000 1000 1000 1000 1000 1000 1000 1000 1000 1000 1000 1000
          1000 1000 1000 1000 1000 1000 1000 1000 1000 1000 1000 1000
          1000 1000 1000 1000 1000 1000 1000 1000 1000 1000 1000 1000
          1000 1000 1000 1000 1000 1000 1000 1000 1000 1000 1000 1000
          1000 1000 1000 1000 1000 1000 1000 1000 1000 1000 1000 1000
          1000 1000 1000 1000 1000 1000 1000 1000 1000 1000 1000 1000
          1000 1000 1000 1000 1000 1000 1000 1000 1000 1000 1000 1000
          1000 1000 1000 1000 1000 1000 1000 1000 1000 1000 1000 1000
          1000 1000 1000 1000 1000 1000 1000 1000 1000 1000 1000 1000
          1000 1000 1000 1000 1000 1000 1000 1000 1000 1000 1000 1000
          1000 1000 1000 1000 1000 1000 1000 1000 1000 1000 1000 1000
          1000 1000 1000 1000 1000 1000 1000 1000 1000 1000 1000 1000
          1000 1000 1000 1000 1000 1000 1000 1000 1000 1000 1000 1000
          1000 1000 1000 1000 1000 1000 1000 1000 1000 1000 1000 1000
          1000 1000 1000 1000 1000 1000 1000 1000 1000 1000 1000 1000
          1000 1000 1000 1000 1000 1000 1000 1000 1000 1000 1000 1000
          1000 1000 1000 1000 1000 1000 1000 1000 1000 1000 1000 1000
          1000 1000 1000 1000 1000 1000 1000 1000 1000 1000 1000 1000
          1000 1000 1000 1000 1000 1000 1000 1000 1000 1000 1000 1000
          1000 1000 1000 1000 1000 1000 1000 1000 1000 1000 1000 1000
          1000 1000 1000 1000 1000 1000 1000 1000 1000 1000 1000 1000