<?xml version="1.0"?>
<VTKFile type="PolyData" version="0.1" byte_order="LittleEndian">
  <PolyData>
    <Piece NumberOfLines="137" NumberOfPoints="90">
      <PointData Scalars="p">
        <DataArray type="Float32" Name="p" NumberOfComponents="1" format="ascii">
          100000 100000 100000 100000 100000 100000 100000 100000 100000 100000 100000 100000
          100000 100000 100000 100000 100000 100000 100000 100000 100000 100000 100000 100000
          100000 100000 100000 100000 100000 100000 100000 100000 100000 100000 100000 100000
          100000 100000 100000 100000 100000 100000 100000 100000 100000 100000 100000 100000
          100000 100000 100000 100000 100000 100000 100000 100000 100000 100000 100000 100000
          100000 100000 100000 100000 100000 100000 100000 100000 100000 100000 100000 100000
          100000 100000 100000 100000 100000 100000 100000 100000 100000 100000 100000 100000
          100000 100000 100000 100000 100000 100000
        </DataArray>
        <DataArray type="Float32" Name="rho" NumberOfComponents="1" format="ascii">
          999.689 999.689 999.689 999.689 999.689 999.689 999.689 999.689 999.689 999.689 999.689 999.689
          999.689 999.689 999.689 999.689 999.689 999.689 999.689 999.689 999.689 999.689 999.689 999.689
          999.689 999.689 999.689 999.689 999.689 999.689 999.689 999.689 999.689 999.689 999.689 999.689
          999.689 999.689 999.689 999.689 999.689 999.689 999.689 999.689 999.689 999.689 999.689 999.689
          999.689 999.689 999.689 999.689 999.689 999.689 999.689 999.689 999.689 999.689 999.689 999.689
          999.689 999.689 999.689 999.689 999.689 999.689 999.689 999.689 999.689 999.689 999.689 999.689
          999.689 999.689 999.689 999.689 999.689 999.689 999.689 999.689 999.689 999.689 999.689 999.689
          999.689 999.689 999.689 999.689 999.689 999.689
        </DataArray>
        <DataArray type="Float32" Name="mu" NumberOfComponents="1" format="ascii">
          0.00130753 0.00130753 0.00130753 0.00130753 0.00130753 0.00130753 0.00130753 0.00130753 0.00130753 0.00130753 0.00130753 0.00130753
          0.00130753 0.00130753 0.00130753 0.00130753 0.00130753 0.00130753 0.00130753 0.00130753 0.00130753 0.00130753 0.00130753 0.00130753
          0.00130753 0.00130753 0.00130753 0.00130753 0.00130753 0.00130753 0.00130753 0.00130753 0.00130753 0.00130753 0.00130753 0.00130753
          0.00130753 0.00130753 0.00130753 0.00130753 0.00130753 0.00130753 0.00130753 0.00130753 0.00130753 0.00130753 0.00130753 0.00130753
          0.00130753 0.00130753 0.00130753 0.00130753 0.00130753 0.00130753 0.00130753 0.00130753 0.00130753 0.00130753 0.00130753 0.00130753
          0.00130753 0.00130753 0.00130753 0.00130753 0.00130753 0.00130753 0.00130753 0.00130753 0.00130753 0.00130753 0.00130753 0.00130753
          0.00130753 0.00130753 0.00130753 0.00130753 0.00130753 0.00130753 0.00130753 0.00130753 0.00130753 0.00130753 0.00130753 0.00130753
          0.00130753 0.00130753 0.00130753 0.00130753 0.00130753 0.00130753
        </DataArray>
        <DataArray type="Float32" Name="x^H2O_liq" NumberOfComponents="1" format="ascii">
          0.999917 0.9999 0.999915 0.9999 0.999915 0.9999 0.9999 0.9999 0.99993 0.999919 0.999921 0.9999
          0.999923 0.999927 0.999927 0.999927 0.999925 0.999951 0.999951 0.999927 0.999927 0.999951 0.999941 0.999945
          0.99995 0.999936 0.999936 0.99995 0.999924 0.999926 0.99992 0.999926 0.999927 0.999927 0.999937 0.999931
          0.999924 0.999926 0.999925 0.999938 0.99995 0.999954 0.999936 0.999953 0.999971 0.999946 0.999927 0.999928
          0.99993 0.99993 0.999934 0.999938 0.99993 0.99995 0.99993 0.999934 0.99994 0.999972 0.999966 0.999954
          0.999936 0.99995 0.999945 0.999988 0.999955 0.999958 0.999969 0.999948 0.999961 0.999975 0.999986 0.99994
          0.999941 0.99994 0.999941 0.999945 0.999932 0.999938 0.999938 0.999945 0.999963 0.99993 0.999948 1
          1 0.99997 0.999975 0.999975 1 0.999969
        </DataArray>
        <DataArray type="Float32" Name="x^N2_liq" NumberOfComponents="1" format="ascii">
          8.30845e-05 0.0001 8.46256e-05 0.0001 8.4816e-05 0.0001 0.0001 0.0001 6.96097e-05 8.12752e-05 7.8851e-05 0.0001
          7.72261e-05 7.33588e-05 7.33583e-05 7.33572e-05 7.50038e-05 4.89594e-05 4.89594e-05 7.33582e-05 7.33569e-05 4.89594e-05 5.87851e-05 5.54327e-05
          5.04033e-05 6.36522e-05 6.36522e-05 4.96819e-05 7.57544e-05 7.42078e-05 7.9606e-05 7.40985e-05 7.337e-05 7.25403e-05 6.28097e-05 6.93569e-05
          7.58547e-05 7.42187e-05 7.46107e-05 6.17136e-05 5.02348e-05 4.59987e-05 6.36524e-05 4.68989e-05 2.85872e-05 5.4477e-05 7.28245e-05 7.24396e-05
          7.03378e-05 6.97484e-05 6.62369e-05 6.21442e-05 7.01512e-05 4.97029e-05 7.04411e-05 6.56923e-05 6.02137e-05 2.75653e-05 3.36113e-05 4.57019e-05
          6.43639e-05 4.96238e-05 5.45927e-05 1.17165e-05 4.48505e-05 4.23232e-05 3.09258e-05 5.23015e-05 3.93537e-05 2.46963e-05 1.41818e-05 5.97376e-05
          5.94485e-05 5.95333e-05 5.94827e-05 5.46842e-05 6.76322e-05 6.21442e-05 6.21441e-05 5.50584e-05 3.66128e-05 7.01511e-05 5.23014e-05 0
          0 2.96241e-05 2.4696e-05 2.46963e-05 0 3.09253e-05
        </DataArray>
        <DataArray type="Float32" Name="X^H2O_liq" NumberOfComponents="1" format="ascii">
          0.999871 0.999844 0.999868 0.999844 0.999868 0.999844 0.999844 0.999844 0.999892 0.999874 0.999877 0.999844
          0.99988 0.999886 0.999886 0.999886 0.999883 0.999924 0.999924 0.999886 0.999886 0.999924 0.999909 0.999914
          0.999922 0.999901 0.999901 0.999923 0.999882 0.999885 0.999876 0.999885 0.999886 0.999887 0.999902 0.999892
          0.999882 0.999885 0.999884 0.999904 0.999922 0.999928 0.999901 0.999927 0.999956 0.999915 0.999887 0.999887
          0.999891 0.999892 0.999897 0.999903 0.999891 0.999923 0.99989 0.999898 0.999906 0.999957 0.999948 0.999929
          0.9999 0.999923 0.999915 0.999982 0.99993 0.999934 0.999952 0.999919 0.999939 0.999962 0.999978 0.999907
          0.999908 0.999907 0.999907 0.999915 0.999895 0.999903 0.999903 0.999914 0.999943 0.999891 0.999919 1
          1 0.999954 0.999962 0.999962 1 0.999952
        </DataArray>
        <DataArray type="Float32" Name="X^N2_liq" NumberOfComponents="1" format="ascii">
          0.000129189 0.00015549 0.000131586 0.00015549 0.000131882 0.00015549 0.00015549 0.00015549 0.000108238 0.000126376 0.000122607 0.00015549
          0.000120081 0.000114067 0.000114067 0.000114065 0.000116625 7.61293e-05 7.61293e-05 0.000114067 0.000114065 7.61293e-05 9.14072e-05 8.61945e-05
          7.83744e-05 9.8975e-05 9.8975e-05 7.72527e-05 0.000117792 0.000115387 0.000123781 0.000115218 0.000114085 0.000112795 9.76649e-05 0.000107845
          0.000117948 0.000115405 0.000116014 9.59606e-05 7.81123e-05 7.15256e-05 9.89752e-05 7.29254e-05 4.4452e-05 8.47086e-05 0.000113237 0.000112638
          0.00010937 0.000108454 0.000102994 9.66302e-05 0.00010908 7.72853e-05 0.000109531 0.000102147 9.36284e-05 4.28631e-05 5.22642e-05 7.10641e-05
          0.000100082 7.71623e-05 8.48885e-05 1.8219e-05 6.97403e-05 6.58105e-05 4.80884e-05 8.13258e-05 6.11932e-05 3.84019e-05 2.20524e-05 9.28883e-05
          9.24386e-05 9.25705e-05 9.24919e-05 8.50307e-05 0.000105163 9.66302e-05 9.663e-05 8.56125e-05 5.69314e-05 0.00010908 8.13258e-05 0
          0 4.60644e-05 3.84014e-05 3.84019e-05 0 4.80877e-05
        </DataArray>
        <DataArray type="Float32" Name="poreInscribedRadius" NumberOfComponents="1" format="ascii">
          0.00010842 0.0002263 0.00018872 8.6711e-05 0.00014246 0.00017024 0.00014006 5.8137e-05 0.00017043 0.00014712 0.00018289 0.00011213
          8.001e-05 0.00026652 0.00010984 0.00018149 0.0001191 0.00010862 6.7563e-05 0.00013353 8.8091e-05 0.00011873 8.6177e-05 0.00014165
          9.7691e-05 0.00014071 8.5166e-05 0.00010965 8.1041e-05 0.00015832 6.1496e-05 0.00011323 0.00033347 6.7184e-05 0.00010274 0.00016438
          0.00011759 8.0701e-05 0.00015113 0.00013784 9.8161e-05 0.00013 8.1223e-05 0.00014997 0.00013153 0.00020701 0.00010946 8.5023e-05
          7.8721e-05 0.00017262 0.00012575 0.00010082 0.00015856 0.00012022 0.00019603 9.1747e-05 0.0001146 0.00025862 0.00012908 0.00025963
          0.00010958 6.7231e-05 0.00012907 0.00015315 9.4275e-05 0.00019972 7.1623e-05 0.00014025 0.00011092 0.00015744 5.0362e-05 0.00022549
          0.00010874 9.8868e-05 0.00010793 0.00015434 8.0185e-05 6.8354e-05 0.00014551 0.00014525 0.00017218 0.00012177 9.0671e-05 0.00015715
          0.00012027 0.00015784 0.00022979 0.00010367 5.3866e-05 0.00024136
        </DataArray>
        <DataArray type="Float32" Name="coordinationNumber" NumberOfComponents="1" format="ascii">
          6 1 4 1 3 1 5 2 6 3 4 1
          2 4 2 3 2 6 1 1 1 1 4 2
          3 2 1 2 3 7 2 4 3 4 6 2
          3 4 3 5 5 3 4 6 4 5 4 4
          4 4 5 7 3 3 2 3 2 5 2 4
          3 2 2 2 3 4 5 4 4 6 2 5
          4 3 2 2 2 1 1 4 2 1 1 3
          1 2 1 1 1 1
        </DataArray>
        <DataArray type="Float32" Name="poreLabel" NumberOfComponents="1" format="ascii">
          -1 2 -1 2 -1 2 2 -1 -1 -1 -1 2
          -1 -1 -1 -1 -1 -1 -1 -1 -1 -1 -1 -1
          -1 -1 -1 -1 -1 -1 -1 -1 -1 -1 -1 -1
          -1 -1 -1 -1 -1 -1 -1 -1 -1 -1 -1 -1
          -1 -1 -1 -1 -1 -1 -1 -1 -1 -1 -1 -1
          -1 -1 -1 -1 -1 -1 -1 -1 -1 -1 -1 -1
          -1 -1 -1 -1 -1 -1 -1 -1 -1 -1 -1 3
          3 -1 -1 -1 3 -1
        </DataArray>
      </PointData>
      <CellData Scalars="process rank">
        <DataArray type="Float32" Name="process rank" NumberOfComponents="1" format="ascii">
          0 0 0 0 0 0 0 0 0 0 0 0
          0 0 0 0 0 0 0 0 0 0 0 0
          0 0 0 0 0 0 0 0 0 0 0 0
          0 0 0 0 0 0 0 0 0 0 0 0
          0 0 0 0 0 0 0 0 0 0 0 0
          0 0 0 0 0 0 0 0 0 0 0 0
          0 0 0 0 0 0 0 0 0 0 0 0
          0 0 0 0 0 0 0 0 0 0 0 0
          0 0 0 0 0 0 0 0 0 0 0 0
          0 0 0 0 0 0 0 0 0 0 0 0
          0 0 0 0 0 0 0 0 0 0 0 0
          0 0 0 0 0
        </DataArray>
        <DataArray type="Float32" Name="throatLabel" NumberOfComponents="1" format="ascii">
          2 2 2 2 2 2 2 2 2 -1 -1 -1
          -1 -1 -1 -1 -1 -1 -1 -1 -1 -1 -1 -1
          -1 -1 -1 -1 -1 -1 -1 -1 -1 -1 -1 -1
          -1 -1 -1 -1 -1 -1 -1 -1 -1 -1 -1 -1
          -1 -1 -1 -1 -1 -1 -1 -1 -1 -1 -1 -1
          -1 -1 -1 -1 -1 -1 -1 -1 -1 -1 -1 -1
          -1 -1 -1 -1 -1 -1 -1 -1 -1 -1 -1 -1
          -1 -1 -1 -1 -1 -1 -1 -1 -1 -1 -1 -1
          -1 -1 -1 -1 -1 -1 -1 -1 -1 -1 -1 -1
          -1 -1 -1 -1 -1 -1 -1 -1 -1 -1 -1 -1
          -1 -1 -1 3 -1 3 -1 -1 -1 -1 3 -1
          -1 -1 3 -1 3
        </DataArray>
        <DataArray type="Float32" Name="throatInscribedRadius" NumberOfComponents="1" format="ascii">
          3.3304e-05 3.384e-05 3.3615e-05 3.3259e-05 3.3423e-05 3.3717e-05 3.3301e-05 3.3963e-05 3.3418e-05 3.4247e-05 3.3272e-05 3.37e-05
          3.3125e-05 3.3391e-05 3.3434e-05 3.3768e-05 3.3951e-05 3.3734e-05 3.3508e-05 3.3908e-05 3.3903e-05 3.3674e-05 3.3826e-05 3.3772e-05
          3.3303e-05 3.389e-05 3.3413e-05 3.3431e-05 3.3693e-05 3.353e-05 3.3589e-05 3.3834e-05 3.3987e-05 3.3567e-05 3.3743e-05 3.3553e-05
          3.371e-05 3.3781e-05 3.3426e-05 3.3726e-05 3.3836e-05 3.3664e-05 3.422e-05 3.3429e-05 3.3386e-05 3.305e-05 3.3941e-05 3.3926e-05
          3.3606e-05 3.3937e-05 3.3695e-05 3.3731e-05 3.3671e-05 3.3781e-05 3.3667e-05 3.4584e-05 3.3243e-05 3.3015e-05 3.3252e-05 3.3267e-05
          3.3488e-05 3.3576e-05 3.356e-05 3.3816e-05 3.3764e-05 3.3887e-05 3.4237e-05 3.4047e-05 3.3204e-05 3.2859e-05 3.3938e-05 3.3021e-05
          3.3656e-05 3.3645e-05 3.4391e-05 3.361e-05 3.3463e-05 3.3712e-05 3.3716e-05 3.3657e-05 3.3429e-05 3.3224e-05 3.374e-05 3.3184e-05
          3.3288e-05 3.4084e-05 3.3492e-05 3.3586e-05 3.3937e-05 3.3532e-05 3.3981e-05 3.3517e-05 3.3975e-05 3.3845e-05 3.3562e-05 3.3343e-05
          3.3284e-05 3.3542e-05 3.3486e-05 3.3496e-05 3.3966e-05 3.3533e-05 3.402e-05 3.3455e-05 3.3962e-05 3.3458e-05 3.3693e-05 3.3961e-05
          3.3494e-05 3.3486e-05 3.4314e-05 3.3954e-05 3.3488e-05 3.3852e-05 3.3512e-05 3.3871e-05 3.4113e-05 3.3098e-05 3.3981e-05 3.4127e-05
          3.3649e-05 3.4226e-05 3.3685e-05 3.322e-05 3.2903e-05 3.3521e-05 3.3874e-05 3.374e-05 3.3772e-05 3.344e-05 3.3682e-05 3.3086e-05
          3.3378e-05 3.3359e-05 3.3808e-05 3.3628e-05 3.3247e-05
        </DataArray>
        <DataArray type="Float32" Name="throatLength" NumberOfComponents="1" format="ascii">
          6.6609e-05 3.384e-05 3.3615e-05 9.9777e-05 6.6846e-05 0.00010115 9.9902e-05 6.7925e-05 0.00010025 0.00010274 9.9816e-05 3.37e-05
          9.9376e-05 6.6781e-05 0.0001003 6.7537e-05 6.7903e-05 0.0001012 3.3508e-05 6.7817e-05 0.00010171 6.7347e-05 0.00010148 0.00010132
          6.6606e-05 3.389e-05 6.6826e-05 3.3431e-05 6.7385e-05 6.706e-05 0.00010077 0.0001015 0.00010196 0.0001007 6.7487e-05 0.00010066
          6.7421e-05 3.3781e-05 3.3426e-05 0.00010118 6.7672e-05 0.00010099 3.422e-05 6.6858e-05 6.6772e-05 3.305e-05 6.7881e-05 6.7852e-05
          3.3606e-05 6.7873e-05 3.3695e-05 3.3731e-05 3.3671e-05 3.3781e-05 3.3667e-05 3.4584e-05 6.6486e-05 3.3015e-05 6.6503e-05 9.9802e-05
          6.6975e-05 6.7153e-05 6.7119e-05 3.3816e-05 6.7529e-05 0.00010166 0.00010271 3.4047e-05 3.3204e-05 6.5718e-05 6.7876e-05 6.6043e-05
          3.3656e-05 0.00010094 3.4391e-05 3.361e-05 3.3463e-05 3.3712e-05 6.7432e-05 6.7313e-05 3.3429e-05 9.9673e-05 0.00010122 9.9553e-05
          3.3288e-05 0.00010225 0.00010048 0.00010076 0.00010181 0.0001006 6.7962e-05 3.3517e-05 6.7951e-05 3.3845e-05 3.3562e-05 0.00010003
          3.3284e-05 3.3542e-05 3.3486e-05 6.6992e-05 6.7931e-05 3.3533e-05 0.00010206 6.691e-05 0.00010189 6.6916e-05 6.7385e-05 3.3961e-05
          3.3494e-05 6.6972e-05 3.4314e-05 0.00010186 3.3488e-05 0.00010156 6.7024e-05 0.00010161 0.00010234 3.3098e-05 6.7962e-05 6.8254e-05
          0.00010095 0.00010268 3.3685e-05 3.322e-05 6.5807e-05 3.3521e-05 6.7748e-05 6.748e-05 3.3772e-05 3.344e-05 0.00010104 9.9259e-05
          6.6757e-05 0.00010008 3.3808e-05 0.00010088 9.974e-05
        </DataArray>
        <DataArray type="Float32" Name="transmissibility" NumberOfComponents="1" format="ascii">
          1.1758e-14 2.46701e-14 2.41813e-14 7.80704e-15 1.18847e-14 8.13411e-15 7.83673e-15 1.24702e-14 7.91986e-15 8.52375e-15 7.8162e-15 2.43652e-14
          7.71298e-15 1.18507e-14 7.93108e-15 1.22563e-14 1.24567e-14 8.1465e-15 2.39511e-14 1.24094e-14 8.2693e-15 1.21546e-14 8.21301e-15 8.17357e-15
          1.17571e-14 2.47796e-14 1.1874e-14 2.37864e-14 1.21752e-14 1.19992e-14 8.0415e-15 8.21916e-15 8.33109e-15 8.02603e-15 1.22291e-14 8.01583e-15
          1.21933e-14 2.45413e-14 2.37757e-14 8.14038e-15 1.23307e-14 8.09589e-15 2.55106e-14 1.18911e-14 1.18452e-14 2.29824e-14 1.2446e-14 1.24293e-14
          2.41619e-14 1.24416e-14 2.43543e-14 2.44325e-14 2.43023e-14 2.45413e-14 2.42937e-14 2.63333e-14 1.16937e-14 2.29094e-14 1.17033e-14 7.8126e-15
          1.19543e-14 1.20484e-14 1.20316e-14 2.46177e-14 1.2252e-14 8.25776e-15 8.51629e-15 2.51256e-14 2.33051e-14 1.12931e-14 1.24425e-14 1.14608e-14
          2.42699e-14 8.08163e-15 2.58949e-14 2.41705e-14 2.38547e-14 2.43912e-14 1.22e-14 1.21362e-14 2.37821e-14 7.78234e-15 8.15068e-15 7.75427e-15
          2.34824e-14 8.4027e-15 7.97195e-15 8.03943e-15 8.29437e-15 8.00055e-15 1.24899e-14 2.39704e-14 1.24831e-14 2.46811e-14 2.40671e-14 7.86626e-15
          2.3474e-14 2.40241e-14 2.3904e-14 1.19627e-14 1.24735e-14 2.40048e-14 8.35529e-15 1.19188e-14 8.31231e-15 1.1922e-14 1.21752e-14 2.49357e-14
          2.39211e-14 1.1952e-14 2.57214e-14 8.30692e-15 2.39082e-14 8.2318e-15 1.19798e-14 8.24624e-15 8.42392e-15 2.30826e-14 1.24899e-14 1.26516e-14
          8.08467e-15 8.50783e-15 2.43327e-14 2.33388e-14 1.13384e-14 2.3979e-14 1.23723e-14 1.2226e-14 2.45217e-14 2.38056e-14 8.1092e-15 7.68577e-15
          1.18365e-14 7.87744e-15 2.46002e-14 8.07011e-15 7.79867e-15
        </DataArray>
        <DataArray type="Float32" Name="volumeFlux" NumberOfComponents="1" format="ascii">
          1.30859e-22 0 2.69122e-22 8.68873e-23 0 9.05273e-23 0 1.38786e-22 0 9.48638e-23 0 0
          8.58404e-23 0 0 0 0 0 0 0 0 0 0 0
          1.30849e-22 2.75781e-22 1.3215e-22 2.64727e-22 5.42007e-22 4.00628e-22 5.3698e-22 1.82948e-22 0 0 1.36102e-22 0
          0 2.73129e-22 0 0 0 9.0102e-23 0 0 0 0 0 0
          0 0 0 0 0 0 0 0 0 0 0 0
          0 0 1.33904e-22 0 1.36356e-22 0 0 0 0 0 0 1.27551e-22
          0 8.99433e-23 0 0 0 2.71458e-22 0 0 0 8.66124e-23 9.07118e-23 0
          0 0 8.87226e-23 0 0 0 0 0 1.38929e-22 0 0 0
          2.6125e-22 2.67372e-22 0 0 1.38822e-22 0 0 0 0 0 0 0
          0 0 0 0 0 0 0 9.17752e-23 0 0 0 0
          0 0 0 0 1.26188e-22 0 0 0 0 0 9.02501e-23 0
          0 0 0 0 8.67941e-23
        </DataArray>
      </CellData>
      <Points>
        <DataArray type="Float32" Name="Coordinates" NumberOfComponents="3" format="ascii">
          2 2 3 1 1 4 2 1 4 1 1 5
          2 1 1 1 2 1 1 2 3 2 1 3
          2 3 4 2 2 4 2 2 2 1 2 4
          1 2 5 2 3 2 1 3 2 2 3 3
          1 3 4 2 4 4 1 3 5 1 4 1
          1 4 2 1 4 4 2 3 5 1 4 5
          2 5 4 2 4 2 1 5 1 1 5 4
          3 1 1 3 2 1 3 1 4 3 1 3
          2 2 1 3 3 1 3 3 3 3 2 3
          3 2 2 2 2 5 3 2 5 3 2 4
          2 4 3 3 4 5 3 3 2 3 4 3
          3 5 4 3 4 2 4 1 2 3 1 2
          4 2 1 4 1 1 4 2 4 4 2 2
          4 3 1 4 2 5 3 3 5 4 4 1
          4 2 3 4 3 5 3 3 4 4 3 3
          3 4 1 3 5 3 4 3 2 4 4 2
          3 5 2 3 4 4 4 5 4 4 3 4
          4 4 3 4 4 5 4 5 3 5 2 2
          4 1 4 4 1 3 5 2 3 5 2 5
          5 3 2 5 1 1 5 1 3 5 3 3
          5 2 4 5 4 1 5 3 4 5 4 5
          5 5 1 4 4 4 5 3 5 5 4 4
          5 5 4 5 4 3
        </DataArray>
      </Points>
      <Lines>
        <DataArray type="Int32" Name="connectivity" NumberOfComponents="1" format="ascii">
          0 1 2 3 4 5 0 6 7 6 8 6
          9 6 10 6 7 11 2 12 8 12 13 14
          15 14 8 16 0 16 17 18 13 19 15 20
          17 21 22 23 24 23 25 26 24 27 17 27
          28 4 29 4 30 2 31 2 29 32 33 32
          13 32 33 10 34 10 35 10 9 0 34 0
          36 0 37 9 38 37 22 37 8 37 15 13
          39 8 40 8 41 22 39 22 42 25 43 40
          17 40 44 40 45 40 24 17 41 17 29 28
          46 28 31 47 36 47 48 47 49 47 50 31
          39 31 38 30 33 29 46 29 51 29 42 29
          52 36 50 35 53 39 34 39 54 38 55 33
          55 42 43 42 56 34 51 34 45 34 57 58
          59 58 50 54 55 60 45 60 52 60 43 45
          61 45 62 43 63 43 64 43 44 65 66 65
          67 65 59 65 57 41 61 64 68 64 69 44
          70 44 46 49 48 49 71 49 48 46 72 73
          74 73 71 73 50 72 74 72 75 72 76 48
          71 51 76 51 77 51 78 51 79 51 67 56
          79 50 57 53 80 53 81 52 71 62 79 59
          71 59 82 67 75 67 83 57 80 57 84 63
          85 68 79 68 66 68 69 85 83 69 86 69
          87 69 66 69 88 70 89 66 83 66
        </DataArray>
        <DataArray type="Int32" Name="offsets" NumberOfComponents="1" format="ascii">
          2 4 6 8 10 12 14 16 18 20 22 24
          26 28 30 32 34 36 38 40 42 44 46 48
          50 52 54 56 58 60 62 64 66 68 70 72
          74 76 78 80 82 84 86 88 90 92 94 96
          98 100 102 104 106 108 110 112 114 116 118 120
          122 124 126 128 130 132 134 136 138 140 142 144
          146 148 150 152 154 156 158 160 162 164 166 168
          170 172 174 176 178 180 182 184 186 188 190 192
          194 196 198 200 202 204 206 208 210 212 214 216
          218 220 222 224 226 228 230 232 234 236 238 240
          242 244 246 248 250 252 254 256 258 260 262 264
          266 268 270 272 274
        </DataArray>
      </Lines>
    </Piece>
  </PolyData>
</VTKFile>
