<?xml version="1.0"?>
<VTKFile type="UnstructuredGrid" version="0.1" byte_order="LittleEndian">
  <UnstructuredGrid>
    <Piece NumberOfCells="1670" NumberOfPoints="911">
      <PointData Scalars="S_aq">
        <DataArray type="Float32" Name="S_aq" NumberOfComponents="1" format="ascii">
          0.215443 0.22256 0.222929 0.160127 0.172621 0.159672 0.172774 0.301331 0.30163 0.274565 0.301168 0.274044
          0.274497 0.274118 0.16028 0.159824 0.172804 0.301533 0.172955 0.231433 0.195762 0.199641 0.204845 0.233899
          0.240435 0.245397 0.214539 0.226885 0.207902 0.215532 0.204072 0.186758 0.188837 0.251623 0.214613 0.215366
          0.208082 0.23092 0.226441 0.24244 0.263349 0.24533 0.254338 0.178862 0.190257 0.184124 0.239513 0.239764
          0.193913 0.263116 0.252937 0.230998 0.241655 0.200628 0.192582 0.159763 0.174023 0.159819 0.215072 0.204904
          0.210919 0.30167 0.301575 0.272213 0.21488 0.225831 0.219148 0.169209 0.281213 0.231285 0.200377 0.179936
          0.201157 0.208602 0.231748 0.199863 0.195597 0.223043 0.253958 0.238663 0.244257 0.184133 0.194525 0.190285
          0.301742 0.301754 0.274759 0.159586 0.172491 0.159578 0.159753 0.172654 0.159739 0.301601 0.301619 0.274256
          0.238586 0.253969 0.244457 0.194753 0.184344 0.190601 0.214623 0.222407 0.278487 0.207684 0.170568 0.19932
          0.191183 0.220766 0.261107 0.207414 0.214842 0.222125 0.232115 0.259393 0.180852 0.184523 0.259453 0.181083
          0.15951 0.226013 0.301804 0.204677 0.257458 0.222913 0.207487 0.257909 0.181772 0.279356 0.170117 0.17029
          0.279271 0.257945 0.181981 0.178595 0.204948 0.182517 0.232073 0.28272 0.199376 0.168383 0.198551 0.19425
          0.431106 0.442236 0.417524 0.454113 0.401242 0.379654 0.398558 0.377636 0.344767 0.335345 0.334835 0.318296
          0.327866 0.321955 0.322619 0.334293 0.321166 0.823507 0.704489 0.828674 0.311644 0.359894 0.380848 0.364939
          0.327162 0.365711 0.697326 0.428181 0.407704 0.443958 0.331381 0.363169 0.381054 0.370815 0.614776 0.622075
          0.6146 0.708172 0.625449 0.701441 0.514578 0.529449 0.56237 0.58807 0.509716 0.473847 0.475548 0.425655
          0.386148 0.477152 0.478432 0.359084 0.372062 0.357638 0.459907 0.499179 0.479455 0.37131 0.426517 1
          1 0.844955 0.313466 0.391031 0.905902 0.476912 0.458855 0.497529 0.55682 0.602681 0.472244 0.363215
          0.347939 0.355625 0.382798 0.311781 0.311062 0.325401 0.325012 0.344689 0.338271 0.558788 0.617827 0.544914
          0.440843 0.458069 0.612103 0.34922 0.808464 0.317008 0.837989 0.394168 0.398169 0.34371 0.727236 0.68148
          0.731147 0.392388 0.432659 0.441932 0.411833 0.409897 0.310519 0.414346 0.402567 0.364108 0.350892 0.384897
          0.411151 0.3407 0.762676 0.883908 1 1 0.854592 1 1 0.856619 0.354734 0.696147
          0.341193 0.557422 0.50929 0.548135 0.596918 0.565906 0.447061 0.525117 0.350124 0.51418 0.479445 0.519127
          0.443518 0.379771 0.732405 0.310226 0.313943 0.334523 0.322638 0.32912 0.460146 0.364904 0.324835 0.428229
          0.413188 0.504286 0.653146 0.627519 0.612765 0.649804 0.698576 0.356776 0.312015 0.768726 0.336154 0.350163
          0.340991 0.402469 0.338947 0.37399 0.459539 0.3199 0.564404 0.363836 1 0.571542 0.349963 0.309037
          0.397315 0.502413 0.394709 0.341972 0.889985 0.889487 0.308553 1 1 0.33111 0.317622 0.308506
          0.419887 0.372086 0.324147 0.341843 0.351704 0.478204 0.721676 0.431975 0.308402 0.548952 0.332509 0.911774
          0.3478 0.455458 0.31172 0.320263 0.381141 0.490433 0.33127 0.675284 0.548624 0.498975 0.38272 0.318541
          0.905841 0.911992 0.390514 0.30654 0.327999 0.89713 0.890069 0.644113 0.879468 0.723368 0.831032 0.665693
          0.600763 0.569547 0.605116 0.348242 0.361569 0.357613 0.341614 0.32604 0.312854 0.313446 0.30925 0.322726
          0.664629 0.588247 0.561404 0.527257 0.613269 0.498547 0.478238 0.459734 0.377373 0.372012 0.357394 0.310058
          0.311601 0.589154 0.526688 0.334383 0.327886 0.341873 0.3564 0.37069 0.391316 0.372739 0.35656 0.48872
          0.535859 0.312691 0.388146 0.400216 0.417201 0.514134 0.484403 0.602792 0.532641 0.574875 0.521147 0.44414
          0.447797 0.557073 0.616916 0.61705 0.611741 0.687756 0.412019 0.332087 0.33608 0.719735 0.31843 0.45074
          0.486962 0.367031 0.328449 0.681792 0.679334 0.763016 0.32807 0.353225 0.353543 0.516078 0.340527 0.325008
          0.319564 0.329259 0.3206 1 0.521968 0.656527 0.724729 0.480291 0.489642 0.472031 0.513273 0.363106
          0.356278 0.347922 0.444519 0.696605 0.73961 0.775146 0.661977 1 0.552678 0.376439 0.373898 0.334467
          0.310818 0.341279 0.612006 0.578202 0.340993 0.332704 0.318508 0.330058 0.364307 0.404062 0.424476 0.409706
          0.339899 0.341031 0.695051 0.44925 0.396305 0.342824 0.888198 0.779238 0.886401 0.853412 0.343042 0.414615
          0.762407 0.317262 0.322776 0.311941 1 1 1 0.857278 1 1 0.481692 0.568153
          0.371551 0.906063 0.88185 0.883053 0.635718 0.487681 0.334545 0.322701 0.428902 0.346386 0.462342 0.389603
          0.397398 0.4116 0.42332 0.434689 0.389498 0.32253 0.352291 0.42918 0.423266 0.432189 1 1
          0.459156 0.457053 0.379781 0.333368 0.427847 0.325796 0.446572 0.311753 0.310093 0.372821 0.373252 0.386322
          0.909519 0.547848 0.498741 0.41172 0.402009 0.380856 0.428258 0.390236 0.308641 0.364722 0.459631 0.484411
          0.334574 0.547653 0.362943 0.347721 0.443207 0.343341 0.413398 0.752273 0.30952 0.317862 0.380958 0.402401
          0.421492 0.403171 0.385975 0.40157 0.462417 0.385112 0.388606 0.318386 0.891203 0.893561 0.807903 0.809902
          0.441027 0.754446 0.545096 0.555448 0.532284 0.566351 0.516595 0.495207 0.513987 0.493169 0.458903 0.448757
          0.448176 0.430131 0.440617 0.434127 0.434927 0.447667 0.433302 0.869074 0.776968 0.873139 0.4228 0.474899
          0.496417 0.48016 0.439828 0.480952 0.771208 0.542351 0.522859 0.557023 0.444459 0.478331 0.49662 0.486209
          0.704606 0.710521 0.704491 0.779762 0.71338 0.774489 0.620084 0.632888 0.660913 0.682477 0.615857 0.584198
          0.585704 0.539972 0.50172 0.587153 0.588279 0.474079 0.487501 0.472568 0.571622 0.606645 0.5892 0.486727
          0.54079 1 1 0.885447 0.411956 0.424873 0.411988 0.50657 0.930898 0.586919 0.570655 0.605188
          0.656296 0.694519 0.582752 0.478398 0.462325 0.470466 0.498375 0.411952 0.4231 0.422264 0.437957 0.437542
          0.458837 0.451925 0.65795 0.70707 0.646175 0.554155 0.569944 0.702332 0.463662 0.857358 0.428753 0.880166
          0.509679 0.513603 0.411991 0.457789 0.794769 0.412009 0.412004 0.758606 0.797881 0.507909 0.546545 0.555159
          0.526832 0.524981 0.421704 0.529249 0.51789 0.47932 0.465459 0.500477 0.526192 0.454577 0.822432 0.914547
          1 1 0.892616 1 1 0.894141 0.469512 0.770305 0.45511 0.656771 0.615512 0.648865
          0.689855 0.663947 0.559887 0.629202 0.464602 0.619735 0.589181 0.624012 0.556626 0.495311 0.798912 0.411964
          0.421245 0.425356 0.447916 0.43497 0.442041 0.571838 0.480145 0.437275 0.542397 0.528136 0.611117 0.735918
          0.714914 0.702948 0.733038 0.772292 0.471648 0.411969 0.423379 0.827202 0.449675 0.464691 0.45489 0.517792
          0.452625 0.489482 0.571272 0.431961 0.662676 0.479039 1 0.668728 0.464454 0.419999 0.512764 0.609491
          0.510195 0.455936 0.919017 0.918711 0.419483 1 1 0.444199 0.429358 0.419352 0.534526 0.487534
          0.436551 0.455797 0.466316 0.411995 0.588069 0.790547 0.54591 0.419339 0.649599 0.445692 0.935241 0.462169
          0.567579 0.423068 0.432393 0.496714 0.598938 0.444315 0.753646 0.649289 0.606452 0.498289 0.411901 0.430378
          0.930971 0.93561 0.506061 0.417482 0.440732 0.919132 0.92452 0.411823 0.728524 0.366773 0.37412 0.366873
          0.351966 0.34408 0.351878 0.401031 0.314345 0.314274 0.40092 0.314159 0.314245 0.400863 0.400994 0.359653
          0.359226 0.374372 0.363309 0.344074 0.355595 0.374924 0.379621 0.384677 0.343425 0.338309 0.332832 0.388777
          0.328274 0.373877 0.344554 0.320712 0.332897 0.326375 0.373967 0.370645 0.382871 0.34443 0.348019 0.334807
          0.337146 0.380744 0.337102 0.320706 0.327259 0.395402 0.389637 0.359404 0.369736 0.363252 0.359465 0.348913
          0.355639 0.399925 0.315616 0.374209 0.344182 0.310843 0.403951 0.368913 0.349777 0.367108 0.365211 0.351644
          0.353582 0.358275 0.342941 0.375361 0.360581 0.373984 0.344483 0.401134 0.314214 0.380025 0.390342 0.38407
          0.337944 0.32646 0.333408 0.326369 0.337862 0.333476 0.390319 0.380036 0.384055 0.314325 0.400997 0.359438
          0.402948 0.352108 0.312361 0.366642 0.396499 0.390682 0.335144 0.393344 0.322075 0.353547 0.365235 0.393483
          0.382831 0.323022 0.322935 0.393443 0.348836 0.369787 0.392149 0.324396 0.403182 0.311916 0.392514 0.324052
          0.323962 0.392484 0.311809 0.403143 0.38385 0.404752 0.343401 0.374896 0.310266 0.38872 0.381939
        </DataArray>
        <DataArray type="Float32" Name="p_aq" NumberOfComponents="1" format="ascii">
          100088 100081 100080 100129 100126 100129 100126 100036 100036 100045 100036 100044
          100045 100044 100129 100129 100126 100036 100126 100072 100109 100105 100100 100069
          100064 100060 100089 100076 100096 100088 100101 100117 100115 100056 100089 100088
          100096 100072 100076 100062 100049 100060 100054 100123 100114 100119 100064 100065
          100111 100049 100055 100072 100063 100104 100112 100129 100125 100129 100089 100100
          100093 100036 100036 100045 100089 100077 100084 100127 100042 100072 100105 100122
          100104 100095 100072 100105 100109 100080 100054 100065 100061 100119 100110 100114
          100036 100036 100044 100128 100126 100128 100129 100126 100129 100036 100036 100044
          100065 100054 100061 100110 100119 100114 100089 100080 100043 100097 100126 100106
          100113 100082 100051 100097 100089 100081 100071 100051 100121 100119 100051 100122
          100128 100077 100036 100100 100053 100080 100097 100052 100121 100043 100127 100127
          100043 100052 100121 100123 100100 100120 100071 100042 100105 100127 100106 100111
          100007 100006 100008 100005 100010 100013 100010 100014 100021 100024 100024 100030
          100026 100028 100028 100024 100029 100000 100001 100000 100032 100017 100013 100016
          100026 100016 100001 100007 100009 100006 100025 100016 100013 100015 100001 100001
          100001 100001 100001 100001 100003 100003 100002 100002 100003 100004 100004 100008
          100012 100004 100004 100017 100015 100018 100005 100003 100004 100015 100007 100000
          100000 100000 100031 100011 100000 100004 100005 100003 100002 100001 100005 100016
          100020 100018 100013 100032 100032 100027 100027 100021 100023 100002 100001 100002
          100006 100005 100001 100020 100000 100030 100000 100011 100010 100021 100000 100001
          100000 100011 100007 100006 100009 100009 100033 100009 100010 100016 100019 100012
          100009 100022 100000 100000 100000 100000 100000 100000 100000 100000 100018 100001
          100022 100002 100003 100002 100001 100002 100006 100003 100020 100003 100004 100003
          100006 100013 100000 100033 100031 100024 100028 100026 100005 100016 100027 100007
          100009 100003 100001 100001 100001 100001 100001 100018 100032 100000 100023 100019
          100022 100010 100023 100014 100005 100029 100002 100016 100000 100002 100020 100033
          100011 100003 100011 100022 100000 100000 100033 100000 100000 100025 100030 100034
          100008 100015 100028 100022 100019 100004 100001 100007 100033 100002 100025 100000
          100020 100005 100032 100029 100013 100004 100025 100001 100002 100003 100013 100030
          100000 100000 100012 100034 100026 100000 100000 100001 100000 100001 100000 100001
          100001 100002 100001 100020 100017 100018 100022 100027 100032 100032 100033 100028
          100001 100002 100002 100003 100001 100003 100004 100005 100014 100014 100018 100033
          100032 100002 100003 100024 100026 100022 100018 100015 100011 100014 100018 100004
          100002 100032 100012 100010 100008 100003 100004 100001 100002 100002 100003 100006
          100006 100002 100001 100001 100001 100001 100009 100025 100023 100000 100030 100006
          100004 100016 100026 100001 100001 100000 100026 100019 100019 100003 100022 100027
          100029 100026 100029 100000 100003 100001 100000 100004 100004 100005 100003 100016
          100018 100020 100006 100001 100000 100000 100001 100000 100002 100014 100014 100024
          100033 100022 100001 100002 100022 100025 100030 100025 100016 100010 100008 100009
          100022 100022 100001 100006 100011 100021 100000 100000 100000 100000 100021 100009
          100000 100030 100028 100032 100000 100000 100000 100000 100000 100000 100004 100002
          100015 100000 100000 100000 100001 100004 100024 100028 100007 100020 100005 100012
          100010 100009 100008 100007 100012 100028 100019 100007 100008 100007 100000 100000
          100005 100005 100013 100024 100007 100027 100006 100032 100033 100014 100014 100012
          100000 100002 100003 100009 100010 100013 100007 100011 100033 100016 100005 100004
          100024 100002 100016 100020 100006 100021 100009 100000 100033 100030 100013 100010
          100008 100010 100012 100010 100005 100012 100012 100030 100000 100000 100000 100000
          100006 100000 100006 100005 100007 100005 100008 100010 100008 100010 100015 100016
          100017 100020 100018 100019 100019 100017 100019 100000 100001 100000 100022 100012
          100010 100012 100018 100012 100001 100006 100008 100005 100017 100012 100010 100011
          100001 100001 100001 100001 100001 100001 100003 100003 100002 100002 100003 100004
          100004 100006 100009 100004 100004 100012 100011 100013 100005 100003 100004 100011
          100006 100000 100000 100000 100024 100021 100024 100009 100000 100004 100005 100003
          100002 100001 100004 100012 100014 100013 100010 100024 100021 100022 100018 100018
          100015 100016 100002 100001 100002 100005 100005 100001 100014 100000 100020 100000
          100009 100008 100024 100015 100001 100024 100024 100001 100001 100009 100006 100005
          100007 100007 100022 100007 100008 100012 100014 100009 100007 100015 100001 100000
          100000 100000 100000 100000 100000 100000 100013 100001 100015 100002 100003 100002
          100002 100002 100005 100003 100014 100003 100004 100003 100005 100010 100001 100024
          100022 100021 100017 100019 100018 100005 100012 100019 100006 100007 100003 100001
          100001 100001 100001 100001 100013 100024 100021 100000 100016 100014 100015 100008
          100016 100011 100005 100020 100002 100012 100000 100002 100014 100022 100008 100003
          100009 100015 100000 100000 100022 100000 100000 100017 100020 100022 100007 100011
          100019 100015 100014 100024 100004 100001 100006 100022 100002 100017 100000 100014
          100005 100021 100020 100010 100004 100017 100001 100002 100003 100010 100024 100020
          100000 100000 100009 100023 100018 100000 100000 100024 100001 100034 100032 100034
          100036 100037 100036 100026 100037 100037 100026 100037 100037 100026 100026 100035
          100035 100032 100034 100037 100035 100032 100031 100030 100037 100037 100037 100029
          100037 100032 100037 100037 100037 100038 100032 100033 100031 100037 100036 100037
          100037 100031 100037 100037 100037 100028 100029 100035 100033 100034 100035 100036
          100035 100027 100037 100032 100037 100037 100026 100033 100036 100034 100034 100036
          100036 100035 100037 100032 100035 100032 100037 100026 100037 100031 100029 100030
          100037 100037 100037 100037 100037 100037 100029 100031 100030 100037 100026 100035
          100026 100036 100037 100034 100027 100029 100037 100028 100037 100036 100034 100028
          100031 100037 100037 100028 100036 100033 100028 100037 100026 100037 100028 100037
          100037 100028 100037 100026 100030 100026 100037 100032 100037 100029 100031
        </DataArray>
        <DataArray type="Float32" Name="rho_aq" NumberOfComponents="1" format="ascii">
          1000 1000 1000 1000 1000 1000 1000 1000 1000 1000 1000 1000
          1000 1000 1000 1000 1000 1000 1000 1000 1000 1000 1000 1000
          1000 1000 1000 1000 1000 1000 1000 1000 1000 1000 1000 1000
          1000 1000 1000 1000 1000 1000 1000 1000 1000 1000 1000 1000
          1000 1000 1000 1000 1000 1000 1000 1000 1000 1000 1000 1000
          1000 1000 1000 1000 1000 1000 1000 1000 1000 1000 1000 1000
          1000 1000 1000 1000 1000 1000 1000 1000 1000 1000 1000 1000
          1000 1000 1000 1000 1000 1000 1000 1000 1000 1000 1000 1000
          1000 1000 1000 1000 1000 1000 1000 1000 1000 1000 1000 1000
          1000 1000 1000 1000 1000 1000 1000 1000 1000 1000 1000 1000
          1000 1000 1000 1000 1000 1000 1000 1000 1000 1000 1000 1000
          1000 1000 1000 1000 1000 1000 1000 1000 1000 1000 1000 1000
          1000 1000 1000 1000 1000 1000 1000 1000 1000 1000 1000 1000
          1000 1000 1000 1000 1000 1000 1000 1000 1000 1000 1000 1000
          1000 1000 1000 1000 1000 1000 1000 1000 1000 1000 1000 1000
          1000 1000 1000 1000 1000 1000 1000 1000 1000 1000 1000 1000
          1000 1000 1000 1000 1000 1000 1000 1000 1000 1000 1000 1000
          1000 1000 1000 1000 1000 1000 1000 1000 1000 1000 1000 1000
          1000 1000 1000 1000 1000 1000 1000 1000 1000 1000 1000 1000
          1000 1000 1000 1000 1000 1000 1000 1000 1000 1000 1000 1000
          1000 1000 1000 1000 1000 1000 1000 1000 1000 1000 1000 1000
          1000 1000 1000 1000 1000 1000 1000 1000 1000 1000 1000 1000
          1000 1000 1000 1000 1000 1000 1000 1000 1000 1000 1000 1000
          1000 1000 1000 1000 1000 1000 1000 1000 1000 1000 1000 1000
          1000 1000 1000 1000 1000 1000 1000 1000 1000 1000 1000 1000
          1000 1000 1000 1000 1000 1000 1000 1000 1000 1000 1000 1000
          1000 1000 1000 1000 1000 1000 1000 1000 1000 1000 1000 1000
          1000 1000 1000 1000 1000 1000 1000 1000 1000 1000 1000 1000
          1000 1000 1000 1000 1000 1000 1000 1000 1000 1000 1000 1000
          1000 1000 1000 1000 1000 1000 1000 1000 1000 1000 1000 1000
          1000 1000 1000 1000 1000 1000 1000 1000 1000 1000 1000 1000
          1000 1000 1000 1000 1000 1000 1000 1000 1000 1000 1000 1000
          1000 1000 1000 1000 1000 1000 1000 1000 1000 1000 1000 1000
          1000 1000 1000 1000 1000 1000 1000 1000 1000 1000 1000 1000
          1000 1000 1000 1000 1000 1000 1000 1000 1000 1000 1000 1000
          1000 1000 1000 1000 1000 1000 1000 1000 1000 1000 1000 1000
          1000 1000 1000 1000 1000 1000 1000 1000 1000 1000 1000 1000
          1000 1000 1000 1000 1000 1000 1000 1000 1000 1000 1000 1000
          1000 1000 1000 1000 1000 1000 1000 1000 1000 1000 1000 1000
          1000 1000 1000 1000 1000 1000 1000 1000 1000 1000 1000 1000
          1000 1000 1000 1000 1000 1000 1000 1000 1000 1000 1000 1000
          1000 1000 1000 1000 1000 1000 1000 1000 1000 1000 1000 1000
          1000 1000 1000 1000 1000 1000 1000 1000 1000 1000 1000 1000
          1000 1000 1000 1000 1000 1000 1000 1000 1000 1000 1000 1000
          1000 1000 1000 1000 1000 1000 1000 1000 1000 1000 1000 1000
          1000 1000 1000 1000 1000 1000 1000 1000 1000 1000 1000 1000
          1000 1000 1000 1000 1000 1000 1000 1000 1000 1000 1000 1000
          1000 1000 1000 1000 1000 1000 1000 1000 1000 1000 1000 1000
          1000 1000 1000 1000 1000 1000 1000 1000 1000 1000 1000 1000
          1000 1000 1000 1000 1000 1000 1000 1000 1000 1000 1000 1000
          1000 1000 1000 1000 1000 1000 1000 1000 1000 1000 1000 1000
          1000 1000 1000 1000 1000 1000 1000 1000 1000 1000 1000 1000
          1000 1000 1000 1000 1000 1000 1000 1000 1000 1000 1000 1000
          1000 1000 1000 1000 1000 1000 1000 1000 1000 1000 1000 1000
          1000 1000 1000 1000 1000 1000 1000 1000 1000 1000 1000 1000
          1000 1000 1000 1000 1000 1000 1000 1000 1000 1000 1000 1000
          1000 1000 1000 1000 1000 1000 1000 1000 1000 1000 1000 1000
          1000 1000 1000 1000 1000 1000 1000 1000 1000 1000 1000 1000
          1000 1000 1000 1000 1000 1000 1000 1000 1000 1000 1000 1000
          1000 1000 1000 1000 1000 1000 1000 1000 1000 1000 1000 1000
          1000 1000 1000 1000 1000 1000 1000 1000 1000 1000 1000 1000
          1000 1000 1000 1000 1000 1000 1000 1000 1000 1000 1000 1000
          1000 1000 1000 1000 1000 1000 1000 1000 1000 1000 1000 1000
          1000 1000 1000 1000 1000 1000 1000 1000 1000 1000 1000 1000
          1000 1000 1000 1000 1000 1000 1000 1000 1000 1000 1000 1000
          1000 1000 1000 1000 1000 1000 1000 1000 1000 1000 1000 1000
          1000 1000 1000 1000 1000 1000 1000 1000 1000 1000 1000 1000
          1000 1000 1000 1000 1000 1000 1000 1000 1000 1000 1000 1000
          1000 1000 1000 1000 1000 1000 1000 1000 1000 1000 1000 1000
          1000 1000 1000 1000 1000 1000 1000 1000 1000 1000 1000 1000
          1000 1000 1000 1000 1000 1000 1000 1000 1000 1000 1000 1000
          1000 1000 1000 1000 1000 1000 1000 1000 1000 1000 1000 1000
          1000 1000 1000 1000 1000 1000 1000 1000 1000 1000 1000 1000
          1000 1000 1000 1000 1000 1000 1000 1000 1000 1000 1000 1000
          1000 1000 1000 1000 1000 1000 1000 1000 1000 1000 1000 1000
          1000 1000 1000 1000 1000 1000 1000 1000 1000 1000 1000
        </DataArray>
        <DataArray type="Float32" Name="mob_aq" NumberOfComponents="1" format="ascii">
          3.12352 3.55518 3.5786 0.897238 1.24662 0.885928 1.25137 11.3412 11.383 8.00518 11.3184 7.94797
          7.99764 7.95607 0.901038 0.889704 1.25232 11.3695 1.25704 4.14796 2.11738 2.29504 2.54889 4.32389
          4.81466 5.21158 3.07141 3.8364 2.70657 3.12873 2.51007 1.74137 1.82382 5.74044 3.07565 3.11906
          2.71606 4.11199 3.80682 4.97244 6.83388 5.20609 5.98215 1.4513 1.8816 1.64062 4.74321 4.76261
          2.03607 6.81086 5.85657 4.11746 4.91028 2.34183 1.97889 0.888176 1.29077 0.889576 3.10208 2.55188
          2.86855 11.3886 11.3753 7.74901 3.09099 3.76648 3.34351 1.14342 8.76048 4.13754 2.32988 1.48867
          2.36716 2.74356 4.17015 2.30552 2.11003 3.58589 5.94787 4.67805 5.11849 1.64096 2.06278 1.88274
          11.3987 11.4004 8.02658 0.883803 1.24256 0.883606 0.887944 1.24765 0.887601 11.3789 11.3815 7.97115
          4.67215 5.94887 5.13475 2.07274 1.64887 1.89578 3.07621 3.54555 8.4451 2.69511 1.18379 2.27998
          1.91997 3.44283 6.61468 2.68096 3.08881 3.52775 4.19614 6.45039 1.52104 1.65562 6.45607 1.52928
          0.881937 3.77851 11.4074 2.54043 6.26831 3.57761 2.68479 6.31044 1.55405 8.54478 1.1703 1.17545
          8.53498 6.31385 1.56162 1.44211 2.55413 1.58113 4.19317 8.93818 2.28262 1.11936 2.24416 2.05072
          41.581 45.5315 37.0936 50.0301 32.1741 26.3773 31.4093 25.8756 18.6061 16.8171 16.7238 13.8876
          15.4844 14.4839 14.5941 16.6251 14.3539 424.396 238.441 434.628 12.8468 21.7463 26.6773 22.8703
          15.3629 23.0457 229.796 40.5841 34.0681 46.1653 16.1014 22.4714 26.7292 24.2292 146.37 152.648
          146.221 242.984 155.616 234.732 77.919 86.1843 106.699 125.009 75.3441 58.1835 58.9272 39.7368
          28.0374 59.6349 60.2042 21.5696 24.5246 21.2564 52.3342 69.9737 60.6614 24.3461 40.0248 1000
          1000 468.312 13.1263 29.3323 617.514 59.5286 51.9104 69.1585 103.016 136.388 57.4881 22.4817
          19.2367 20.8257 27.1722 12.8677 12.7584 15.0617 14.9956 18.5907 17.3593 104.311 148.97 95.4284
          45.0234 51.5952 144.118 19.4956 395.792 13.6817 453.624 30.1859 31.2995 18.3991 267.585 211.527
          272.866 29.6994 42.1172 45.42 35.3183 34.7284 12.6763 36.0948 32.5562 22.6824 19.8369 27.7122
          35.1097 17.8187 318.532 558.914 1000 1000 489.344 1000 1000 493.879 20.6371 228.396
          17.9128 103.411 75.1215 97.4399 131.813 109.094 47.3231 83.7148 19.6796 77.7058 60.6569 80.3842
          46.0027 26.4067 274.581 12.6322 13.2003 16.6671 14.5973 15.7027 52.431 22.8623 14.9657 40.6003
          35.7357 72.5416 181.643 157.459 144.674 178.342 231.286 21.0712 12.9034 327.96 16.9659 19.6877
          17.8741 32.5278 17.4863 24.9863 52.1858 14.1469 108.072 22.6213 1000 112.992 19.6467 12.4539
          31.0596 71.5922 30.335 18.0624 574.499 573.205 12.382 1000 1000 16.0532 13.7795 12.375
          37.8489 24.5303 14.8496 18.0374 20.0042 60.1023 260.218 41.8806 12.3595 97.9551 16.3028 636.841
          19.2089 50.5583 12.8583 14.206 26.7512 65.7277 16.0817 204.695 97.7479 69.8727 27.1522 13.927
          617.336 637.64 29.1934 12.0855 15.5075 593.386 574.715 172.822 547.797 262.443 439.37 194.451
          134.853 111.601 138.356 19.2976 22.1152 21.251 17.9934 15.1704 13.032 13.1232 12.4858 14.6119
          193.34 125.143 106.051 84.928 145.098 69.6609 60.1177 52.2644 25.8107 24.5128 21.2038 12.6068
          12.8402 125.829 84.6045 16.6415 15.4878 18.0434 20.9908 24.1997 29.4092 24.686 21.0251 64.9184
          89.9335 13.0069 28.5623 31.8801 36.9913 77.6809 62.9095 136.478 88.0368 115.344 81.4967 46.2324
          47.6006 103.183 148.19 148.305 143.816 218.624 35.3756 16.2272 16.9522 257.684 13.9091 48.722
          64.0948 23.3479 15.5856 211.876 209.142 319.056 15.5197 20.3203 20.3866 78.7259 17.7856 14.995
          14.0922 15.7269 14.2611 1000 81.9518 185.03 264.243 61.0372 65.3532 57.3965 77.2216 22.4574
          20.9648 19.2332 46.3732 228.939 284.574 338.213 190.589 1000 100.329 25.5812 24.9641 16.6567
          12.7214 17.9293 144.037 117.728 17.8745 16.3379 13.9215 15.8671 22.7273 32.9913 39.3456 34.6704
          17.6663 17.8818 227.101 48.152 30.7773 18.2269 569.871 344.883 565.256 486.724 18.2692 36.1787
          318.119 13.722 14.6203 12.892 1000 1000 1000 495.36 1000 1000 61.6706 110.636
          24.4032 617.987 553.733 556.757 164.917 64.4308 16.671 14.6078 40.8285 18.9261 53.3245 28.9493
          31.0829 35.2472 38.9649 42.8253 28.9215 14.5794 20.1258 40.9228 38.9472 41.9544 1000 1000
          52.0313 51.1901 26.4091 16.4576 40.4715 15.1288 47.1393 12.8634 12.6121 24.7055 24.8088 28.0827
          628.915 97.2598 69.7566 35.2839 32.3949 26.6793 40.6103 29.1187 12.3951 22.821 52.2228 62.9132
          16.6763 97.1369 22.4209 19.193 45.8881 18.3273 35.8005 302.835 12.5261 13.8179 26.705 32.5082
          38.3678 32.7315 27.9922 32.2683 53.3553 27.7679 28.6842 13.902 577.674 583.874 394.759 398.454
          45.0902 306.062 95.541 102.12 87.8281 109.398 79.0052 68.0219 77.6024 67.0357 51.9296 47.9646
          47.7439 41.2471 44.9409 42.6285 42.9091 47.5513 42.3406 522.607 341.169 532.32 38.7942 58.6427
          68.6123 60.9782 44.6553 61.3357 331.893 93.8493 82.4477 103.15 46.3508 60.159 68.7119 63.7446
          238.584 245.915 238.444 345.745 249.521 337.152 150.916 162.314 189.494 212.642 147.287 122.114
          123.234 92.4005 71.243 124.319 125.167 58.2843 64.3465 57.6283 113.048 139.603 125.864 63.9853
          92.8969 1000 1000 562.821 35.3561 39.4771 35.3661 73.711 723.432 124.143 112.372 138.415
          184.797 226.474 121.046 60.1888 53.3177 56.7244 69.5754 35.3549 38.8926 38.6191 43.9829 43.8345
          51.903 49.1788 186.47 241.617 174.807 101.281 111.877 235.811 53.8668 495.541 40.7778 549.529
          75.3249 77.3974 35.3671 51.4834 371.204 35.3724 35.3709 312.315 376.676 74.4033 96.443 101.933
          84.6862 83.638 38.4368 86.0692 79.708 60.6009 54.6115 70.6202 84.3225 50.2117 422.295 647.386
          1000 1000 581.38 1000 1000 585.407 56.3172 330.457 50.4213 185.277 146.993 177.422
          221.037 192.63 105.04 158.969 54.2556 150.614 125.849 154.347 102.89 68.0727 378.503 35.3586
          38.2876 39.6373 47.6457 42.924 45.4599 113.2 60.9715 43.7397 93.8777 85.4301 143.295 279.418
          251.472 236.56 275.447 333.623 57.2312 35.3601 38.9843 431.691 48.314 54.2922 50.3346 79.6546
          49.4501 65.2774 112.804 41.8756 191.312 60.4753 1000 197.65 54.194 37.8847 76.951 141.944
          75.5954 50.7471 666.047 664.707 37.719 1000 1000 46.2545 40.9834 37.6768 89.1444 64.3622
          43.4823 50.6923 54.969 35.368 125.009 363.888 96.0473 37.6726 178.141 46.8096 746.377 53.2537
          110.241 38.882 42.0251 68.7581 133.404 46.2975 304.871 177.837 139.445 69.533 35.3394 41.3315
          723.81 748.356 73.4492 37.0803 44.9829 666.549 691.422 35.3154 269.315 23.2886 25.0176 23.3115
          20.0585 18.4714 20.0401 32.1136 13.2626 13.2516 32.0815 13.2338 13.2471 32.0651 32.1029 21.6936
          21.6005 25.0785 22.5027 18.4703 20.8195 25.212 26.369 27.6551 18.3437 17.3666 16.361 28.7296
          15.5551 24.9589 18.5642 14.2795 16.3726 15.2277 24.9806 24.1891 27.1908 18.5399 19.2529 16.7188
          17.1496 26.6511 17.1414 14.2785 15.3796 30.5266 28.9585 21.6392 23.9756 22.49 21.6526 19.4333
          20.8287 31.7971 13.4615 25.0391 18.4914 12.7252 32.959 23.7834 19.6088 23.3655 22.9319 19.9919
          20.3949 21.394 18.2497 25.3182 21.8971 24.9847 18.5503 32.143 13.2423 26.4703 29.1472 27.4985
          17.2982 15.2422 16.4646 15.2267 17.2829 16.477 29.1409 26.4731 27.4947 13.2595 32.1038 21.6467
          32.6668 20.0879 12.9563 23.2584 30.8312 29.2385 16.7804 29.9602 14.5038 20.3875 22.9373 29.9981
          27.1806 14.6612 14.6467 29.9871 19.4177 23.9875 29.6346 14.8916 32.7347 12.8882 29.7337 14.8336
          14.8185 29.7257 12.872 32.7234 27.4419 33.1934 18.3389 25.2052 12.6382 28.7143 26.9533
        </DataArray>
        <DataArray type="Float32" Name="S_napl" NumberOfComponents="1" format="ascii">
          0.784557 0.77744 0.777071 0.839873 0.827379 0.840328 0.827226 0.698669 0.69837 0.725435 0.698832 0.725955
          0.725503 0.725882 0.83972 0.840176 0.827196 0.698467 0.827045 0.768567 0.804238 0.800359 0.795155 0.766101