<?xml version="1.0"?>
<VTKFile type="UnstructuredGrid" version="0.1" byte_order="LittleEndian">
  <UnstructuredGrid>
    <Piece NumberOfCells="1536" NumberOfPoints="6144">
      <PointData Scalars="S_aq">
        <DataArray type="Float32" Name="S_aq" NumberOfComponents="1" format="ascii">
          1 1 1 1 1 1 1 1 1 1 1 1
          1 1 1 1 1 1 1 1 1 1 1 1
          1 1 1 1 1 1 1 1 1 1 1 1
          1 1 1 1 1 1 1 1 1 1 1 1
          1 1 1 1 1 1 1 1 1 1 1 1
          1 1 1 1 1 1 1 1 1 1 1 1
          1 1 1 1 1 1 1 1 1 1 1 1
          1 1 1 1 1 1 1 1 1 1 1 1
          1 1 1 1 1 1 1 1 1 1 1 1
          1 1 1 1 1 1 1 1 1 1 1 1
          1 1 1 1 1 1 1 1 1 1 1 1
          1 1 1 1 1 1 1 1 1 1 1 1
          1 1 1 1 1 1 1 1 1 1 1 1
          1 1 1 1 1 1 1 1 1 1 1 1
          1 1 1 1 1 1 1 1 1 1 1 1
          1 1 1 1 1 1 1 1 1 1 1 1
          1 1 1 1 1 1 1 1 1 1 1 1
          1 1 1 1 1 1 1 1 1 1 1 1
          1 1 1 1 1 1 1 1 1 1 1 1
          1 1 1 1 1 1 1 1 1 1 1 1
          1 1 1 1 1 1 1 1 1 1 1 1
          1 1 1 1 1 1 1 1 1 1 1 1
          1 1 1 1 1 1 1 1 1 1 1 1
          1 1 1 1 1 1 1 1 1 1 1 1
          1 1 1 1 1 1 1 1 1 1 1 1
          1 1 1 1 1 1 1 1 1 1 1 1
          1 1 1 1 1 1 1 1 1 1 1 1
          1 1 1 1 1 1 1 1 1 1 1 1
          1 1 1 1 1 1 1 1 1 1 1 1
          1 1 1 1 1 1 1 1 1 1 1 1
          1 1 1 1 1 1 1 1 1 1 1 1
          1 1 1 1 1 1 1 1 1 1 1 1
          1 1 1 1 1 1 1 1 1 1 1 1
          1 1 1 1 1 1 1 1 1 1 1 1
          1 1 1 1 1 1 1 1 1 1 1 1
          1 1 1 1 1 1 1 1 1 1 1 1
          1 1 1 1 1 1 1 1 1 1 1 1
          1 1 1 1 1 1 1 1 1 1 1 1
          1 1 1 1 1 1 1 1 1 1 1 1
          1 1 1 1 1 1 1 1 1 1 1 1
          1 1 1 1 1 1 1 1 1 1 1 1
          1 1 1 1 1 1 1 1 1 1 1 1
          1 1 1 1 1 1 1 1 1 1 1 1
          1 1 1 1 1 1 1 1 1 1 1 1
          1 1 1 1 1 1 1 1 1 1 1 1
          1 1 1 1 1 1 1 1 1 1 1 1
          1 1 1 1 1 1 1 1 1 1 1 1
          1 1 1 1 1 1 1 1 1 1 1 1
          1 1 1 1 1 1 1 1 1 1 1 1
          1 1 1 1 1 1 1 1 1 1 1 1
          1 1 1 1 1 1 1 1 1 1 1 1
          1 1 1 1 1 1 1 1 1 1 1 1
          1 1 1 1 1 1 1 1 1 1 1 1
          1 1 1 1 1 1 1 1 1 1 1 1
          1 1 1 1 1 1 1 1 1 1 1 1
          1 1 1 1 1 1 1 1 1 1 1 1
          1 1 1 1 1 1 1 1 1 1 1 1
          1 1 1 1 1 1 1 1 1 1 1 1
          1 1 1 1 1 1 1 1 1 1 1 1
          1 1 1 1 1 1 1 1 1 1 1 1
          1 1 1 1 1 1 1 1 1 1 1 1
          1 1 1 1 1 1 1 1 1 1 1 1
          1 1 1 1 1 1 1 1 1 1 1 1
          1 1 1 1 1 1 1 1 1 1 1 1
          1 1 1 1 1 1 1 1 1 1 1 1
          1 1 1 1 1 1 1 1 1 1 1 1
          1 1 1 1 1 1 1 1 1 1 1 1
          1 1 1 1 1 1 1 1 1 1 1 1
          1 1 1 1 1 1 1 1 1 1 1 1
          1 1 1 1 1 1 1 1 1 1 1 1
          1 1 1 1 1 1 1 1 1 1 1 1
          1 1 1 1 1 1 1 1 1 1 1 1
          1 1 1 1 1 1 1 1 1 1 1 1
          1 1 1 1 1 1 1 1 1 1 1 1
          1 1 1 1 1 1 1 1 1 1 1 1
          1 1 1 1 1 1 1 1 1 1 1 1
          1 1 1 1 1 1 1 1 1 1 1 1
          1 1 1 1 1 1 1 1 1 1 1 1
          1 1 1 1 1 1 1 1 1 1 1 1
          1 1 1 1 1 1 1 1 1 1 1 1
          1 1 1 1 1 1 1 1 1 1 1 1
          1 1 1 1 1 1 1 1 1 1 1 1
          1 1 1 1 1 1 1 1 1 1 1 1
          1 1 1 1 1 1 1 1 1 1 1 1
          1 1 1 1 1 1 1 1 1 1 1 1
          1 1 1 1 1 1 1 1 1 1 1 1
          1 1 1 1 1 1 1 1 1 1 1 1
          1 1 1 1 1 1 1 1 1 1 1 1
          1 1 1 1 1 1 1 1 1 1 1 1
          1 1 1 1 1 1 1 1 1 1 1 1
          1 1 1 1 1 1 1 1 1 1 1 1
          1 1 1 1 1 1 1 1 1 1 1 1
          1 1 1 1 1 1 1 1 1 1 1 1
          1 1 1 1 1 1 1 1 1 1 1 1
          1 1 1 1 1 1 1 1 1 1 1 1
          1 1 1 1 1 1 1 1 1 1 1 1
          1 1 1 1 1 1 1 1 1 1 1 1
          1 1 1 1 1 1 1 1 1 1 1 1
          1 1 1 1 1 1 1 1 1 1 1 1
          1 1 1 1 1 1 1 1 1 1 1 1
          1 1 1 1 1 1 1 1 1 1 1 1
          1 1 1 1 1 1 1 1 1 1 1 1
          1 1 1 1 1 1 1 1 1 1 1 1
          1 1 1 1 1 1 1 1 1 1 1 1
          1 1 1 1 1 1 1 1 1 1 1 1
          1 1 1 1 1 1 1 1 1 1 1 1
          1 1 1 1 1 1 1 1 1 1 1 1
          1 1 1 1 1 1 1 1 1 1 1 1
          1 1 1 1 1 1 1 1 1 1 1 1
          1 1 1 1 1 1 1 1 1 1 1 1
          1 1 1 1 1 1 1 1 1 1 1 1
          1 1 1 1 1 1 1 1 1 1 1 1
          1 1 1 1 1 1 1 1 1 1 1 1
          1 1 1 1 1 1 1 1 1 1 1 1
          1 1 1 1 1 1 1 1 1 1 1 1
          1 1 1 1 1 1 1 1 1 1 1 1
          1 1 1 1 1 1 1 1 1 1 1 1
          1 1 1 1 1 1 1 1 1 1 1 1
          1 1 1 1 1 1 1 1 1 1 1 1
          1 1 1 1 1 1 1 1 1 1 1 1
          1 1 1 1 1 1 1 1 1 1 1 1
          1 1 1 1 1 1 1 1 1 1 1 1
          1 1 1 1 1 1 1 1 1 1 1 1
          1 1 1 1 1 1 1 1 1 1 1 1
          1 1 1 1 1 1 1 1 1 1 1 1
          1 1 1 1 1 1 1 1 1 1 1 1
          1 1 1 1 1 1 1 1 1 1 1 1
          1 1 1 1 1 1 1 1 1 1 1 1
          1 1 1 1 1 1 1 1 1 1 1 1
          1 1 1 1 1 1 1 1 1 1 1 1
          1 1 1 1 1 1 1 1 1 1 1 1
          1 1 1 1 1 1 1 1 1 1 1 1
          1 1 1 1 1 1 1 1 1 1 1 1
          1 1 1 1 1 1 1 1 1 1 1 1
          1 1 1 1 1 1 1 1 1 1 1 1
          1 1 1 1 1 1 1 1 1 1 1 1
          1 1 1 1 1 1 1 1 1 1 1 1
          1 1 1 1 1 1 1 1 1 1 1 1
          1 1 1 1 1 1 1 1 1 1 1 1
          1 1 1 1 1 1 1 1 1 1 1 1
          1 1 1 1 1 1 1 1 1 1 1 1
          1 1 1 1 1 1 1 1 1 1 1 1
          1 1 1 1 1 1 1 1 1 1 1 1
          1 1 1 1 1 1 1 1 1 1 1 1
          1 1 1 1 1 1 1 1 1 1 1 1
          1 1 1 1 1 1 1 1 1 1 1 1
          1 1 1 1 1 1 1 1 1 1 1 1
          1 1 1 1 1 1 1 1 1 1 1 1
          1 1 1 1 1 1 1 1 1 1 1 1
          1 1 1 1 1 1 1 1 1 1 1 1
          1 1 1 1 1 1 1 1 1 1 1 1
          1 1 1 1 1 1 1 1 1 1 1 1
          1 1 1 1 1 1 1 1 1 1 1 1
          1 1 1 1 1 1 1 1 1 1 1 1
          1 1 1 1 1 1 1 1 1 1 1 0.999999
          1 1 0.999999 0.999999 1 1 0.999999 1 1 1 1 1
          1 1 1 1 1 1 1 1 1 1 1 1
          1 1 1 1 1 1 1 1 1 1 1 1
          1 1 1 1 1 1 1 1 1 1 1 1
          1 1 1 1 1 1 1 1 1 1 1 1
          1 1 1 1 1 1 1 1 1 1 1 1
          1 1 1 1 1 1 1 1 1 1 1 1
          1 1 1 1 1 1 1 1 1 1 1 1
          1 1 1 1 1 1 1 1 1 1 1 1
          1 1 1 1 1 1 1 1 1 1 1 1
          1 1 1 1 1 1 1 1 1 1 1 1
          1 1 1 1 1 1 1 1 1 1 1 1
          1 1 1 1 1 1 1 1 1 1 1 1
          1 1 1 1 1 1 1 1 1 1 1 1
          1 1 1 1 1 1 1 1 1 1 1 1
          1 1 1 1 1 1 1 0.999999 1 0.999999 0.999999 0.999745
          0.999999 0.999999 0.999745 0.999796 0.999999 1 0.999796 0.999995 1 1 0.999995 1
          1 1 1 1 1 1 1 1 1 1 1 1
          1 1 1 1 1 1 1 1 1 1 1 1
          1 1 1 1 1 1 1 1 1 1 1 1
          1 1 1 1 1 1 1 1 1 1 1 1
          1 1 1 1 1 1 1 1 1 1 1 1
          1 1 1 1 1 1 1 1 1 1 1 1
          1 1 1 1 1 1 1 1 1 1 1 1
          1 1 1 1 1 1 1 1 1 1 1 1
          1 1 1 1 1 1 1 1 1 1 1 1
          1 1 1 1 1 1 1 1 1 1 1 1
          1 1 1 1 1 1 1 1 1 1 1 1
          1 1 1 1 1 1 1 1 1 1 1 1
          1 1 1 1 1 1 1 1 1 1 1 1
          1 1 1 1 1 1 1 1 1 1 1 1
          1 1 1 1 1 0.999999 1 0.999688 0.999999 0.999745 0.999688 0.996139
          0.999745 0.999796 0.996139 0.99652 0.999796 0.999995 0.99652 0.999425 0.999995 1 0.999425 0.999997
          1 1 0.999997 1 1 1 1 1 1 1 1 1
          1 1 1 1 1 1 1 1 1 1 1 1
          1 1 1 1 1 1 1 1 1 1 1 1
          1 1 1 1 1 1 1 1 1 1 1 1
          1 1 1 1 1 1 1 1 1 1 1 1
          1 1 1 1 1 1 1 1 1 1 1 1
          1 1 1 1 1 1 1 1 1 1 1 1
          1 1 1 1 1 1 1 1 1 1 1 1
          1 1 1 1 1 1 1 1 1 1 1 1
          1 1 1 1 1 1 1 1 1 1 1 1
          1 1 1 1 1 1 1 1 1 1 1 1
          1 1 1 1 1 1 1 1 1 1 1 1
          1 1 1 1 1 1 1 1 1 1 1 1
          1 1 1 1 1 1 1 1 1 1 1 1
          1 1 1 1 1 0.999688 1 0.995746 0.999688 0.996139 0.995746 0.985016
          0.996139 0.99652 0.985016 0.985913 0.99652 0.999425 0.985913 0.994666 0.999425 0.999997 0.994666 0.999653
          0.999997 1 0.999653 0.999999 1 1 0.999999 1 1 1 1 1
          1 1 1 1 1 1 1 1 1 1 1 1
          1 1 1 1 1 1 1 1 1 1 1 1
          1 1 1 1 1 1 1 1 1 1 1 1
          1 1 1 1 1 1 1 1 1 1 1 1
          1 1 1 1 1 1 1 1 1 1 1 1
          1 1 1 1 1 1 1 1 1 1 1 1
          1 1 1 1 1 1 1 1 1 1 1 1
          1 1 1 1 1 1 1 1 1 1 1 1
          1 1 1 1 1 1 1 1 1 1 1 1
          1 1 1 1 1 1 1 1 1 1 1 1
          1 1 1 1 1 1 1 1 1 1 1 1
          1 1 1 1 1 1 1 1 1 1 1 1
          1 1 1 1 1 1 1 1 1 1 1 1
          1 1 1 1 1 0.995746 1 0.984466 0.995746 0.985016 0.984466 0.967262
          0.985016 0.985913 0.967262 0.96874 0.985913 0.994666 0.96874 0.983988 0.994666 0.999653 0.983988 0.997183
          0.999653 0.999999 0.997183 0.999947 0.999999 1 0.999947 1 1 1 1 1
          1 1 1 1 1 1 1 1 1 1 1 1
          1 1 1 1 1 1 1 1 1 1 1 1
          1 1 1 1 1 1 1 1 1 1 1 1
          1 1 1 1 1 1 1 1 1 1 1 1
          1 1 1 1 1 1 1 1 1 1 1 1
          1 1 1 1 1 1 1 1 1 1 1 1
          1 1 1 1 1 1 1 1 1 1 1 1
          1 1 1 1 1 1 1 1 1 1 1 1
          1 1 1 1 1 1 1 1 1 1 1 1
          1 1 1 1 1 1 1 1 1 1 1 1
          1 1 1 1 1 1 1 1 1 1 1 1
          1 1 1 1 1 1 1 1 1 1 1 1
          1 1 1 1 1 1 1 1 1 1 1 1
          1 1 1 1 1 0.984466 1 0.968814 0.984466 0.967262 0.968814 0.946327
          0.967262 0.96874 0.946327 0.949141 0.96874 0.983988 0.949141 0.970752 0.983988 0.997183 0.970752 0.992772
          0.997183 0.999947 0.992772 0.999596 0.999947 1 0.999596 0.999999 1 1 0.999999 1
          1 1 1 1 1 1 1 1 1 1 1 1
          1 1 1 1 1 1 1 1 1 1 1 1
          1 1 1 1 1 1 1 1 1 1 1 1
          1 1 1 1 1 1 1 1 1 1 1 1
          1 1 1 1 1 1 1 1 1 1 1 1
          1 1 1 1 1 1 1 1 1 1 1 1
          1 1 1 1 1 1 1 1 1 1 1 1
          1 1 1 1 1 1 1 1 1 1 1 1
          1 1 1 1 1 1 1 1 1 1 1 1
          1 1 1 1 1 1 1 1 1 1 1 1
          1 1 1 1 1 1 1 1 1 1 1 1
          1 1 1 1 1 1 1 1 1 1 1 1
          1 1 1 1 1 1 1 1 1 1 1 1
          1 1 1 1 1 0.968814 1 0.950568 0.968814 0.946327 0.950568 0.922319
          0.946327 0.949141 0.922319 0.930425 0.949141 0.970752 0.930425 0.959486 0.970752 0.992772 0.959486 0.988817
          0.992772 0.999596 0.988817 0.999066 0.999596 0.999999 0.999066 0.999996 0.999999 1 0.999996 1
          1 1 1 1 1 1 1 1 1 1 1 1
          1 1 1 1 1 1 1 1 1 1 1 1
          1 1 1 1 1 1 1 1 1 1 1 1
          1 1 1 1 1 1 1 1 1 1 1 1
          1 1 1 1 1 1 1 1 1 1 1 1
          1 1 1 1 1 1 1 1 1 1 1 1
          1 1 1 1 1 1 1 1 1 1 1 1
          1 1 1 1 1 1 1 1 1 1 1 1
          1 1 1 1 1 1 1 1 1 1 1 1
          1 1 1 1 1 1 1 1 1 1 1 1
          1 1 1 1 1 1 1 1 1 1 1 1
          1 1 1 1 1 1 1 1 1 1 1 1
          1 1 1 1 1 1 1 1 1 1 1 1
          1 1 1 1 1 0.999459 1 0.999342 0.950568 0.922319 0.88998 0.892359
          0.922319 0.930425 0.892359 0.916102 0.930425 0.959486 0.916102 0.954126 0.959486 0.988817 0.954126 0.987664
          0.988817 0.999066 0.987664 0.998951 0.999066 0.999996 0.998951 0.999996 0.999996 1 0.999996 1
          1 1 1 1 1 1 1 1 1 1 1 1
          1 1 1 1 1 1 1 1 1 1 1 1
          1 1 1 1 1 1 1 1 1 1 1 1
          1 1 1 1 1 1 1 1 1 1 1 1
          1 1 1 1 1 1 1 1 1 1 1 1
          1 1 1 1 1 1 1 1 1 1 1 1
          1 1 1 1 1 1 1 1 1 1 1 1
          1 1 1 1 1 1 1 1 1 1 1 1
          1 1 1 1 1 1 1 1 1 1 1 1
          1 1 1 1 1 1 1 1 1 1 1 1
          1 1 1 1 1 1 1 1 1 1 1 1
          1 1 1 1 1 1 1 1 1 1 1 1
          1 1 1 1 1 1 1 1 1 1 1 1
          1 1 1 1 1 0.999342 1 0.999298 0.88998 0.892359 0.8591 0.876421
          0.892359 0.916102 0.876421 0.911944 0.916102 0.954126 0.911944 0.956063 0.954126 0.987664 0.956063 0.989592
          0.987664 0.998951 0.989592 0.999306 0.998951 0.999996 0.999306 0.999998 0.999996 1 0.999998 1
          1 1 1 1 1 1 1 1 1 1 1 1
          1 1 1 1 1 1 1 1 1 1 1 1
          1 1 1 1 1 1 1 1 1 1 1 1
          1 1 1 1 1 1 1 1 1 1 1 1
          1 1 1 1 1 1 1 1 1 1 1 1
          1 1 1 1 1 1 1 1 1 1 1 1
          1 1 1 1 1 1 1 1 1 1 1 1
          1 1 1 1 1 1 1 1 1 1 1 1
          1 1 1 1 1 1 1 1 1 1 1 1
          1 1 1 1 1 1 1 1 1 1 1 1
          1 1 1 1 1 1 1 1 1 1 1 1
          1 1 1 1 1 1 1 1 1 1 1 1
          1 1 1 1 1 1 1 1 1 1 1 1
          1 1 1 1 1 0.999298 1 0.999274 0.8591 0.876421 0.841049 0.869649
          0.876421 0.911944 0.869649 0.914231 0.911944 0.956063 0.914231 0.96148 0.956063 0.989592 0.96148 0.992238
          0.989592 0.999306 0.992238 0.999648 0.999306 0.999998 0.999648 1 0.999998 1 1 1
          1 1 1 1 1 1 1 1 1 1 1 1
          1 1 1 1 1 1 1 1 1 1 1 1
          1 1 1 1 1 1 1 1 1 1 1 1
          1 1 1 1 1 1 1 1 1 1 1 1
          1 1 1 1 1 1 1 1 1 1 1 1
          1 1 1 1 1 1 1 1 1 1 1 1
          1 1 1 1 1 1 1 1 1 1 1 1
          1 1 1 1 1 1 1 1 1 1 1 1
          1 1 1 1 1 1 1 1 1 1 1 1
          1 1 1 1 1 1 1 1 1 1 1 1
          1 1 1 1 1 1 1 1 1 1 1 1
          1 1 1 1 1 1 1 1 1 1 1 1
          1 1 1 1 1 1 1 1 1 1 1 1
          1 1 1 1 1 0.999274 1 0.999256 0.841049 0.869649 0.826572 0.867791
          0.869649 0.914231 0.867791 0.919803 0.914231 0.96148 0.919803 0.967677 0.96148 0.992238 0.967677 0.99436
          0.992238 0.999648 0.99436 0.999837 0.999648 1 0.999837 1 1 1 1 1
          1 1 1 1 1 1 1 1 1 1 1 1
          1 1 1 1 1 1 1 1 1 1 1 1
          1 1 1 1 1 1 1 1 1 1 1 1
          1 1 1 1 1 1 1 1 1 1 1 1
          1 1 1 1 1 1 1 1 1 1 1 1
          1 1 1 1 1 1 1 1 1 1 1 1
          1 1 1 1 1 1 1 1 1 1 1 1
          1 1 1 1 1 1 1 1 1 1 1 1
          1 1 1 1 1 1 1 1 1 1 1 1
          1 1 1 1 1 1 1 1 1 1 1 1
          1 1 1 1 1 1 1 1 1 1 1 1
          1 1 1 1 1 1 1 1 1 1 1 1
          1 1 1 1 1 1 1 1 1 1 1 1
          1 1 1 1 1 0.999256 1 0.99924 0.826572 0.867791 0.81267 0.869494
          0.867791 0.919803 0.869494 0.9276 0.919803 0.967677 0.9276 0.973827 0.967677 0.99436 0.973827 0.996018
          0.99436 0.999837 0.996018 0.999931 0.999837 1 0.999931 1 1 1 1 1
          1 1 1 1 1 1 1 1 1 1 1 1
          1 1 1 1 1 1 1 1 1 1 1 1
          1 1 1 1 1 1 1 1 1 1 1 1
          1 1 1 1 1 1 1 1 1 1 1 1
          1 1 1 1 1 1 1 1 1 1 1 1
          1 1 1 1 1 1 1 1 1 1 1 1
          1 1 1 1 1 1 1 1 1 1 1 1
          1 1 1 1 1 1 1 1 1 1 1 1
          1 1 1 1 1 1 1 1 1 1 1 1
          1 1 1 1 1 1 1 1 1 1 1 1
          1 1 1 1 1 1 1 1 1 1 1 1
          1 1 1 1 1 1 1 1 1 1 1 1
          1 1 1 1 1 1 1 1 1 1 1 1
          1 1 1 1 1 0.99924 1 0.999223 0.81267 0.869494 0.798034 0.87487
          0.869494 0.9276 0.87487 0.9375 0.9276 0.973827 0.9375 0.979853 0.973827 0.996018 0.979853 0.997403
          0.996018 0.999931 0.997403 0.999976 0.999931 1 0.999976 1 1 1 1 1
          1 1 1 1 1 1 1 1 1 1 1 1
          1 1 1 1 1 1 1 1 1 1 1 1
          1 1 1 1 1 1 1 1 1 1 1 1
          1 1 1 1 1 1 1 1 1 1 1 1
          1 1 1 1 1 1 1 1 1 1 1 1
          1 1 1 1 1 1 1 1 1 1 1 1
          1 1 1 1 1 1 1 1 1 1 1 1
          1 1 1 1 1 1 1 1 1 1 1 1
          1 1 1 1 1 1 1 1 1 1 1 0.999999
          1 1 0.999999 0.999999 1 1 0.999999 0.999999 1 1 0.999999 0.999999
          1 1 0.999999 0.999999 1 1 0.999999 0.999998 1 1 0.999998 0.999998
          1 1 0.999998 0.999998 1 1 0.999998 0.999998 1 1 0.999998 0.999998
          1 1 0.999998 0.999999 1 1 0.999999 0.999999 1 1 0.999999 0.999999
          1 1 0.999999 0.999999 1 0.999223 0.999999 0.999205 0.798034 0.87487 0.781733 0.885423
          0.87487 0.9375 0.885423 0.950025 0.9375 0.979853 0.950025 0.985955 0.979853 0.997403 0.985955 0.998619
          0.997403 0.999976 0.998619 0.999995 0.999976 1 0.999995 1 1 1 1 1
          1 1 1 1 1 1 1 1 1 1 1 1
          1 1 1 1 1 1 1 1 1 1 1 1
          1 1 1 1 1 1 1 1 1 1 1 1
          1 1 1 1 1 1 1 1 1 1 1 1
          1 1 1 1 1 1 1 1 1 1 1 1
          1 1 1 1 1 1 1 1 1 1 1 1
          1 1 1 1 1 1 1 1 1 1 1 1
          1 1 1 1 1 1 1 0.999712 1 1 0.999712 0.999454
          1 1 0.999454 0.999253 1 1 0.999253 0.99912 1 0.999999 0.99912 0.999017
          0.999999 0.999999 0.999017 0.998932 0.999999 0.999999 0.998932 0.998864 0.999999 0.999999 0.998864 0.998813
          0.999999 0.999999 0.998813 0.998775 0.999999 0.999998 0.998775 0.998748 0.999998 0.999998 0.998748 0.998729
          0.999998 0.999998 0.998729 0.998719 0.999998 0.999998 0.998719 0.998718 0.999998 0.999998 0.998718 0.998726
          0.999998 0.999999 0.998726 0.998745 0.999999 0.999999 0.998745 0.998752 0.999999 0.999999 0.998752 0.998782
          0.999999 0.999999 0.998782 0.998872 0.999999 0.999205 0.998872 0.999184 0.781733 0.885423 0.762894 0.90711
          0.885423 0.950025 0.90711 0.96697 0.950025 0.985955 0.96697 0.992648 0.985955 0.998619 0.992648 0.999653
          0.998619 0.999995 0.999653 1 0.999995 1 1 1 1 1 1 1
          1 1 1 1 1 1 1 1 1 1 1 1
          1 1 1 1 1 1 1 1 1 1 1 1
          1 1 1 1 1 1 1 1 1 1 1 1
          1 1 1 1 1 1 1 1 1 1 1 1
          1 1 1 1 1 1 1 1 1 1 1 1
          1 1 1 1 1 1 1 1 1 1 1 1
          1 1 1 1 1 1 1 1 1 1 1 1
          1 1 1 1 1 0.994663 1 0.999935 0.994663 0.948569 0.999935 0.994577
          0.948569 0.823414 0.994577 0.95885 0.823414 0.700967 0.95885 0.937486 0.700967 0.60023 0.937486 0.922896
          0.60023 0.521223 0.922896 0.911694 0.521223 0.463938 0.911694 0.902055 0.463938 0.424414 0.902055 0.893341
          0.424414 0.397411 0.893341 0.885616 0.397411 0.379054 0.885616 0.880246 0.379054 0.367147 0.880246 0.88232
          0.367147 0.360864 0.88232 0.896178 0.360864 0.360101 0.896178 0.920534 0.360101 0.365131 0.920534 0.951785
          0.365131 0.377459 0.951785 0.981934 0.377459 0.382113 0.981934 0.99757 0.382113 0.402554 0.99757 0.999979
          0.402554 0.470239 0.999979 1 0.470239 0.762894 1 1 0.762894 0.90711 1 1
          0.90711 0.96697 1 1 0.96697 0.992648 1 1 0.992648 0.999653 1 1
          0.999653 1 1 1 1 1 1 1 1 1 1 1
          1 1 1 1 1 1 1 1 1 1 1 1
          1 1 1 1 1 1 1 1 1 1 1 1
          1 1 1 1 1 1 1 1 1 1 1 1
          1 1 1 1 1 1 1 1 1 1 1 1
          1 1 1 1 1 1 1 1 1 1 1 1
          1 1 1 1 1 1 1 1 1 1 1 1
          1 1 1 1 1 1 1 1 1 1 1 1
          1 1 1 1 1 0.999935 1 0.999903 0.999935 0.994577 0.999903 0.994322
          0.994577 0.95885 0.994322 0.959707 0.95885 0.937486 0.959707 0.941439 0.937486 0.922896 0.941439 0.931934
          0.922896 0.911694 0.931934 0.927181 0.911694 0.902055 0.927181 0.924909 0.902055 0.893341 0.924909 0.923839
          0.893341 0.885616 0.923839 0.923398 0.885616 0.880246 0.923398 0.924109 0.880246 0.88232 0.924109 0.930283
          0.88232 0.896178 0.930283 0.944243 0.896178 0.920534 0.944243 0.962361 0.920534 0.951785 0.962361 0.981455
          0.951785 0.981934 0.981455 0.995546 0.981934 0.99757 0.995546 0.999861 0.99757 0.999979 0.999861 1
          0.999979 1 1 1 1 1 1 1 1 1 1 1
          1 1 1 1 1 1 1 1 1 1 1 1
          1 1 1 1 1 1 1 1 1 1 1 1
          1 1 1 1 1 1 1 1 1 1 1 1
          1 1 1 1 1 1 1 1 1 1 1 1
          1 1 1 1 1 1 1 1 1 1 1 1
          1 1 1 1 1 1 1 1 1 1 1 1
          1 1 1 1 1 1 1 1 1 1 1 1
          1 1 1 1 1 1 1 1 1 1 1 1
          1 1 1 1 1 1 1 1 1 1 1 1
          1 1 1 1 1 0.999903 1 0.999804 0.999903 0.994322 0.999804 0.993688
          0.994322 0.959707 0.993688 0.957798 0.959707 0.941439 0.957798 0.939269 0.941439 0.931934 0.939269 0.93062
          0.931934 0.927181 0.93062 0.926793 0.927181 0.924909 0.926793 0.925224 0.924909 0.923839 0.925224 0.924631
          0.923839 0.923398 0.924631 0.924502 0.923398 0.924109 0.924502 0.925458 0.924109 0.930283 0.925458 0.932832
          0.930283 0.944243 0.932832 0.948642 0.944243 0.962361 0.948642 0.967201 0.962361 0.981455 0.967201 0.984822
          0.981455 0.995546 0.984822 0.996607 0.995546 0.999861 0.996607 0.999925 0.999861 1 0.999925 1
          1 1 1 1 1 1 1 1 1 1 1 1
          1 1 1 1 1 1 1 1 1 1 1 1
          1 1 1 1 1 1 1 1 1 1 1 1
          1 1 1 1 1 1 1 1 1 1 1 1
          1 1 1 1 1 1 1 1 1 1 1 1
          1 1 1 1 1 1 1 1 1 1 1 1
          1 1 1 1 1 1 1 1 1 1 1 1
          1 1 1 1 1 1 1 1 1 1 1 1
          1 1 1 1 1 1 1 1 1 1 1 1
          1 1 1 1 1 1 1 1 1 1 1 1
          1 1 1 1 1 0.999804 1 0.999641 0.999804 0.993688 0.999641 0.993061
          0.993688 0.957798 0.993061 0.955791 0.957798 0.939269 0.955791 0.936818 0.939269 0.93062 0.936818 0.929041
          0.93062 0.926793 0.929041 0.925997 0.926793 0.925224 0.925997 0.924893 0.925224 0.924631 0.924893 0.924524
          0.924631 0.924502 0.924524 0.924479 0.924502 0.925458 0.924479 0.925486 0.925458 0.932832 0.925486 0.934275
          0.932832 0.948642 0.934275 0.952418 0.948642 0.967201 0.952418 0.971524 0.967201 0.984822 0.971524 0.987673
          0.984822 0.996607 0.987673 0.997545 0.996607 0.999925 0.997545 0.999964 0.999925 1 0.999964 1
          1 1 1 1 1 1 1 1 1 1 1 1
          1 1 1 1 1 1 1 1 1 1 1 1
          1 1 1 1 1 1 1 1 1 1 1 1
          1 1 1 1 1 1 1 1 1 1 1 1
          1 1 1 1 1 1 1 1 1 1 1 1
          1 1 1 1 1 1 1 1 1 1 1 1
          1 1 1 1 1 1 1 1 1 1 1 1
          1 1 1 1 1 1 1 1 1 1 1 1
          1 1 1 1 1 1 1 1 1 1 1 1
          1 1 1 1 1 1 1 1 1 1 1 1
          1 1 1 1 1 0.999641 1 0.999429 0.999641 0.993061 0.999429 0.992581
          0.993061 0.955791 0.992581 0.953766 0.955791 0.936818 0.953766 0.934278 0.936818 0.929041 0.934278 0.927585
          0.929041 0.925997 0.927585 0.925343 0.925997 0.924893 0.925343 0.92464 0.924893 0.924524 0.92464 0.924434
          0.924524 0.924479 0.924434 0.924434 0.924479 0.925486 0.924434 0.925427 0.925486 0.934275 0.925427 0.935966
          0.934275 0.952418 0.935966 0.956919 0.952418 0.971524 0.956919 0.976248 0.971524 0.987673 0.976248 0.990483
          0.987673 0.997545 0.990483 0.998434 0.997545 0.999964 0.998434 0.999987 0.999964 1 0.999987 1
          1 1 1 1 1 1 1 1 1 1 1 1
          1 1 1 1 1 1 1 1 1 1 1 1
          1 1 1 1 1 1 1 1 1 1 1 1
          1 1 1 1 1 1 1 1 1 1 1 1
          1 1 1 1 1 1 1 1 1 1 1 1
          1 1 1 1 1 1 1 1 1 1 1 1
          1 1 1 1 1 1 1 1 1 1 1 1
          1 1 1 1 1 1 1 1 1 1 1 1
          1 1 1 1 1 1 1 1 1 1 1 1
          1 1 1 1 1 1 1 1 1 1 1 1
          1 1 1 1 1 0.999429 1 0.999225 0.999429 0.992581 0.999225 0.99233
          0.992581 0.953766 0.99233 0.951732 0.953766 0.934278 0.951732 0.931645 0.934278 0.927585 0.931645 0.926309
          0.927585 0.925343 0.926309 0.924857 0.925343 0.92464 0.924857 0.924477 0.92464 0.924434 0.924477 0.924382
          0.924434 0.924434 0.924382 0.9244 0.924434 0.925427 0.9244 0.925294 0.925427 0.935966 0.925294 0.938036
          0.935966 0.956919 0.938036 0.96251 0.956919 0.976248 0.96251 0.981459 0.976248 0.990483 0.981459 0.993194
          0.990483 0.998434 0.993194 0.999207 0.998434 0.999987 0.999207 0.999997 0.999987 1 0.999997 1
          1 1 1 1 1 1 1 1 1 1 1 1
          1 1 1 1 1 1 1 1 1 1 1 1
          1 1 1 1 1 1 1 1 1 1 1 1
          1 1 1 1 1 1 1 1 1 1 1 1
          1 1 1 1 1 1 1 1 1 1 1 1
          1 1 1 1 1 1 1 1 1 1 1 1
          1 1 1 1 1 1 1 1 1 1 1 1
          1 1 1 1 1 1 1 1 1 1 1 1
          1 1 1 1 1 1 1 1 1 1 1 1
          1 1 1 1 1 1 1 1 1 1 1 1
          1 1 1 1 1 0.999225 1 0.999148 0.999225 0.99233 0.999148 0.992397
          0.99233 0.951732 0.992397 0.949667 0.951732 0.931645 0.949667 0.928895 0.931645 0.926309 0.928895 0.925268
          0.926309 0.924857 0.925268 0.924539 0.924857 0.924477 0.924539 0.924389 0.924477 0.924382 0.924389 0.924358
          0.924382 0.9244 0.924358 0.924374 0.9244 0.925294 0.924374 0.925052 0.925294 0.938036 0.925052 0.940604
          0.938036 0.96251 0.940604 0.969907 0.96251 0.981459 0.969907 0.98725 0.981459 0.993194 0.98725 0.995918
          0.993194 0.999207 0.995918 0.999763 0.999207 0.999997 0.999763 1 0.999997 1 1 1
          1 1 1 1 1 1 1 1 1 1 1 1
          1 1 1 1 1 1 1 1 1 1 1 1
          1 1 1 1 1 1 1 1 1 1 1 1
          1 1 1 1 1 1 1 1 1 1 1 1
          1 1 1 1 1 1 1 1 1 1 1 1
          1 1 1 1 1 1 1 1 1 1 1 1
          1 1 1 1 1 1 1 1 1 1 1 1
          1 1 1 1 1 1 1 1 1 1 1 1
          1 1 1 1 1 1 1 1 1 1 1 1
          1 1 1 1 1 1 1 1 1 1 1 1
          1 1 1 1 1 0.999148 1 0.999451 0.999148 0.992397 0.999451 0.99395
          0.992397 0.949667 0.99395 0.947358 0.949667 0.928895 0.947358 0.925994 0.928895 0.925268 0.925994 0.924538
          0.925268 0.924539 0.924538 0.924375 0.924539 0.924389 0.924375 0.924352 0.924389 0.924358 0.924352 0.924349
          0.924358 0.924374 0.924349 0.924356 0.924374 0.925052 0.924356 0.924645 0.925052 0.940604 0.924645 0.943791
          0.940604 0.969907 0.943791 0.981577 0.969907 0.98725 0.981577 0.994335 0.98725 0.995918 0.994335 0.998976
          0.995918 0.999763 0.998976 0.99999 0.999763 1 0.99999 1 1 1 1 1
          1 1 1 1 1 1 1 1 1 1 1 1
          1 1 1 1 1 1 1 1 1 1 1 1
          1 1 1 1 1 1 1 1 1 1 1 1
          1 1 1 1 1 1 1 1 1 1 1 1
          1 1 1 1 1 1 1 1 1 1 1 1
          1 1 1 1 1 1 1 1 1 1 1 1
        </DataArray>
        <DataArray type="Float32" Name="p_aq" NumberOfComponents="1" format="ascii">
          153955 152691 152269 151339 152691 151816 151339 150521 151816 151096 150521 149823
          151096 150473 149823 149213 150473 149922 149213 148669 149922 149425 148669 148177
          149425 148972 148177 147728 148972 148555 147728 147314 148555 148168 147314 146930
          148168 147807 146930 146570 147807 147466 146570 146231 147466 147144 146231 145910
          147144 146837 145910 145604 146837 146542 145604 145310 146542 146259 145310 145028
          146259 145985 145028 144754 145985 145719 144754 144489 145719 145459 144489 144230
          145459 145206 144230 143977 145206 144957 143977 143729 144957 144713 143729 143485
          144713 144473 143485 143245 144473 144237 143245 143009 144237 144004 143009 142776
          144004 143773 142776 142546 143773 143546 142546 142318 143546 143322 142318 142094
          143322 143100 142094 141872 143100 142881 141872 141653 142881 142665 141653 141438
          142665 142452 141438 141224 142452 142242 141224 141014 142242 142035 141014 140807
          142035 141831 140807 140603 141831 141630 140603 140403 141630 141432 140403 140205
          141432 141238 140205 140010 141238 141046 140010 139818 141046 140857 139818 139629
          140857 140670 139629 139443 140670 140486 139443 139258 140486 140304 139258 139077
          140304 140124 139077 138896 140124 139945 138896 138718 139945 139768 138718 138541
          139768 139591 138541 138365 139591 139415 138365 138189 139415 139240 138189 138014
          152269 151339 150583 149823 151339 150521 149823 149111 150521 149823 149111 148466
          149823 149213 148466 147887 149213 148669 147887 147364 148669 148177 147364 146887
          148177 147728 146887 146449 147728 147314 146449 146044 147314 146930 146044 145666
          146930 146570 145666 145312 146570 146231 145312 144978 146231 145910 144978 144661
          145910 145604 144661 144359 145604 145310 144359 144068 145310 145028 144068 143788
          145028 144754 143788 143517 144754 144489 143517 143253 144489 144230 143253 142995
          144230 143977 142995 142743 143977 143729 142743 142496 143729 143485 142496 142253
          143485 143245 142253 142014 143245 143009 142014 141778 143009 142776 141778 141545
          142776 142546 141545 141315 142546 142318 141315 141088 142318 142094 141088 140864
          142094 141872 140864 140642 141872 141653 140642 140423 141653 141438 140423 140207
          141438 141224 140207 139994 141224 141014 139994 139784 141014 140807 139784 139576
          140807 140603 139576 139372 140603 140403 139372 139172 140403 140205 139172 138974
          140205 140010 138974 138779 140010 139818 138779 138588 139818 139629 138588 138399
          139629 139443 138399 138213 139443 139258 138213 138029 139258 139077 138029 137847
          139077 138896 137847 137668 138896 138718 137668 137490 138718 138541 137490 137313
          138541 138365 137313 137137 138365 138189 137137 136962 138189 138014 136962 136788
          150583 149823 148897 148249 149823 149111 148249 147626 149111 148466 147626 147044
          148466 147887 147044 146507 147887 147364 146507 146013 147364 146887 146013 145558
          146887 146449 145558 145138 146449 146044 145138 144746 146044 145666 144746 144380
          145666 145312 144380 144035 145312 144978 144035 143709 144978 144661 143709 143398
          144661 144359 143398 143101 144359 144068 143101 142815 144068 143788 142815 142539
          143788 143517 142539 142271 143517 143253 142271 142010 143253 142995 142010 141755
          142995 142743 141755 141505 142743 142496 141505 141259 142496 142253 141259 141017
          142253 142014 141017 140779 142014 141778 140779 140544 141778 141545 140544 140311
          141545 141315 140311 140082 141315 141088 140082 139855 141088 140864 139855 139630
          140864 140642 139630 139409 140642 140423 139409 139190 140423 140207 139190 138973
          140207 139994 138973 138760 139994 139784 138760 138550 139784 139576 138550 138342
          139576 139372 138342 138138 139372 139172 138138 137938 139172 138974 137938 137740
          138974 138779 137740 137546 138779 138588 137546 137354 138588 138399 137354 137166
          138399 138213 137166 136980 138213 138029 136980 136797 138029 137847 136797 136616
          137847 137668 136616 136438 137668 137490 136438 136260 137490 137313 136260 136084
          137313 137137 136084 135909 137137 136962 135909 135735 136962 136788 135735 135561
          148897 148249 147211 146646 148249 147626 146646 146097 147626 147044 146097 145574
          147044 146507 145574 145082 146507 146013 145082 144624 146013 145558 144624 144196
          145558 145138 144196 143797 145138 144746 143797 143423 144746 144380 143423 143072
          144380 144035 143072 142740 144035 143709 142740 142424 143709 143398 142424 142122
          143398 143101 142122 141832 143101 142815 141832 141553 142815 142539 141553 141282
          142539 142271 141282 141019 142271 142010 141019 140761 142010 141755 140761 140509
          141755 141505 140509 140262 141505 141259 140262 140018 141259 141017 140018 139778
          141017 140779 139778 139541 140779 140544 139541 139307 140544 140311 139307 139075
          140311 140082 139075 138846 140082 139855 138846 138619 139855 139630 138619 138395
          139630 139409 138395 138173 139409 139190 138173 137953 139190 138973 137953 137737
          138973 138760 137737 137523 138760 138550 137523 137313 138550 138342 137313 137105
          138342 138138 137105 136901 138138 137938 136901 136700 137938 137740 136700 136503