<?xml version="1.0"?>
<VTKFile type="UnstructuredGrid" version="0.1" byte_order="LittleEndian">
  <UnstructuredGrid>
    <Piece NumberOfCells="2500" NumberOfPoints="2601">
      <CellData Scalars="p">
        <DataArray type="Float32" Name="p" NumberOfComponents="1" format="ascii">
          109898 109901 109902 109901 109902 109901 109901 109900 109901 109902 109902 109901
          109901 109901 109901 109902 109902 109902 109902 109902 109901 109901 109901 109901
          109901 109901 109902 109902 109902 109902 109902 109902 109902 109902 109902 109902
          109901 109901 109901 109902 109902 109901 109901 109902 109902 109901 109901 109901
          109901 109900 109695 109698 109700 109703 109702 109702 109702 109701 109702 109705
          109705 109703 109703 109703 109704 109705 109705 109705 109705 109705 109704 109705
          109704 109704 109704 109704 109704 109705 109705 109705 109705 109705 109705 109705
          109705 109705 109704 109703 109703 109703 109704 109703 109702 109702 109702 109702
          109703 109704 109702 109700 109499 109498 109499 109502 109500 109502 109503 109504
          109504 109505 109506 109505 109506 109506 109506 109507 109507 109508 109508 109508
          109508 109507 109508 109508 109507 109506 109507 109507 109508 109509 109509 109509
          109509 109509 109508 109508 109508 109506 109506 109505 109505 109505 109504 109501
          109502 109501 109502 109504 109502 109502 109301 109302 109301 109302 109302 109304
          109306 109307 109307 109306 109307 109308 109309 109309 109309 109309 109309 109310
          109310 109310 109310 109307 109309 109310 109309 109309 109310 109310 109310 109312
          109312 109312 109312 109312 109312 109310 109309 109308 109308 109308 109308 109307
          109305 109302 109302 109301 109301 109303 109304 109304 109099 109101 109104 109104
          109104 109105 109107 109109 109109 109110 109110 109111 109112 109111 109111 109112
          109112 109112 109112 109112 109111 109110 109111 109112 109113 109113 109113 109113
          109113 109113 109114 109114 109113 109114 109114 109112 109111 109111 109111 109111
          109111 109110 109107 109105 109105 109105 109105 109105 109106 109107 108898 108899
          108904 108907 108906 108905 108907 108909 108910 108912 108914 108914 108915 108915
          108915 108915 108915 108916 108915 108914 108914 108914 108914 108915 108916 108916
          108915 108915 108915 108915 108916 108916 108917 108917 108916 108915 108915 108915
          108914 108913 108913 108913 108910 108908 108908 108908 108908 108908 108909 108910
          108702 108702 108704 108708 108708 108708 108709 108711 108711 108712 108715 108716
          108717 108717 108718 108718 108717 108718 108717 108717 108717 108717 108717 108718
          108718 108718 108718 108718 108718 108718 108719 108718 108719 108720 108719 108719
          108718 108717 108716 108716 108716 108716 108711 108711 108711 108708 108711 108711
          108711 108702 108503 108503 108502 108505 108508 108508 108509 108512 108514 108514
          108516 108517 108518 108520 108520 108520 108520 108521 108521 108520 108521 108521
          108520 108521 108521 108521 108521 108521 108521 108522 108521 108520 108520 108521
          108522 108522 108520 108519 108519 108519 108513 108510 108508 108511 108508 108496
          108498 108498 108493 108484 108304 108305 108305 108305 108308 108310 108311 108313
          108316 108316 108318 108320 108321 108321 108323 108323 108323 108323 108324 108324
          108324 108324 108323 108324 108324 108324 108324 108325 108325 108324 108323 108324
          108324 108324 108324 108324 108323 108323 108323 108315 108305 108304 108306 108310
          108297 108287 108286 108285 108279 108283 108107 108105 108104 108108 108113 108113
          108113 108114 108117 108119 108121 108124 108124 108124 108125 108126 108125 108125
          108127 108128 108127 108127 108127 108127 108127 108128 108128 108128 108128 108128
          108126 108126 108126 108127 108128 108127 108127 108127 108123 108115 108108 108106
          108106 108098 108086 108085 108084 108082 108078 108080 107905 107904 107904 107906
          107912 107913 107914 107915 107917 107921 107922 107926 107927 107928 107928 107929
          107928 107926 107928 107929 107929 107931 107931 107929 107927 107929 107932 107932
          107930 107930 107928 107928 107928 107929 107929 107929 107929 107927 107922 107910
          107908 107908 107903 107892 107887 107883 107883 107881 107880 107881 107705 107705
          107704 107704 107708 107711 107711 107716 107720 107721 107719 107723 107729 107731
          107732 107732 107730 107729 107729 107730 107731 107733 107733 107730 107728 107729
          107729 107730 107731 107731 107732 107732 107732 107731 107731 107731 107731 107731
          107713 107685 107689 107694 107693 107690 107687 107685 107683 107681 107682 107682
          107506 107505 107504 107503 107504 107507 107505 107511 107520 107515 107514 107513
          107524 107534 107534 107535 107532 107533 107531 107527 107531 107533 107535 107532
          107531 107528 107523 107525 107529 107531 107535 107535 107533 107529 107527 107524
          107523 107516 107495 107471 107471 107480 107492 107487 107487 107485 107485 107484
          107485 107482 107306 107306 107306 107305 107305 107306 107308 107308 107310 107306
          107307 107308 107314 107323 107331 107331 107331 107336 107326 107318 107324 107325
          107330 107333 107334 107327 107321 107325 107327 107330 107334 107333 107329 107327
          107322 107315 107314 107308 107286 107275 107274 107275 107280 107279 107281 107287
          107284 107282 107282 107281 107107 107106 107107 107107 107107 107107 107108 107108
          107108 107108 107108 107110 107112 107113 107121 107127 107127 107124 107120 107120
          107120 107119 107121 107128 107136 107125 107120 107122 107127 107132 107128 107124
          107123 107128 107108 107100 107095 107089 107072 107075 107078 107075 107072 107074
          107071 107078 107080 107080 107080 107081 106910 106910 106909 106910 106910 106910
          106908 106908 106910 106911 106911 106911 106911 106912 106915 106919 106919 106914
          106917 106921 106919 106920 106920 106921 106925 106921 106919 106920 106920 106922
          106916 106908 106901 106902 106879 106881 106878 106880 106876 106876 106876 106874
          106873 106873 106874 106874 106878 106881 106882 106881 106713 106712 106711 106712
          106712 106712 106710 106708 106710 106712 106712 106712 106708 106707 106713 106715
          106717 106716 106715 106718 106721 106721 106721 106721 106720 106720 106723 106718
          106719 106717 106714 106701 106690 106691 106683 106683 106682 106680 106679 106678
          106675 106675 106675 106676 106676 106677 106677 106680 106682 106681 106512 106513
          106512 106512 106513 106513 106512 106511 106509 106511 106511 106512 106511 106511
          106514 106516 106517 106516 106516 106517 106519 106521 106522 106521 106518 106517
          106517 106511 106516 106515 106511 106499 106494 106493 106490 106487 106484 106483
          106482 106479 106478 106478 106478 106478 106479 106480 106481 106481 106482 106485
          106310 106312 106312 106313 106314 106314 106314 106313 106310 106310 106313 106313
          106313 106314 106316 106317 106317 106318 106318 106318 106317 106320 106321 106319
          106318 106318 106317 106310 106310 106306 106306 106296 106294 106291 106287 106286
          106284 106286 106282 106280 106279 106279 106280 106281 106281 106277 106275 106275
          106275 106279 106112 106114 106115 106115 106115 106114 106114 106113 106112 106113
          106113 106114 106116 106116 106119 106120 106121 106121 106121 106121 106120 106120
          106119 106118 106119 106118 106111 106104 106102 106099 106099 106093 106093 106090
          106085 106085 106083 106082 106077 106077 106080 106080 106081 106082 106076 106069
          106068 106069 106071 106074 105914 105915 105916 105917 105915 105912 105913 105914
          105914 105915 105914 105914 105914 105914 105922 105922 105923 105920 105924 105924
          105924 105924 105918 105921 105917 105914 105906 105905 105902 105903 105897 105896
          105896 105895 105886 105887 105885 105880 105874 105873 105875 105875 105876 105874
          105871 105869 105871 105871 105869 105871 105717 105717 105718 105718 105716 105716
          105716 105717 105717 105713 105713 105713 105710 105709 105717 105722 105719 105714
          105718 105721 105727 105720 105709 105713 105715 105709 105704 105699 105698 105696
          105693 105694 105697 105687 105678 105682 105683 105679 105675 105671 105670 105669
          105668 105666 105668 105667 105668 105667 105665 105666 105520 105519 105518 105520
          105519 105519 105518 105517 105513 105507 105509 105510 105511 105512 105514 105523
          105517 105514 105515 105515 105521 105514 105509 105506 105509 105499 105498 105495
          105494 105492 105490 105489 105488 105481 105481 105481 105481 105481 105475 105472
          105471 105471 105471 105469 105467 105467 105465 105465 105465 105465 105319 105321
          105316 105318 105320 105322 105321 105319 105314 105311 105310 105311 105312 105311
          105309 105315 105314 105312 105315 105316 105314 105309 105305 105310 105302 105292
          105294 105297 105296 105294 105291 105289 105287 105285 105284 105284 105284 105281
          105274 105274 105274 105274 105272 105270 105269 105268 105267 105267 105268 105268
          105116 105117 105113 105115 105117 105122 105120 105118 105114 105112 105111 105112
          105112 105110 105112 105113 105116 105116 105116 105116 105113 105104 105093 105099
          105094 105094 105094 105097 105097 105094 105092 105091 105090 105088 105087 105087
          105086 105084 105077 105075 105077 105075 105072 105072 105070 105067 105069 105069
          105070 105068 104917 104917 104916 104916 104915 104918 104918 104915 104915 104913
          104913 104913 104911 104912 104912 104913 104912 104920 104920 104918 104907 104897
          104895 104895 104896 104896 104896 104897 104896 104894 104893 104894 104890 104890
          104888 104890 104890 104880 104872 104871 104874 104874 104873 104873 104870 104867
          104868 104867 104868 104865 104720 104716 104716 104717 104719 104719 104714 104712
          104714 104714 104715 104713 104712 104711 104709 104707 104701 104708 104711 104708
          104697 104697 104698 104698 104699 104699 104697 104697 104694 104694 104694 104693
          104687 104688 104685 104688 104683 104674 104673 104672 104672 104672 104672 104673
          104671 104669 104669 104669 104669 104668 104513 104511 104516 104516 104515 104512
          104508 104511 104514 104514 104515 104515 104511 104510 104508 104505 104502 104503
          104503 104500 104499 104499 104500 104501 104501 104500 104497 104497 104496 104496
          104496 104493 104490 104489 104489 104487 104480 104477 104475 104475 104475 104475
          104476 104474 104473 104473 104473 104473 104472 104472 104306 104307 104311 104312
          104308 104307 104309 104308 104309 104311 104315 104308 104311 104303 104297 104295
          104294 104294 104295 104293 104299 104300 104301 104302 104303 104301 104298 104297
          104297 104297 104295 104293 104292 104292 104293 104292 104284 104278 104277 104278
          104278 104277 104278 104276 104276 104276 104276 104275 104274 104274 104108 104108
          104109 104109 104109 104109 104104 104105 104104 104106 104102 104092 104099 104091
          104085 104085 104085 104086 104089 104089 104094 104097 104098 104101 104104 104101
          104100 104098 104098 104098 104097 104096 104094 104091 104092 104090 104084 104080
          104079 104079 104079 104080 104079 104079 104079 104080 104079 104078 104076 104076
          103905 103911 103911 103902 103901 103899 103894 103899 103902 103899 103894 103894
          103893 103888 103887 103887 103885 103885 103889 103893 103894 103895 103895 103896
          103898 103901 103900 103900 103900 103900 103899 103895 103890 103887 103888 103889
          103882 103878 103875 103878 103878 103878 103877 103879 103881 103882 103882 103878
          103876 103876 103694 103704 103696 103687 103693 103695 103697 103697 103697 103693
          103695 103696 103693 103690 103690 103689 103688 103688 103687 103692 103697 103698
          103695 103693 103693 103698 103700 103702 103702 103702 103701 103693 103688 103687
          103684 103682 103673 103673 103668 103673 103676 103676 103677 103678 103683 103683
          103679 103676 103678 103675 103489 103490 103483 103483 103490 103498 103498 103498
          103497 103497 103496 103496 103494 103493 103493 103492 103492 103490 103490 103490
          103490 103496 103493 103495 103497 103500 103502 103503 103500 103501 103499 103491
          103490 103488 103486 103478 103472 103471 103471 103472 103474 103475 103477 103478
          103482 103482 103475 103476 103476 103473 103287 103287 103287 103286 103284 103292
          103297 103299 103299 103300 103298 103297 103297 103296 103295 103294 103295 103287
          103284 103283 103279 103287 103295 103296 103297 103304 103306 103301 103296 103298
          103289 103292 103292 103290 103285 103278 103275 103275 103275 103275 103275 103275
          103276 103280 103281 103278 103273 103275 103275 103275 103088 103089 103088 103086
          103084 103091 103096 103098 103101 103101 103100 103100 103100 103099 103098 103097
          103087 103080 103080 103079 103080 103078 103084 103083 103088 103089 103088 103083
          103083 103080 103067 103082 103096 103095 103082 103077 103077 103078 103078 103077
          103077 103077 103077 103079 103079 103077 103077 103076 103077 103077 102887 102889
          102888 102886 102887 102889 102894 102898 102899 102903 102902 102895 102897 102901
          102898 102889 102874 102875 102880 102882 102875 102871 102870 102865 102873 102873
          102871 102867 102866 102869 102871 102871 102883 102880 102871 102874 102878 102879
          102879 102879 102879 102879 102879 102879 102878 102880 102880 102880 102880 102880
          102690 102689 102689 102689 102689 102689 102689 102692 102691 102694 102691 102683
          102692 102704 102704 102682 102669 102668 102675 102672 102665 102666 102668 102667
          102667 102670 102668 102665 102665 102667 102670 102674 102674 102672 102672 102673
          102678 102680 102681 102681 102681 102681 102681 102680 102679 102681 102683 102683
          102682 102682 102491 102491 102492 102492 102492 102492 102492 102489 102489 102488
          102487 102486 102489 102504 102487 102468 102468 102469 102470 102467 102468 102469
          102469 102470 102470 102469 102467 102466 102466 102466 102465 102470 102472 102473
          102475 102476 102480 102483 102482 102484 102484 102484 102484 102482 102482 102482
          102483 102483 102482 102484 102291 102291 102289 102288 102289 102291 102290 102289
          102289 102289 102287 102285 102278 102281 102270 102270 102271 102271 102267 102268
          102271 102269 102271 102269 102271 102268 102267 102267 102269 102266 102267 102269
          102274 102276 102275 102277 102284 102285 102281 102284 102286 102286 102286 102285
          102285 102284 102284 102284 102285 102286 102088 102087 102084 102084 102084 102086
          102087 102091 102089 102090 102082 102078 102073 102073 102073 102072 102073 102071
          102069 102068 102069 102066 102068 102066 102068 102065 102066 102066 102067 102065
          102067 102069 102070 102073 102075 102075 102079 102081 102079 102083 102088 102088
          102087 102086 102087 102087 102087 102087 102088 102088 101887 101887 101887 101887
          101886 101886 101887 101890 101889 101885 101877 101877 101877 101876 101875 101875
          101875 101874 101872 101870 101870 101869 101869 101869 101869 101869 101869 101869
          101869 101869 101869 101869 101870 101871 101875 101877 101878 101880 101882 101884
          101888 101888 101887 101887 101888 101890 101891 101891 101891 101891 101690 101690
          101690 101690 101690 101690 101690 101689 101690 101685 101681 101680 101680 101679
          101678 101678 101678 101677 101674 101673 101673 101673 101673 101673 101673 101672
          101672 101672 101672 101672 101672 101672 101673 101674 101675 101679 101682 101684
          101685 101686 101688 101688 101689 101689 101690 101692 101693 101692 101695 101695
          101493 101493 101492 101492 101492 101492 101492 101491 101489 101486 101486 101483
          101482 101480 101480 101480 101481 101478 101476 101476 101476 101476 101476 101476
          101476 101476 101476 101476 101476 101476 101476 101476 101476 101477 101478 101481
          101485 101487 101488 101488 101488 101490 101491 101491 101491 101491 101490 101488
          101491 101494 101296 101295 101294 101295 101294 101294 101294 101293 101293 101288
          101287 101284 101284 101283 101283 101283 101282 101279 101279 101280 101280 101279
          101279 101279 101279 101279 101279 101279 101279 101279 101279 101280 101280 101281
          101281 101282 101285 101289 101288 101288 101285 101287 101289 101289 101289 101289
          101289 101289 101289 101290 101096 101094 101095 101095 101095 101096 101095 101095
          101091 101087 101088 101088 101087 101086 101086 101085 101084 101082 101082 101083
          101083 101083 101083 101083 101083 101083 101083 101083 101082 101082 101083 101083
          101083 101084 101085 101085 101085 101087 101089 101088 101088 101087 101087 101088
          101088 101091 101092 101092 101091 101091 100895 100896 100897 100896 100897 100897
          100895 100894 100891 100889 100889 100891 100888 100887 100887 100886 100886 100886
          100886 100886 100886 100886 100886 100886 100886 100886 100886 100886 100886 100886
          100886 100887 100887 100887 100888 100888 100888 100888 100888 100888 100889 100890
          100889 100890 100890 100891 100893 100894 100894 100895 100696 100697 100696 100695
          100696 100695 100695 100694 100692 100690 100690 100691 100689 100689 100689 100689
          100689 100689 100689 100689 100689 100689 100689 100690 100689 100689 100689 100688
          100689 100689 100689 100690 100690 100691 100691 100691 100691 100690 100689 100689
          100690 100691 100689 100691 100693 100692 100693 100695 100696 100694 100498 100497
          100495 100495 100495 100495 100494 100494 100494 100493 100493 100493 100492 100493
          100492 100492 100492 100492 100492 100491 100491 100491 100491 100491 100491 100491
          100492 100492 100492 100492 100491 100493 100493 100493 100493 100493 100493 100493
          100492 100492 100492 100492 100492 100492 100494 100494 100496 100496 100495 100492
          100298 100298 100297 100297 100297 100296 100296 100296 100296 100296 100296 100295
          100295 100296 100295 100295 100295 100295 100295 100295 100294 100294 100295 100295
          100294 100294 100295 100295 100295 100295 100295 100295 100295 100295 100295 100296
          100296 100295 100295 100295 100295 100295 100295 100295 100296 100297 100298 100300
          100298 100295 100099 100099 100098 100098 100098 100098 100099 100099 100099 100099
          100099 100098 100098 100098 100099 100098 100098 100098 100098 100098 100098 100098
          100098 100098 100098 100098 100098 100098 100098 100098 100098 100098 100098 100098
          100098 100098 100098 100098 100098 100098 100098 100099 100098 100098 100099 100099
          100098 100100 100099 100098
        </DataArray>
        <DataArray type="Float32" Name="permeability" NumberOfComponents="1" format="ascii">
          7.53711e-12 4.9796e-11 8.49456e-11 8.45198e-11 2.64439e-09 3.01947e-12 1.95611e-10 1.3586e-10 1.4896e-10 5.77633e-09 1.22369e-10 4.29656e-12
          7.49352e-12 2.28558e-10 6.01716e-12 2.18522e-09 3.72929e-11 1.32881e-10 3.85144e-12 1.33061e-10 9.81393e-13 5.88998e-11 2.48374e-11 2.35961e-12
          2.54355e-12 5.88255e-11 1.16121e-10 9.31066e-10 2.56305e-11 6.06423e-10 2.7812e-10 2.21404e-10 7.61729e-10 2.77111e-10 3.47469e-10 2.10488e-09
          1.29658e-10 1.23781e-11 1.53014e-11 5.90068e-11 1.06213e-09 3.33023e-11 5.09685e-12 5.38838e-10 4.0309e-09 1.02453e-11 7.74792e-11 2.40398e-10
          7.67434e-11 4.51531e-11 5.43199e-09 2.19608e-12 5.01451e-13 2.95893e-10 5.46115e-12 1.48086e-09 8.59431e-12 5.01115e-10 7.17664e-11 3.99446e-11
          9.40006e-11 8.79352e-12 1.18354e-10 4.63149e-10 1.10691e-10 2.30817e-10 1.02883e-10 9.07567e-11 1.09826e-12 1.57916e-10 4.6716e-11 2.7279e-09
          9.38581e-11 7.57522e-12 1.67509e-10 2.63138e-10 1.00039e-11 3.70652e-11 4.47623e-10 3.15312e-09 1.70073e-09 6.39724e-11 9.96282e-10 2.33151e-10
          1.83147e-12 2.5491e-11 3.48629e-10 5.24412e-09 3.79235e-10 3.74155e-12 5.28449e-11 1.62305e-11 4.7635e-11 1.99346e-11 4.08586e-11 1.09967e-10
          5.05959e-11 2.66244e-10 1.87224e-12 7.38504e-10 6.62182e-10 1.25818e-09 8.18974e-11 3.49714e-11 3.70652e-11 8.46109e-13 3.44973e-10 2.39018e-09
          3.10745e-10 4.70177e-13 1.5689e-12 1.77591e-10 6.62009e-10 3.11415e-09 2.99105e-11 4.51738e-11 1.88636e-11 1.09744e-08 1.20165e-09 4.93656e-10
          2.17794e-08 2.17639e-12 1.88518e-10 5.57918e-10 5.9552e-12 1.28953e-10 1.87711e-09 9.29424e-11 3.44859e-11 4.43049e-11 1.1534e-09 1.82539e-10
          1.48388e-09 7.19594e-09 1.39578e-10 3.04697e-10 6.02278e-10 6.11074e-12 1.3259e-08 1.3733e-10 2.6141e-10 2.54998e-10 8.69058e-12 1.26918e-10
          7.21412e-11 2.61927e-11 4.42038e-12 3.4548e-11 4.48451e-10 9.99912e-11 1.28898e-11 1.43312e-09 4.00666e-11 2.64943e-11 8.70963e-11 3.06342e-11
          4.54127e-10 4.7971e-10 4.41805e-11 2.7174e-09 3.37487e-11 1.11698e-10 3.80749e-10 5.58746e-11 1.04457e-10 4.9055e-10 1.58576e-11 6.10743e-13
          3.64023e-11 2.30007e-11 9.64181e-13 1.75248e-10 2.92526e-12 1.7189e-11 2.86206e-08 5.05415e-09 3.80055e-11 1.98678e-10 5.45002e-11 1.85667e-11
          5.91466e-11 1.06788e-08 1.08096e-11 1.53788e-10 2.96705e-10 1.15703e-12 3.33165e-12 1.21588e-10 3.73511e-11 2.01502e-10 6.24274e-11 1.21154e-10
          1.48275e-12 1.75461e-10 3.34764e-11 5.17865e-10 1.53793e-09 2.46099e-11 3.13168e-11 3.26585e-10 1.51888e-11 6.97268e-12 6.36339e-10 3.56092e-10
          2.14988e-10 1.43049e-12 2.64713e-10 3.25342e-11 2.3759e-10 5.91765e-11 1.97793e-11 6.27769e-10 4.74133e-10 8.36655e-10 2.80922e-10 6.57689e-11
          1.65991e-10 9.44156e-11 7.79641e-10 2.69103e-11 2.17156e-13 3.88786e-11 3.2685e-11 4.8806e-12 1.72048e-10 3.0212e-09 1.05071e-10 8.85542e-12
          1.31039e-10 1.4842e-12 1.03915e-10 1.34862e-12 2.40053e-10 3.72651e-11 4.34614e-11 3.40747e-11 3.29632e-09 7.81708e-09 6.09658e-10 4.0299e-09
          3.69964e-12 8.75367e-09 7.24514e-12 4.14158e-10 5.96429e-09 1.31282e-09 4.04005e-09 6.52644e-10 4.7722e-11 1.33024e-10 9.50339e-11 2.09549e-10
          2.02947e-11 2.25696e-10 1.54067e-11 1.38608e-09 1.93887e-10 4.83569e-12 2.06167e-11 2.98814e-11 6.21423e-10 1.72934e-10 2.69465e-11 3.24046e-09
          3.67328e-09 1.12521e-07 2.75636e-12 4.27571e-08 7.18344e-12 1.5419e-10 5.66525e-12 1.79425e-10 7.41611e-10 9.55754e-11 1.30129e-09 2.46694e-11
          3.4895e-11 1.33187e-11 4.50318e-11 2.85019e-10 6.33731e-11 4.06062e-11 1.50612e-07 9.04846e-10 1.07467e-10 9.2742e-12 1.64293e-09 2.08295e-10
          3.19795e-12 1.34974e-10 1.59549e-09 6.3159e-11 4.04421e-11 8.648e-10 9.53561e-09 3.58605e-11 1.56795e-10 1.59484e-10 6.03409e-11 1.07191e-09
          8.50637e-10 3.61881e-08 2.24132e-12 2.4449e-11 1.12705e-09 5.68783e-10 2.38129e-11 9.89219e-11 7.94129e-10 7.42606e-11 1.04787e-11 4.69489e-11
          3.25781e-11 7.16405e-11 1.2179e-10 1.94742e-11 1.1723e-11 1.33329e-11 5.14713e-10 2.29725e-10 1.28602e-08 1.24099e-09 6.24445e-12 7.74318e-11
          1.09396e-12 4.0309e-11 6.71629e-10 5.95794e-11 1.4224e-10 1.74072e-10 8.28737e-11 5.7787e-12 6.5497e-13 6.44816e-11 3.14896e-10 8.96371e-11
          3.56181e-12 3.7306e-11 1.48168e-10 2.26348e-08 2.93634e-10 1.34711e-10 1.25878e-11 3.27833e-10 3.01717e-11 7.22687e-12 2.78435e-09 1.04153e-09
          9.77842e-10 2.99123e-12 2.31076e-11 6.31512e-11 1.01792e-10 6.67591e-12 5.55061e-12 1.90953e-10 2.32765e-10 2.2196e-12 1.21789e-10 5.08912e-11
          3.25644e-12 4.34991e-10 1.95538e-11 1.20928e-10 4.86837e-10 2.57817e-09 2.3912e-11 4.91461e-11 2.14259e-10 3.05644e-10 1.14871e-10 3.62783e-09
          1.95616e-10 1.5701e-11 1.83727e-11 1.59456e-10 5.1257e-11 7.15843e-10 2.11901e-10 8.95884e-10 6.50185e-12 1.43606e-09 9.56533e-11 3.54797e-12
          2.22781e-11 2.20937e-10 5.11812e-12 6.34051e-10 2.44956e-09 5.52532e-11 7.45637e-12 1.64084e-13 1.23423e-10 1.06923e-10 9.32022e-12 9.44317e-12
          2.61096e-12 9.35059e-12 1.4643e-12 3.09747e-10 6.44866e-10 1.76298e-10 2.82978e-10 4.55106e-10 4.0524e-11 2.49151e-09 4.60368e-11 2.36224e-11
          2.83799e-11 2.03162e-10 8.44477e-11 1.89088e-10 7.25234e-11 1.12438e-10 1.81932e-11 2.10553e-10 3.97194e-13 1.53905e-13 2.40367e-11 2.13158e-08
          7.8885e-12 3.93389e-12 5.15531e-09 4.32235e-11 2.59559e-09 1.11349e-11 2.69905e-10 1.08662e-10 1.05149e-08 1.42725e-11 1.62809e-09 9.78411e-11
          1.37916e-11 1.43812e-10 4.20507e-10 5.04368e-11 4.60425e-11 6.49048e-09 5.4859e-10 3.22835e-12 1.78279e-10 3.29715e-09 5.62641e-11 2.40263e-11
          1.40841e-12 3.92149e-10 1.63391e-10 8.56472e-11 8.2581e-11 1.50892e-11 1.49598e-10 4.20973e-12 7.01964e-11 5.19987e-12 8.7108e-10 4.884e-09
          6.58311e-13 1.58349e-11 1.6977e-11 1.60475e-08 4.37044e-11 5.67719e-10 1.2853e-09 6.35234e-10 1.33618e-11 7.32729e-11 1.53197e-12 3.27819e-12
          3.48812e-11 3.02925e-09 2.62306e-10 7.98575e-10 2.95324e-09 4.66957e-12 1.86409e-11 5.33854e-08 2.22542e-09 1.28274e-10 2.04934e-09 1.87874e-10
          6.38946e-11 1.51448e-12 1.98619e-12 7.74682e-12 1.79156e-09 1.01676e-11 6.8215e-10 4.40051e-09 1.48132e-11 5.21809e-11 1.79295e-11 1.31061e-10
          2.78624e-09 1.12055e-12 5.48687e-09 7.77762e-12 5.41892e-12 4.95169e-12 2.31567e-10 6.21422e-12 1.96925e-11 1.21233e-10 1.54345e-09 1.3292e-11
          2.74544e-11 8.34239e-11 2.15929e-10 3.69239e-10 7.81204e-11 1.47555e-10 2.23046e-12 2.63225e-11 1.95715e-11 2.51903e-10 1.19649e-12 8.57911e-10
          7.2869e-12 4.35845e-11 5.69244e-12 4.5575e-12 1.83943e-12 6.31608e-11 4.13097e-10 2.29953e-13 2.11923e-11 2.72174e-12 1.5087e-09 7.67199e-09
          2.68072e-12 9.76637e-12 1.52399e-08 1.74772e-10 6.54567e-10 3.43728e-10 1.14929e-11 1.70073e-11 5.31033e-13 2.27234e-13 5.2626e-12 2.12885e-12
          1.54031e-09 1.37024e-09 3.27296e-11 2.59294e-11 1.04826e-11 1.00475e-09 1.12189e-08 5.52044e-12 7.17537e-10 8.63619e-11 1.24908e-10 9.24651e-11
          4.68072e-11 1.97369e-11 1.04635e-11 2.55526e-10 1.74961e-11 1.17704e-11 2.70017e-09 1.01998e-11 8.33287e-10 4.81231e-12 8.92144e-12 1.91139e-10
          4.52138e-11 2.46882e-10 4.44785e-13 1.16252e-10 8.23575e-10 5.07862e-11 1.39621e-11 6.2624e-11 1.62359e-10 2.50074e-11 6.2166e-11 1.96767e-11
          3.88776e-12 1.23444e-12 2.45621e-10 3.07699e-14 2.69891e-10 1.48503e-12 1.53823e-10 6.84356e-12 8.43812e-12 3.72917e-10 3.37433e-10 3.96309e-11
          2.11225e-13 2.63136e-12 4.52179e-12 1.39677e-12 3.03359e-11 8.26128e-10 8.58605e-11 5.12042e-11 8.96329e-12 3.92584e-10 1.97417e-10 6.71785e-12
          2.12675e-11 1.34878e-10 7.26657e-10 1.4357e-10 8.80552e-11 4.4514e-11 2.10194e-09 3.96224e-12 1.61917e-11 1.42606e-12 4.86268e-12 6.09579e-12
          1.06809e-12 1.7184e-11 6.25103e-12 3.00929e-11 5.67872e-12 5.01573e-10 1.52501e-12 1.24642e-12 1.42125e-11 1.05688e-13 4.13613e-11 4.37289e-11
          4.61576e-09 3.02289e-13 6.02562e-12 2.56014e-11 8.51174e-13 1.83503e-11 7.37817e-10 3.87567e-11 6.01467e-12 2.83107e-12 6.12308e-13 7.20932e-13
          1.00162e-12 2.64174e-14 3.32846e-14 1.25468e-10 1.65423e-09 3.31958e-12 3.24026e-10 1.01799e-12 1.33489e-10 1.56702e-10 1.74026e-10 3.6808e-10
          3.776e-09 4.71741e-12 1.20493e-11 6.79749e-12 1.69041e-10 1.754e-10 1.23924e-10 1.48652e-10 4.76666e-10 1.77737e-10 2.76969e-12 1.80819e-11
          3.07708e-11 1.14797e-10 1.05173e-12 4.35532e-13 6.41091e-12 5.5797e-13 9.17523e-12 8.24236e-11 3.8229e-13 1.5454e-11 2.55434e-12 6.66151e-14
          1.05215e-12 6.03872e-12 9.1629e-10 1.30569e-13 1.14707e-10 3.11891e-13 3.02465e-12 9.29832e-11 9.13396e-12 4.57572e-13 4.59959e-12 1.08082e-10
          1.88495e-12 2.77602e-10 5.16506e-11 4.45784e-12 1.60673e-14 5.65672e-11 6.01962e-10 4.38917e-10 5.19339e-12 2.09342e-11 4.23985e-12 8.42893e-10
          5.26905e-12 4.35752e-11 2.5371e-11 3.93297e-10 8.08998e-10 1.12544e-09 8.08101e-11 2.37285e-09 2.22065e-09 4.44044e-10 7.51481e-12 5.94552e-12
          1.3051e-10 2.00001e-10 2.68744e-10 1.03146e-11 1.27548e-11 8.46349e-11 1.74885e-12 2.32989e-11 2.42123e-11 8.57445e-14 2.72783e-12 5.72954e-10
          2.07091e-12 7.32635e-11 6.26878e-12 2.77717e-12 6.97942e-11 2.71728e-12 1.04617e-11 1.44266e-13 1.69923e-11 6.86547e-11 2.48919e-12 1.69122e-13
          2.01156e-12 7.65808e-12 7.43095e-14 1.07674e-13 2.49631e-13 1.61506e-12 8.76397e-11 1.35508e-12 2.30217e-09 5.92062e-12 2.55478e-11 2.54856e-12
          6.40651e-10 1.46904e-11 8.94285e-11 1.8254e-09 2.38278e-10 1.25913e-11 1.54477e-11 8.00668e-10 9.9228e-11 3.72541e-11 3.50519e-09 3.44824e-09
          2.19419e-11 1.14429e-11 4.71956e-11 2.31463e-11 3.53199e-10 2.05689e-11 4.93668e-13 1.41599e-12 1.30599e-11 1.7664e-14 5.13955e-12 2.44223e-11
          5.1134e-13 1.07315e-11 7.39611e-11 1.04203e-11 2.71149e-12 2.03975e-11 7.71083e-12 1.09613e-11 1.82573e-09 8.92175e-11 1.52099e-11 2.48283e-13