<?xml version="1.0"?>
<VTKFile type="UnstructuredGrid" version="0.1" byte_order="LittleEndian">
  <UnstructuredGrid>
    <Piece NumberOfCells="2500" NumberOfPoints="2601">
      <PointData Scalars="x^tracer_0" Vectors="velocity_Groundwater (m/s)">
        <DataArray type="Float32" Name="x^tracer_0" NumberOfComponents="1" format="ascii">
          1.06546e-11 1.12097e-11 1.26252e-11 1.3302e-11 1.28154e-11 1.52378e-11 1.53189e-11 1.82254e-11 1.85181e-11 2.20078e-11 2.21942e-11 2.63169e-11
          2.61328e-11 3.0898e-11 3.01378e-11 3.55242e-11 3.40391e-11 4.00045e-11 3.76962e-11 4.41856e-11 4.09981e-11 4.79502e-11 4.38616e-11 5.1213e-11
          4.62276e-11 5.39154e-11 4.80574e-11 5.60206e-11 4.93292e-11 5.75086e-11 5.00344e-11 5.83725e-11 5.01761e-11 5.8616e-11 4.97665e-11 5.82513e-11
          4.88266e-11 5.72983e-11 4.73856e-11 5.57843e-11 4.54808e-11 5.37445e-11 4.31588e-11 5.12233e-11 4.04762e-11 4.82754e-11 3.75013e-11 4.49693e-11
          3.43154e-11 4.13895e-11 3.10099e-11 3.76392e-11 2.76742e-11 3.38282e-11 2.43798e-11 3.0029e-11 2.11831e-11 2.63022e-11 1.81322e-11 2.27031e-11
          1.52689e-11 1.92833e-11 1.26288e-11 1.60898e-11 1.02409e-11 1.31634e-11 8.12586e-12 1.05372e-11 6.29543e-12 8.23436e-12 4.7511e-12 6.2661e-12
          3.48417e-12 4.63094e-12 2.47634e-12 3.31449e-12 1.70118e-12 2.29062e-12 1.1265e-12 1.52394e-12 7.17105e-13 9.7311e-13 4.37778e-13 5.94757e-13
          2.55868e-13 3.47224e-13 1.43219e-13 1.93596e-13 7.71976e-14 1.03589e-13 4.08266e-14 5.41531e-14 2.22039e-14 2.89917e-14 1.35156e-14 1.73682e-14
          9.94634e-15 1.26727e-14 8.73006e-15 1.11195e-14 8.46644e-15 1.07958e-14 1.88451e-11 1.9913e-11 2.28974e-11 2.74098e-11 3.30151e-11 3.92867e-11
          4.58406e-11 5.23543e-11 5.85727e-11 6.43053e-11 6.94183e-11 7.38236e-11 7.7468e-11 8.03239e-11 8.23811e-11 8.36411e-11 8.41133e-11 8.38126e-11
          8.27585e-11 8.09753e-11 7.84935e-11 7.53521e-11 7.16019e-11 6.73104e-11 6.25712e-11 5.75168e-11 5.23121e-11 4.70363e-11 4.17591e-11 3.65544e-11
          3.14992e-11 2.66713e-11 2.21456e-11 1.79907e-11 1.42642e-11 1.10078e-11 8.24383e-12 5.97257e-12 4.17209e-12 2.80036e-12 1.79988e-12 1.10415e-12
          6.44793e-13 3.58115e-13 1.89889e-13 9.77438e-14 5.12073e-14 3.00338e-14 2.17333e-14 1.91554e-14 1.86711e-14 3.0162e-11 3.19509e-11 3.68249e-11
          4.4028e-11 5.2782e-11 6.23673e-11 7.21733e-11 8.17208e-11 9.06614e-11 9.87619e-11 1.05881e-10 1.11945e-10 1.16927e-10 1.20827e-10 1.23663e-10
          1.25456e-10 1.2623e-10 1.26006e-10 1.24803e-10 1.22639e-10 1.1953e-10 1.15503e-10 1.10593e-10 1.04856e-10 9.83868e-11 9.13489e-11 8.39799e-11
          7.63737e-11 6.86149e-11 6.08055e-11 5.30614e-11 4.55094e-11 3.82812e-11 3.15065e-11 2.53049e-11 1.97761e-11 1.49914e-11 1.09857e-11 7.75404e-12
          5.25175e-12 3.4001e-12 2.09648e-12 1.22726e-12 6.81047e-13 3.59378e-13 1.8323e-13 9.47282e-14 5.50011e-14 3.99285e-14 3.56285e-14 3.49613e-14
          4.7747e-11 5.06405e-11 5.83254e-11 6.94064e-11 8.25412e-11 9.65599e-11 1.10534e-10 1.23796e-10 1.35914e-10 1.46647e-10 1.55893e-10 1.63642e-10
          1.69937e-10 1.74843e-10 1.78429e-10 1.80758e-10 1.81875e-10 1.81809e-10 1.80572e-10 1.7816e-10 1.74562e-10 1.69765e-10 1.63765e-10 1.56579e-10
          1.48272e-10 1.3901e-10 1.29089e-10 1.1862e-10 1.07709e-10 9.64946e-11 8.51455e-11 7.38557e-11 6.28381e-11 5.23144e-11 4.25008e-11 3.35928e-11
          2.57475e-11 1.90681e-11 1.35923e-11 9.2884e-12 6.05967e-12 3.75892e-12 2.20926e-12 1.22786e-12 6.47004e-13 3.28407e-13 1.68857e-13 9.81484e-14
          7.23222e-14 6.58075e-14 6.5156e-14 7.27662e-11 7.71456e-11 8.84748e-11 1.04362e-10 1.22641e-10 1.41539e-10 1.59767e-10 1.76499e-10 1.91295e-10
          2.04004e-10 2.14656e-10 2.23386e-10 2.30368e-10 2.35781e-10 2.39778e-10 2.42476e-10 2.4395e-10 2.44229e-10 2.43306e-10 2.41136e-10 2.3765e-10
          2.3276e-10 2.26381e-10 2.18443e-10 2.08927e-10 1.97939e-10 1.85763e-10 1.72518e-10 1.58331e-10 1.43379e-10 1.2789e-10 1.12145e-10 9.64613e-11
          8.11867e-11 6.66766e-11 5.32698e-11 4.12604e-11 3.08685e-11 2.22171e-11 1.53182e-11 1.00732e-11 6.29062e-12 3.71626e-12 2.07211e-12 1.09307e-12
          5.54512e-13 2.85407e-13 1.67766e-13 1.26832e-13 1.18407e-13 1.18493e-13 1.05986e-10 1.12128e-10 1.27574e-10 1.4854e-10 1.71786e-10 1.94863e-10
          2.16167e-10 2.34846e-10 2.50614e-10 2.63557e-10 2.73964e-10 2.82205e-10 2.88654e-10 2.93638e-10 2.97415e-10 3.00165e-10 3.01986e-10 3.029e-10
          3.02861e-10 3.01758e-10 2.99434e-10 2.95691e-10 2.90313e-10 2.83087e-10 2.73843e-10 2.62528e-10 2.49299e-10 2.3424e-10 2.17475e-10 1.99204e-10
          1.79711e-10 1.59365e-10 1.3861e-10 1.17948e-10 9.79216e-11 7.90674e-11 6.18794e-11 4.67601e-11 3.39778e-11 2.36374e-11 1.56712e-11 9.85677e-12
          5.85756e-12 3.28066e-12 1.73586e-12 8.82937e-13 4.57602e-13 2.74684e-13 2.15153e-13 2.07073e-13 2.09687e-13 1.47399e-10 1.55351e-10 1.74726e-10
          2.00008e-10 2.26752e-10 2.51892e-10 2.73707e-10 2.91556e-10 3.05528e-10 3.16115e-10 3.23983e-10 3.29806e-10 3.34184e-10 3.37602e-10 3.40414e-10
          3.42846e-10 3.45006e-10 3.46891e-10 3.48401e-10 3.49347e-10 3.49463e-10 3.48418e-10 3.45835e-10 3.4131e-10 3.34459e-10 3.24977e-10 3.12744e-10
          2.97734e-10 2.80007e-10 2.59738e-10 2.3723e-10 2.1292e-10 1.87376e-10 1.61278e-10 1.3539e-10 1.10505e-10 8.73879e-11 6.66991e-11 4.89295e-11
          3.43445e-11 2.29584e-11 1.45475e-11 8.70071e-12 4.89906e-12 2.60391e-12 1.33172e-12 6.98966e-13 4.32598e-13 3.54104e-13 3.52494e-13 3.61391e-13
          1.95965e-10 2.0544e-10 2.27687e-10 2.55312e-10 2.82746e-10 3.06573e-10 3.25291e-10 3.3878e-10 3.47723e-10 3.53158e-10 3.56178e-10 3.57761e-10
          3.58704e-10 3.59601e-10 3.60858e-10 3.6271e-10 3.65242e-10 3.68412e-10 3.72059e-10 3.75915e-10 3.79614e-10 3.82698e-10 3.84628e-10 3.84805e-10
          3.82597e-10 3.77382e-10 3.68648e-10 3.5615e-10 3.39787e-10 3.19619e-10 2.95891e-10 2.69053e-10 2.39761e-10 2.08866e-10 1.77373e-10 1.46378e-10
          1.16981e-10 9.01842e-11 6.67868e-11 4.72964e-11 3.18771e-11 2.03503e-11 1.22526e-11 6.93977e-12 3.70962e-12 1.91255e-12 1.02251e-12 6.58773e-13
          5.67532e-13 5.85285e-13 6.07529e-13 2.49558e-10 2.59891e-10 2.83066e-10 3.09986e-10 3.34327e-10 3.52787e-10 3.64508e-10 3.70188e-10 3.71261e-10
          3.6934e-10 3.65898e-10 3.62129e-10 3.58924e-10 3.56895e-10 3.5642e-10 3.57684e-10 3.60718e-10 3.65419e-10 3.71572e-10 3.78848e-10 3.86814e-10
          3.94922e-10 4.02515e-10 4.08832e-10 4.13018e-10 4.14135e-10 4.11235e-10 4.0375e-10 3.913e-10 3.73709e-10 3.51053e-10 3.23695e-10 2.92309e-10
          2.57871e-10 2.21614e-10 1.84957e-10 1.49388e-10 1.16321e-10 8.69501e-11 6.21134e-11 4.22018e-11 2.71409e-11 1.64511e-11 9.37597e-12 5.04532e-12
          2.62895e-12 1.44061e-12 9.75304e-13 8.88902e-13 9.49741e-13 9.97631e-13 3.05135e-10 3.15331e-10 3.36816e-10 3.59357e-10 3.7652e-10 3.85714e-10
          3.87139e-10 3.82502e-10 3.74009e-10 3.63745e-10 3.5341e-10 3.4425e-10 3.37101e-10 3.32472e-10 3.30623e-10 3.31627e-10 3.35424e-10 3.41844e-10
          3.50623e-10 3.61402e-10 3.73723e-10 3.87011e-10 4.00562e-10 4.13525e-10 4.249e-10 4.33505e-10 4.3801e-10 4.3746e-10 4.31095e-10 4.18382e-10
          3.99097e-10 3.73396e-10 3.41861e-10 3.05505e-10 2.65746e-10 2.24308e-10 1.83086e-10 1.43961e-10 1.08592e-10 7.82273e-11 5.35631e-11 3.46938e-11
          2.11681e-11 1.21416e-11 6.58279e-12 3.47621e-12 1.96578e-12 1.41112e-12 1.36468e-12 1.50855e-12 1.6022e-12 3.59107e-10 3.67971e-10 3.84868e-10
          3.99358e-10 4.05739e-10 4.02727e-10 3.91868e-10 3.75913e-10 3.57686e-10 3.39531e-10 3.23145e-10 3.09628e-10 2.99607e-10 2.93372e-10 2.90987e-10
          2.92367e-10 2.97335e-10 3.05645e-10 3.16995e-10 3.31022e-10 3.47286e-10 3.65245e-10 3.84223e-10 4.03376e-10 4.21661e-10 4.37776e-10 4.50153e-10
          4.57454e-10 4.58482e-10 4.52263e-10 4.38163e-10 4.16004e-10 3.8615e-10 3.49547e-10 3.07706e-10 2.62608e-10 2.16543e-10 1.71874e-10 1.30771e-10
          9.49542e-11 6.54916e-11 4.2706e-11 2.62219e-11 1.51373e-11 8.276e-12 4.44308e-12 2.61264e-12 2.00486e-12 2.05857e-12 2.34843e-12 2.51909e-12
          4.07812e-10 4.14128e-10 4.23732e-10 4.27138e-10 4.20258e-10 4.03583e-10 3.80103e-10 3.53442e-10 3.26774e-10 3.02412e-10 2.81809e-10 2.65735e-10
          2.54487e-10 2.4806e-10 2.46277e-10 2.48872e-10 2.55537e-10 2.65945e-10 2.79763e-10 2.96635e-10 3.16167e-10 3.37892e-10 3.61222e-10 3.85404e-10
          4.09457e-10 4.32105e-10 4.51723e-10 4.66661e-10 4.75307e-10 4.76216e-10 4.6828e-10 4.50892e-10 4.24085e-10 3.88621e-10 3.46003e-10 2.98388e-10
          2.4841e-10 1.98897e-10 1.52543e-10 1.11573e-10 7.74692e-11 5.08296e-11 3.13956e-11 1.82407e-11 1.00666e-11 5.51521e-12 3.4009e-12 2.80857e-12
          3.05654e-12 3.58652e-12 3.88055e-12 4.4798e-10 4.50705e-10 4.50928e-10 4.41334e-10 4.20197e-10 3.90036e-10 3.5515e-10 3.19733e-10 2.86961e-10
          2.5883e-10 2.36347e-10 2.19834e-10 2.09193e-10 2.04103e-10 2.04141e-10 2.08857e-10 2.17815e-10 2.30605e-10 2.46855e-10 2.66214e-10 2.88336e-10
          3.12843e-10 3.39271e-10 3.67007e-10 3.95221e-10 4.22784e-10 4.48191e-10 4.69602e-10 4.85069e-10 4.92723e-10 4.90978e-10 4.78753e-10 4.55674e-10
          4.22224e-10 3.79795e-10 3.30629e-10 2.77628e-10 2.24037e-10 1.73049e-10 1.27392e-10 8.89779e-11 5.87043e-11 3.64585e-11 2.13184e-11 1.18912e-11
          6.67978e-12 4.35944e-12 3.89232e-12 4.47251e-12 5.37721e-12 5.86067e-12 4.77123e-10 4.75532e-10 4.65197e-10 4.42024e-10 4.07152e-10 3.6511e-10
          3.21202e-10 2.79796e-10 2.43742e-10 2.1449e-10 1.92482e-10 1.7755e-10 1.69211e-10 1.6685e-10 1.6983e-10 1.77536e-10 1.89407e-10 2.04945e-10
          2.23722e-10 2.45375e-10 2.69589e-10 2.9606e-10 3.24451e-10 3.54312e-10 3.85009e-10 4.15645e-10 4.44962e-10 4.71071e-10 4.91814e-10 5.04992e-10
          5.08603e-10 5.01108e-10 4.81704e-10 4.50534e-10 4.08802e-10 3.58746e-10 3.03453e-10 2.46513e-10 1.91562e-10 1.41795e-10 9.95375e-11 6.59858e-11
[...]
      <CellData Scalars="process rank">
        <DataArray type="Float32" Name="process rank" NumberOfComponents="1" format="ascii">
          0 0 0 0 0 0 0 0 0 0 0 0
          0 0 0 0 0 0 0 0 0 0 0 0
          0 0 0 0 0 0 0 0 0 0 0 0
          0 0 0 0 0 0 0 0 0 0 0 0
          0 0 0 0 0 0 0 0 0 0 0 0
          0 0 0 0 0 0 0 0 0 0 0 0
          0 0 0 0 0 0 0 0 0 0 0 0
          0 0 0 0 0 0 0 0 0 0 0 0
          0 0 0 0 0 0 0 0 0 0 0 0
          0 0 0 0 0 0 0 0 0 0 0 0
          0 0 0 0 0 0 0 0 0 0 0 0
          0 0 0 0 0 0 0 0 0 0 0 0
          0 0 0 0 0 0 0 0 0 0 0 0
          0 0 0 0 0 0 0 0 0 0 0 0
          0 0 0 0 0 0 0 0 0 0 0 0
          0 0 0 0 0 0 0 0 0 0 0 0
          0 0 0 0 0 0 0 0 0 0 0 0
          0 0 0 0 0 0 0 0 0 0 0 0
          0 0 0 0 0 0 0 0 0 0 0 0
          0 0 0 0 0 0 0 0 0 0 0 0
          0 0 0 0 0 0 0 0 0 0 0 0
          0 0 0 0 0 0 0 0 0 0 0 0
          0 0 0 0 0 0 0 0 0 0 0 0
          0 0 0 0 0 0 0 0 0 0 0 0
          0 0 0 0 0 0 0 0 0 0 0 0
          0 0 0 0 0 0 0 0 0 0 0 0
          0 0 0 0 0 0 0 0 0 0 0 0
          0 0 0 0 0 0 0 0 0 0 0 0
          0 0 0 0 0 0 0 0 0 0 0 0
          0 0 0 0 0 0 0 0 0 0 0 0
          0 0 0 0 0 0 0 0 0 0 0 0
          0 0 0 0 0 0 0 0 0 0 0 0
          0 0 0 0 0 0 0 0 0 0 0 0
          0 0 0 0 0 0 0 0 0 0 0 0
          0 0 0 0 0 0 0 0 0 0 0 0
          0 0 0 0 0 0 0 0 0 0 0 0
          0 0 0 0 0 0 0 0 0 0 0 0
          0 0 0 0 0 0 0 0 0 0 0 0
          0 0 0 0 0 0 0 0 0 0 0 0
          0 0 0 0 0 0 0 0 0 0 0 0
          0 0 0 0 0 0 0 0 0 0 0 0
          0 0 0 0 0 0 0 0 0 0 0 0
          0 0 0 0 0 0 0 0 0 0 0 0
          0 0 0 0 0 0 0 0 0 0 0 0
          0 0 0 0 0 0 0 0 0 0 0 0
          0 0 0 0 0 0 0 0 0 0 0 0
          0 0 0 0 0 0 0 0 0 0 0 0
          0 0 0 0 0 0 0 0 0 0 0 0
          0 0 0 0 0 0 0 0 0 0 0 0
          0 0 0 0 0 0 0 0 0 0 0 0
          0 0 0 0 0 0 0 0 0 0 0 0
          0 0 0 0 0 0 0 0 0 0 0 0
          0 0 0 0 0 0 0 0 0 0 0 0
          0 0 0 0 0 0 0 0 0 0 0 0
          0 0 0 0 0 0 0 0 0 0 0 0
          0 0 0 0 0 0 0 0 0 0 0 0
          0 0 0 0 0 0 0 0 0 0 0 0
          0 0 0 0 0 0 0 0 0 0 0 0
          0 0 0 0 0 0 0 0 0 0 0 0
          0 0 0 0 0 0 0 0 0 0 0 0
          0 0 0 0 0 0 0 0 0 0 0 0
          0 0 0 0 0 0 0 0 0 0 0 0
          0 0 0 0 0 0 0 0 0 0 0 0
          0 0 0 0 0 0 0 0 0 0 0 0
          0 0 0 0 0 0 0 0 0 0 0 0
          0 0 0 0 0 0 0 0 0 0 0 0
          0 0 0 0 0 0 0 0 0 0 0 0
          0 0 0 0 0 0 0 0 0 0 0 0
          0 0 0 0 0 0 0 0 0 0 0 0
          0 0 0 0 0 0 0 0 0 0 0 0
          0 0 0 0 0 0 0 0 0 0 0 0
          0 0 0 0 0 0 0 0 0 0 0 0
          0 0 0 0 0 0 0 0 0 0 0 0
          0 0 0 0 0 0 0 0 0 0 0 0
          0 0 0 0 0 0 0 0 0 0 0 0
          0 0 0 0 0 0 0 0 0 0 0 0
          0 0 0 0 0 0 0 0 0 0 0 0
          0 0 0 0 0 0 0 0 0 0 0 0
          0 0 0 0 0 0 0 0 0 0 0 0
          0 0 0 0 0 0 0 0 0 0 0 0
          0 0 0 0 0 0 0 0 0 0 0 0
          0 0 0 0 0 0 0 0 0 0 0 0
          0 0 0 0 0 0 0 0 0 0 0 0
          0 0 0 0 0 0 0 0 0 0 0 0
          0 0 0 0 0 0 0 0 0 0 0 0
          0 0 0 0 0 0 0 0 0 0 0 0
          0 0 0 0 0 0 0 0 0 0 0 0
          0 0 0 0 0 0 0 0 0 0 0 0
          0 0 0 0 0 0 0 0 0 0 0 0
          0 0 0 0 0 0 0 0 0 0 0 0
          0 0 0 0 0 0 0 0 0 0 0 0
          0 0 0 0 0 0 0 0 0 0 0 0
          0 0 0 0 0 0 0 0 0 0 0 0
          0 0 0 0 0 0 0 0 0 0 0 0
          0 0 0 0 0 0 0 0 0 0 0 0
          0 0 0 0 0 0 0 0 0 0 0 0
          0 0 0 0 0 0 0 0 0 0 0 0
          0 0 0 0 0 0 0 0 0 0 0 0
          0 0 0 0 0 0 0 0 0 0 0 0
          0 0 0 0 0 0 0 0 0 0 0 0
          0 0 0 0 0 0 0 0 0 0 0 0
          0 0 0 0 0 0 0 0 0 0 0 0
          0 0 0 0 0 0 0 0 0 0 0 0
          0 0 0 0 0 0 0 0 0 0 0 0
          0 0 0 0 0 0 0 0 0 0 0 0
          0 0 0 0 0 0 0 0 0 0 0 0
          0 0 0 0 0 0 0 0 0 0 0 0
          0 0 0 0 0 0 0 0 0 0 0 0
          0 0 0 0 0 0 0 0 0 0 0 0
          0 0 0 0 0 0 0 0 0 0 0 0
          0 0 0 0 0 0 0 0 0 0 0 0
          0 0 0 0 0 0 0 0 0 0 0 0
          0 0 0 0 0 0 0 0 0 0 0 0
          0 0 0 0 0 0 0 0 0 0 0 0
          0 0 0 0 0 0 0 0 0 0 0 0
          0 0 0 0 0 0 0 0 0 0 0 0
          0 0 0 0 0 0 0 0 0 0 0 0
          0 0 0 0 0 0 0 0 0 0 0 0
          0 0 0 0 0 0 0 0 0 0 0 0
          0 0 0 0 0 0 0 0 0 0 0 0
          0 0 0 0 0 0 0 0 0 0 0 0
          0 0 0 0 0 0 0 0 0 0 0 0
          0 0 0 0 0 0 0 0 0 0 0 0
          0 0 0 0 0 0 0 0 0 0 0 0
          0 0 0 0 0 0 0 0 0 0 0 0
          0 0 0 0 0 0 0 0 0 0 0 0
          0 0 0 0 0 0 0 0 0 0 0 0
          0 0 0 0 0 0 0 0 0 0 0 0
          0 0 0 0 0 0 0 0 0 0 0 0
          0 0 0 0 0 0 0 0 0 0 0 0
          0 0 0 0 0 0 0 0 0 0 0 0
          0 0 0 0 0 0 0 0 0 0 0 0
          0 0 0 0 0 0 0 0 0 0 0 0
          0 0 0 0 0 0 0 0 0 0 0 0
          0 0 0 0 0 0 0 0 0 0 0 0
          0 0 0 0 0 0 0 0 0 0 0 0
          0 0 0 0 0 0 0 0 0 0 0 0
          0 0 0 0 0 0 0 0 0 0 0 0
          0 0 0 0 0 0 0 0 0 0 0 0
          0 0 0 0 0 0 0 0 0 0 0 0
          0 0 0 0 0 0 0 0 0 0 0 0
          0 0 0 0 0 0 0 0 0 0 0 0
          0 0 0 0 0 0 0 0 0 0 0 0
          0 0 0 0 0 0 0 0 0 0 0 0
          0 0 0 0 0 0 0 0 0 0 0 0
          0 0 0 0 0 0 0 0 0 0 0 0
          0 0 0 0 0 0 0 0 0 0 0 0
          0 0 0 0 0 0 0 0 0 0 0 0
          0 0 0 0 0 0 0 0 0 0 0 0
          0 0 0 0 0 0 0 0 0 0 0 0
          0 0 0 0 0 0 0 0 0 0 0 0
          0 0 0 0 0 0 0 0 0 0 0 0
          0 0 0 0 0 0 0 0 0 0 0 0
          0 0 0 0 0 0 0 0 0 0 0 0
          0 0 0 0 0 0 0 0 0 0 0 0
          0 0 0 0 0 0 0 0 0 0 0 0
          0 0 0 0 0 0 0 0 0 0 0 0
          0 0 0 0 0 0 0 0 0 0 0 0
          0 0 0 0 0 0 0 0 0 0 0 0
          0 0 0 0 0 0 0 0 0 0 0 0
          0 0 0 0 0 0 0 0 0 0 0 0
          0 0 0 0 0 0 0 0 0 0 0 0
          0 0 0 0 0 0 0 0 0 0 0 0
          0 0 0 0 0 0 0 0 0 0 0 0
          0 0 0 0 0 0 0 0 0 0 0 0
          0 0 0 0 0 0 0 0 0 0 0 0
          0 0 0 0 0 0 0 0 0 0 0 0
          0 0 0 0 0 0 0 0 0 0 0 0
          0 0 0 0 0 0 0 0 0 0 0 0
          0 0 0 0 0 0 0 0 0 0 0 0
          0 0 0 0 0 0 0 0 0 0 0 0
          0 0 0 0 0 0 0 0 0 0 0 0
          0 0 0 0 0 0 0 0 0 0 0 0
          0 0 0 0 0 0 0 0 0 0 0 0
          0 0 0 0 0 0 0 0 0 0 0 0
          0 0 0 0 0 0 0 0 0 0 0 0
          0 0 0 0 0 0 0 0 0 0 0 0
          0 0 0 0 0 0 0 0 0 0 0 0
          0 0 0 0 0 0 0 0 0 0 0 0
          0 0 0 0 0 0 0 0 0 0 0 0
          0 0 0 0 0 0 0 0 0 0 0 0
          0 0 0 0 0 0 0 0 0 0 0 0
          0 0 0 0 0 0 0 0 0 0 0 0
          0 0 0 0 0 0 0 0 0 0 0 0
          0 0 0 0 0 0 0 0 0 0 0 0
          0 0 0 0 0 0 0 0 0 0 0 0
          0 0 0 0 0 0 0 0 0 0 0 0
          0 0 0 0 0 0 0 0 0 0 0 0
          0 0 0 0 0 0 0 0 0 0 0 0
          0 0 0 0 0 0 0 0 0 0 0 0
          0 0 0 0 0 0 0 0 0 0 0 0
          0 0 0 0 0 0 0 0 0 0 0 0
          0 0 0 0 0 0 0 0 0 0 0 0
          0 0 0 0 0 0 0 0 0 0 0 0
          0 0 0 0 0 0 0 0 0 0 0 0
          0 0 0 0 0 0 0 0 0 0 0 0
          0 0 0 0 0 0 0 0 0 0 0 0
          0 0 0 0 0 0 0 0 0 0 0 0
          0 0 0 0 0 0 0 0 0 0 0 0
          0 0 0 0 0 0 0 0 0 0 0 0
          0 0 0 0 0 0 0 0 0 0 0 0
          0 0 0 0 0 0 0 0 0 0 0 0
          0 0 0 0 0 0 0 0 0 0 0 0
          0 0 0 0 0 0 0 0 0 0 0 0
          0 0 0 0 0 0 0 0 0 0 0 0
          0 0 0 0 0 0 0 0 0 0 0 0
          0 0 0 0 0 0 0 0 0 0 0 0
          0 0 0 0 0 0 0 0 0 0 0 0
          0 0 0 0
        </DataArray>
      </CellData>
      <Points>
        <DataArray type="Float32" Name="Coordinates" NumberOfComponents="3" format="ascii">
          0 0 0 0.02 0 0 0 0.02 0 0.02 0.02 0
          0.04 0 0 0.04 0.02 0 0.06 0 0 0.06 0.02 0
          0.08 0 0 0.08 0.02 0 0.1 0 0 0.1 0.02 0
          0.12 0 0 0.12 0.02 0 0.14 0 0 0.14 0.02 0
          0.16 0 0 0.16 0.02 0 0.18 0 0 0.18 0.02 0
          0.2 0 0 0.2 0.02 0 0.22 0 0 0.22 0.02 0
          0.24 0 0 0.24 0.02 0 0.26 0 0 0.26 0.02 0
          0.28 0 0 0.28 0.02 0 0.3 0 0 0.3 0.02 0
          0.32 0 0 0.32 0.02 0 0.34 0 0 0.34 0.02 0
          0.36 0 0 0.36 0.02 0 0.38 0 0 0.38 0.02 0
          0.4 0 0 0.4 0.02 0 0.42 0 0 0.42 0.02 0
          0.44 0 0 0.44 0.02 0 0.46 0 0 0.46 0.02 0
          0.48 0 0 0.48 0.02 0 0.5 0 0 0.5 0.02 0
          0.52 0 0 0.52 0.02 0 0.54 0 0 0.54 0.02 0
          0.56 0 0 0.56 0.02 0 0.58 0 0 0.58 0.02 0
          0.6 0 0 0.6 0.02 0 0.62 0 0 0.62 0.02 0
          0.64 0 0 0.64 0.02 0 0.66 0 0 0.66 0.02 0
          0.68 0 0 0.68 0.02 0 0.7 0 0 0.7 0.02 0
          0.72 0 0 0.72 0.02 0 0.74 0 0 0.74 0.02 0
          0.76 0 0 0.76 0.02 0 0.78 0 0 0.78 0.02 0
          0.8 0 0 0.8 0.02 0 0.82 0 0 0.82 0.02 0
          0.84 0 0 0.84 0.02 0 0.86 0 0 0.86 0.02 0
          0.88 0 0 0.88 0.02 0 0.9 0 0 0.9 0.02 0
          0.92 0 0 0.92 0.02 0 0.94 0 0 0.94 0.02 0
          0.96 0 0 0.96 0.02 0 0.98 0 0 0.98 0.02 0
          1 0 0 1 0.02 0 0 0.04 0 0.02 0.04 0
          0.04 0.04 0 0.06 0.04 0 0.08 0.04 0 0.1 0.04 0
          0.12 0.04 0 0.14 0.04 0 0.16 0.04 0 0.18 0.04 0
          0.2 0.04 0 0.22 0.04 0 0.24 0.04 0 0.26 0.04 0
          0.28 0.04 0 0.3 0.04 0 0.32 0.04 0 0.34 0.04 0
          0.36 0.04 0 0.38 0.04 0 0.4 0.04 0 0.42 0.04 0
          0.44 0.04 0 0.46 0.04 0 0.48 0.04 0 0.5 0.04 0
          0.52 0.04 0 0.54 0.04 0 0.56 0.04 0 0.58 0.04 0
          0.6 0.04 0 0.62 0.04 0 0.64 0.04 0 0.66 0.04 0
          0.68 0.04 0 0.7 0.04 0 0.72 0.04 0 0.74 0.04 0
          0.76 0.04 0 0.78 0.04 0 0.8 0.04 0 0.82 0.04 0
          0.84 0.04 0 0.86 0.04 0 0.88 0.04 0 0.9 0.04 0
          0.92 0.04 0 0.94 0.04 0 0.96 0.04 0 0.98 0.04 0
          1 0.04 0 0 0.06 0 0.02 0.06 0 0.04 0.06 0
          0.06 0.06 0 0.08 0.06 0 0.1 0.06 0 0.12 0.06 0
          0.14 0.06 0 0.16 0.06 0 0.18 0.06 0 0.2 0.06 0
          0.22 0.06 0 0.24 0.06 0 0.26 0.06 0 0.28 0.06 0
          0.3 0.06 0 0.32 0.06 0 0.34 0.06 0 0.36 0.06 0
          0.38 0.06 0 0.4 0.06 0 0.42 0.06 0 0.44 0.06 0
          0.46 0.06 0 0.48 0.06 0 0.5 0.06 0 0.52 0.06 0
          0.54 0.06 0 0.56 0.06 0 0.58 0.06 0 0.6 0.06 0
          0.62 0.06 0 0.64 0.06 0 0.66 0.06 0 0.68 0.06 0
          0.7 0.06 0 0.72 0.06 0 0.74 0.06 0 0.76 0.06 0
          0.78 0.06 0 0.8 0.06 0 0.82 0.06 0 0.84 0.06 0
          0.86 0.06 0 0.88 0.06 0 0.9 0.06 0 0.92 0.06 0
          0.94 0.06 0 0.96 0.06 0 0.98 0.06 0 1 0.06 0
          0 0.08 0 0.02 0.08 0 0.04 0.08 0 0.06 0.08 0
          0.08 0.08 0 0.1 0.08 0 0.12 0.08 0 0.14 0.08 0
          0.16 0.08 0 0.18 0.08 0 0.2 0.08 0 0.22 0.08 0
          0.24 0.08 0 0.26 0.08 0 0.28 0.08 0 0.3 0.08 0
          0.32 0.08 0 0.34 0.08 0 0.36 0.08 0 0.38 0.08 0
          0.4 0.08 0 0.42 0.08 0 0.44 0.08 0 0.46 0.08 0
          0.48 0.08 0 0.5 0.08 0 0.52 0.08 0 0.54 0.08 0
          0.56 0.08 0 0.58 0.08 0 0.6 0.08 0 0.62 0.08 0
          0.64 0.08 0 0.66 0.08 0 0.68 0.08 0 0.7 0.08 0
          0.72 0.08 0 0.74 0.08 0 0.76 0.08 0 0.78 0.08 0
          0.8 0.08 0 0.82 0.08 0 0.84 0.08 0 0.86 0.08 0
          0.88 0.08 0 0.9 0.08 0 0.92 0.08 0 0.94 0.08 0
          0.96 0.08 0 0.98 0.08 0 1 0.08 0 0 0.1 0
          0.02 0.1 0 0.04 0.1 0 0.06 0.1 0 0.08 0.1 0
          0.1 0.1 0 0.12 0.1 0 0.14 0.1 0 0.16 0.1 0
          0.18 0.1 0 0.2 0.1 0 0.22 0.1 0 0.24 0.1 0
          0.26 0.1 0 0.28 0.1 0 0.3 0.1 0 0.32 0.1 0
          0.34 0.1 0 0.36 0.1 0 0.38 0.1 0 0.4 0.1 0
          0.42 0.1 0 0.44 0.1 0 0.46 0.1 0 0.48 0.1 0
          0.5 0.1 0 0.52 0.1 0 0.54 0.1 0 0.56 0.1 0
          0.58 0.1 0 0.6 0.1 0 0.62 0.1 0 0.64 0.1 0
          0.66 0.1 0 0.68 0.1 0 0.7 0.1 0 0.72 0.1 0
          0.74 0.1 0 0.76 0.1 0 0.78 0.1 0 0.8 0.1 0
          0.82 0.1 0 0.84 0.1 0 0.86 0.1 0 0.88 0.1 0
          0.9 0.1 0 0.92 0.1 0 0.94 0.1 0 0.96 0.1 0
          0.98 0.1 0 1 0.1 0 0 0.12 0 0.02 0.12 0
          0.04 0.12 0 0.06 0.12 0 0.08 0.12 0 0.1 0.12 0
          0.12 0.12 0 0.14 0.12 0 0.16 0.12 0 0.18 0.12 0
          0.2 0.12 0 0.22 0.12 0 0.24 0.12 0 0.26 0.12 0
          0.28 0.12 0 0.3 0.12 0 0.32 0.12 0 0.34 0.12 0
          0.36 0.12 0 0.38 0.12 0 0.4 0.12 0 0.42 0.12 0
          0.44 0.12 0 0.46 0.12 0 0.48 0.12 0 0.5 0.12 0
          0.52 0.12 0 0.54 0.12 0 0.56 0.12 0 0.58 0.12 0
          0.6 0.12 0 0.62 0.12 0 0.64 0.12 0 0.66 0.12 0
          0.68 0.12 0 0.7 0.12 0 0.72 0.12 0 0.74 0.12 0
          0.76 0.12 0 0.78 0.12 0 0.8 0.12 0 0.82 0.12 0
          0.84 0.12 0 0.86 0.12 0 0.88 0.12 0 0.9 0.12 0
          0.92 0.12 0 0.94 0.12 0 0.96 0.12 0 0.98 0.12 0
          1 0.12 0 0 0.14 0 0.02 0.14 0 0.04 0.14 0
          0.06 0.14 0 0.08 0.14 0 0.1 0.14 0 0.12 0.14 0
          0.14 0.14 0 0.16 0.14 0 0.18 0.14 0 0.2 0.14 0
          0.22 0.14 0 0.24 0.14 0 0.26 0.14 0 0.28 0.14 0
          0.3 0.14 0 0.32 0.14 0 0.34 0.14 0 0.36 0.14 0
          0.38 0.14 0 0.4 0.14 0 0.42 0.14 0 0.44 0.14 0
          0.46 0.14 0 0.48 0.14 0 0.5 0.14 0 0.52 0.14 0
          0.54 0.14 0 0.56 0.14 0 0.58 0.14 0 0.6 0.14 0
          0.62 0.14 0 0.64 0.14 0 0.66 0.14 0 0.68 0.14 0
          0.7 0.14 0 0.72 0.14 0 0.74 0.14 0 0.76 0.14 0
          0.78 0.14 0 0.8 0.14 0 0.82 0.14 0 0.84 0.14 0
          0.86 0.14 0 0.88 0.14 0 0.9 0.14 0 0.92 0.14 0
          0.94 0.14 0 0.96 0.14 0 0.98 0.14 0 1 0.14 0
          0 0.16 0 0.02 0.16 0 0.04 0.16 0 0.06 0.16 0
          0.08 0.16 0 0.1 0.16 0 0.12 0.16 0 0.14 0.16 0
          0.16 0.16 0 0.18 0.16 0 0.2 0.16 0 0.22 0.16 0
          0.24 0.16 0 0.26 0.16 0 0.28 0.16 0 0.3 0.16 0
          0.32 0.16 0 0.34 0.16 0 0.36 0.16 0 0.38 0.16 0
          0.4 0.16 0 0.42 0.16 0 0.44 0.16 0 0.46 0.16 0
          0.48 0.16 0 0.5 0.16 0 0.52 0.16 0 0.54 0.16 0
          0.56 0.16 0 0.58 0.16 0 0.6 0.16 0 0.62 0.16 0
          0.64 0.16 0 0.66 0.16 0 0.68 0.16 0 0.7 0.16 0
          0.72 0.16 0 0.74 0.16 0 0.76 0.16 0 0.78 0.16 0
          0.8 0.16 0 0.82 0.16 0 0.84 0.16 0 0.86 0.16 0
          0.88 0.16 0 0.9 0.16 0 0.92 0.16 0 0.94 0.16 0
          0.96 0.16 0 0.98 0.16 0 1 0.16 0 0 0.18 0
          0.02 0.18 0 0.04 0.18 0 0.06 0.18 0 0.08 0.18 0
          0.1 0.18 0 0.12 0.18 0 0.14 0.18 0 0.16 0.18 0
          0.18 0.18 0 0.2 0.18 0 0.22 0.18 0 0.24 0.18 0
          0.26 0.18 0 0.28 0.18 0 0.3 0.18 0 0.32 0.18 0
          0.34 0.18 0 0.36 0.18 0 0.38 0.18 0 0.4 0.18 0
          0.42 0.18 0 0.44 0.18 0 0.46 0.18 0 0.48 0.18 0
          0.5 0.18 0 0.52 0.18 0 0.54 0.18 0 0.56 0.18 0
          0.58 0.18 0 0.6 0.18 0 0.62 0.18 0 0.64 0.18 0
          0.66 0.18 0 0.68 0.18 0 0.7 0.18 0 0.72 0.18 0
          0.74 0.18 0 0.76 0.18 0 0.78 0.18 0 0.8 0.18 0
          0.82 0.18 0 0.84 0.18 0 0.86 0.18 0 0.88 0.18 0
          0.9 0.18 0 0.92 0.18 0 0.94 0.18 0 0.96 0.18 0
          0.98 0.18 0 1 0.18 0 0 0.2 0 0.02 0.2 0
          0.04 0.2 0 0.06 0.2 0 0.08 0.2 0 0.1 0.2 0
          0.12 0.2 0 0.14 0.2 0 0.16 0.2 0 0.18 0.2 0
          0.2 0.2 0 0.22 0.2 0 0.24 0.2 0 0.26 0.2 0
          0.28 0.2 0 0.3 0.2 0 0.32 0.2 0 0.34 0.2 0
          0.36 0.2 0 0.38 0.2 0 0.4 0.2 0 0.42 0.2 0
          0.44 0.2 0 0.46 0.2 0 0.48 0.2 0 0.5 0.2 0
          0.52 0.2 0 0.54 0.2 0 0.56 0.2 0 0.58 0.2 0
          0.6 0.2 0 0.62 0.2 0 0.64 0.2 0 0.66 0.2 0
          0.68 0.2 0 0.7 0.2 0 0.72 0.2 0 0.74 0.2 0
          0.76 0.2 0 0.78 0.2 0 0.8 0.2 0 0.82 0.2 0
          0.84 0.2 0 0.86 0.2 0 0.88 0.2 0 0.9 0.2 0
          0.92 0.2 0 0.94 0.2 0 0.96 0.2 0 0.98 0.2 0
          1 0.2 0 0 0.22 0 0.02 0.22 0 0.04 0.22 0
          0.06 0.22 0 0.08 0.22 0 0.1 0.22 0 0.12 0.22 0
          0.14 0.22 0 0.16 0.22 0 0.18 0.22 0 0.2 0.22 0
          0.22 0.22 0 0.24 0.22 0 0.26 0.22 0 0.28 0.22 0
          0.3 0.22 0 0.32 0.22 0 0.34 0.22 0 0.36 0.22 0
          0.38 0.22 0 0.4 0.22 0 0.42 0.22 0 0.44 0.22 0
          0.46 0.22 0 0.48 0.22 0 0.5 0.22 0 0.52 0.22 0
          0.54 0.22 0 0.56 0.22 0 0.58 0.22 0 0.6 0.22 0
          0.62 0.22 0 0.64 0.22 0 0.66 0.22 0 0.68 0.22 0
          0.7 0.22 0 0.72 0.22 0 0.74 0.22 0 0.76 0.22 0
          0.78 0.22 0 0.8 0.22 0 0.82 0.22 0 0.84 0.22 0
          0.86 0.22 0 0.88 0.22 0 0.9 0.22 0 0.92 0.22 0
          0.94 0.22 0 0.96 0.22 0 0.98 0.22 0 1 0.22 0
          0 0.24 0 0.02 0.24 0 0.04 0.24 0 0.06 0.24 0
          0.08 0.24 0 0.1 0.24 0 0.12 0.24 0 0.14 0.24 0
          0.16 0.24 0 0.18 0.24 0 0.2 0.24 0 0.22 0.24 0
          0.24 0.24 0 0.26 0.24 0 0.28 0.24 0 0.3 0.24 0
          0.32 0.24 0 0.34 0.24 0 0.36 0.24 0 0.38 0.24 0
          0.4 0.24 0 0.42 0.24 0 0.44 0.24 0 0.46 0.24 0
          0.48 0.24 0 0.5 0.24 0 0.52 0.24 0 0.54 0.24 0
          0.56 0.24 0 0.58 0.24 0 0.6 0.24 0 0.62 0.24 0
          0.64 0.24 0 0.66 0.24 0 0.68 0.24 0 0.7 0.24 0
          0.72 0.24 0 0.74 0.24 0 0.76 0.24 0 0.78 0.24 0
          0.8 0.24 0 0.82 0.24 0 0.84 0.24 0 0.86 0.24 0
          0.88 0.24 0 0.9 0.24 0 0.92 0.24 0 0.94 0.24 0
          0.96 0.24 0 0.98 0.24 0 1 0.24 0 0 0.26 0
          0.02 0.26 0 0.04 0.26 0 0.06 0.26 0 0.08 0.26 0
          0.1 0.26 0 0.12 0.26 0 0.14 0.26 0 0.16 0.26 0
          0.18 0.26 0 0.2 0.26 0 0.22 0.26 0 0.24 0.26 0
          0.26 0.26 0 0.28 0.26 0 0.3 0.26 0 0.32 0.26 0
          0.34 0.26 0 0.36 0.26 0 0.38 0.26 0 0.4 0.26 0
          0.42 0.26 0 0.44 0.26 0 0.46 0.26 0 0.48 0.26 0
          0.5 0.26 0 0.52 0.26 0 0.54 0.26 0 0.56 0.26 0
          0.58 0.26 0 0.6 0.26 0 0.62 0.26 0 0.64 0.26 0
          0.66 0.26 0 0.68 0.26 0 0.7 0.26 0 0.72 0.26 0
          0.74 0.26 0 0.76 0.26 0 0.78 0.26 0 0.8 0.26 0
          0.82 0.26 0 0.84 0.26 0 0.86 0.26 0 0.88 0.26 0
          0.9 0.26 0 0.92 0.26 0 0.94 0.26 0 0.96 0.26 0
          0.98 0.26 0 1 0.26 0 0 0.28 0 0.02 0.28 0
          0.04 0.28 0 0.06 0.28 0 0.08 0.28 0 0.1 0.28 0
          0.12 0.28 0 0.14 0.28 0 0.16 0.28 0 0.18 0.28 0
          0.2 0.28 0 0.22 0.28 0 0.24 0.28 0 0.26 0.28 0
          0.28 0.28 0 0.3 0.28 0 0.32 0.28 0 0.34 0.28 0
          0.36 0.28 0 0.38 0.28 0 0.4 0.28 0 0.42 0.28 0
          0.44 0.28 0 0.46 0.28 0 0.48 0.28 0 0.5 0.28 0
          0.52 0.28 0 0.54 0.28 0 0.56 0.28 0 0.58 0.28 0
          0.6 0.28 0 0.62 0.28 0 0.64 0.28 0 0.66 0.28 0
          0.68 0.28 0 0.7 0.28 0 0.72 0.28 0 0.74 0.28 0
          0.76 0.28 0 0.78 0.28 0 0.8 0.28 0 0.82 0.28 0
          0.84 0.28 0 0.86 0.28 0 0.88 0.28 0 0.9 0.28 0
          0.92 0.28 0 0.94 0.28 0 0.96 0.28 0 0.98 0.28 0
          1 0.28 0 0 0.3 0 0.02 0.3 0 0.04 0.3 0
          0.06 0.3 0 0.08 0.3 0 0.1 0.3 0 0.12 0.3 0
          0.14 0.3 0 0.16 0.3 0 0.18 0.3 0 0.2 0.3 0
          0.22 0.3 0 0.24 0.3 0 0.26 0.3 0 0.28 0.3 0
          0.3 0.3 0 0.32 0.3 0 0.34 0.3 0 0.36 0.3 0
          0.38 0.3 0 0.4 0.3 0 0.42 0.3 0 0.44 0.3 0
          0.46 0.3 0 0.48 0.3 0 0.5 0.3 0 0.52 0.3 0
          0.54 0.3 0 0.56 0.3 0 0.58 0.3 0 0.6 0.3 0
          0.62 0.3 0 0.64 0.3 0 0.66 0.3 0 0.68 0.3 0
          0.7 0.3 0 0.72 0.3 0 0.74 0.3 0 0.76 0.3 0
          0.78 0.3 0 0.8 0.3 0 0.82 0.3 0 0.84 0.3 0
          0.86 0.3 0 0.88 0.3 0 0.9 0.3 0 0.92 0.3 0
          0.94 0.3 0 0.96 0.3 0 0.98 0.3 0 1 0.3 0
          0 0.32 0 0.02 0.32 0 0.04 0.32 0 0.06 0.32 0
          0.08 0.32 0 0.1 0.32 0 0.12 0.32 0 0.14 0.32 0
          0.16 0.32 0 0.18 0.32 0 0.2 0.32 0 0.22 0.32 0
          0.24 0.32 0 0.26 0.32 0 0.28 0.32 0 0.3 0.32 0
          0.32 0.32 0 0.34 0.32 0 0.36 0.32 0 0.38 0.32 0
          0.4 0.32 0 0.42 0.32 0 0.44 0.32 0 0.46 0.32 0
          0.48 0.32 0 0.5 0.32 0 0.52 0.32 0 0.54 0.32 0
          0.56 0.32 0 0.58 0.32 0 0.6 0.32 0 0.62 0.32 0
          0.64 0.32 0 0.66 0.32 0 0.68 0.32 0 0.7 0.32 0
          0.72 0.32 0 0.74 0.32 0 0.76 0.32 0 0.78 0.32 0
          0.8 0.32 0 0.82 0.32 0 0.84 0.32 0 0.86 0.32 0
          0.88 0.32 0 0.9 0.32 0 0.92 0.32 0 0.94 0.32 0
          0.96 0.32 0 0.98 0.32 0 1 0.32 0 0 0.34 0
          0.02 0.34 0 0.04 0.34 0 0.06 0.34 0 0.08 0.34 0
          0.1 0.34 0 0.12 0.34 0 0.14 0.34 0 0.16 0.34 0
          0.18 0.34 0 0.2 0.34 0 0.22 0.34 0 0.24 0.34 0
          0.26 0.34 0 0.28 0.34 0 0.3 0.34 0 0.32 0.34 0
          0.34 0.34 0 0.36 0.34 0 0.38 0.34 0 0.4 0.34 0
          0.42 0.34 0 0.44 0.34 0 0.46 0.34 0 0.48 0.34 0
          0.5 0.34 0 0.52 0.34 0 0.54 0.34 0 0.56 0.34 0
          0.58 0.34 0 0.6 0.34 0 0.62 0.34 0 0.64 0.34 0
          0.66 0.34 0 0.68 0.34 0 0.7 0.34 0 0.72 0.34 0
          0.74 0.34 0 0.76 0.34 0 0.78 0.34 0 0.8 0.34 0