<?xml version="1.0"?>
<VTKFile type="UnstructuredGrid" version="0.1" byte_order="LittleEndian">
  <UnstructuredGrid>
    <Piece NumberOfCells="375" NumberOfPoints="416">
      <PointData Scalars="P" Vectors="v">
        <DataArray type="Float32" Name="P" NumberOfComponents="1" format="ascii">
          100008 99994.4 100008 99994.4 100008 100008 99994.2 99994.2 100007 100007 99994.6 99994.6
          100006 100006 99995 99995.1 100006 100006 99995.6 99995.6 100005 100005 99996.1 99996.1
          100005 100005 99996.7 99996.7 100004 100004 99997.2 99997.2 100003 100003 99997.8 99997.8
          100003 100003 99998.3 99998.3 100002 100002 99998.9 99998.9 100001 100001 99999.4 99999.4
          100001 100001 100000 100000 100010 99993.5 100008 99994 100007 99994.5 100006 99995
          100006 99995.6 100005 99996.1 100005 99996.7 100004 99997.2 100003 99997.8 100003 99998.3
          100002 99998.9 100001 99999.4 100001 100000 100009 99993.5 100008 99994 100007 99994.5
          100007 99995 100006 99995.6 100005 99996.1 100005 99996.7 100004 99997.2 100003 99997.8
          100003 99998.3 100002 99998.9 100001 99999.4 100001 100000 100009 99993.3 100008 99993.9
          100007 99994.4 100007 99995 100006 99995.5 100005 99996.1 100005 99996.6 100004 99997.2
          100003 99997.8 100003 99998.3 100002 99998.9 100001 99999.4 100001 100000 100009 99993.3
          100008 99993.9 100007 99994.4 100007 99995 100006 99995.5 100005 99996.1 100005 99996.6
          100004 99997.2 100003 99997.8 100003 99998.3 100002 99998.9 100001 99999.4 100001 100000
          100009 99993.2 100008 99993.8 100007 99994.4 100007 99994.9 100006 99995.5 100005 99996.1
          100005 99996.6 100004 99997.2 100003 99997.8 100003 99998.3 100002 99998.9 100001 99999.4
          100001 100000 100009 99993.2 100008 99993.8 100007 99994.4 100007 99995 100006 99995.5
          100005 99996.1 100005 99996.6 100004 99997.2 100003 99997.7 100003 99998.3 100002 99998.9
          100001 99999.4 100001 100000 100009 99993.1 100008 99993.7 100007 99994.3 100007 99994.9
          100006 99995.5 100005 99996.1 100005 99996.6 100004 99997.2 100003 99997.7 100003 99998.3
          100002 99998.9 100001 99999.4 100001 100000 100009 99993.2 100008 99993.8 100007 99994.4
          100007 99994.9 100006 99995.5 100005 99996.1 100005 99996.6 100004 99997.2 100003 99997.7
          100003 99998.3 100002 99998.9 100001 99999.4 100001 100000 100009 99993.1 100008 99993.7
          100007 99994.3 100007 99994.9 100006 99995.5 100005 99996 100005 99996.6 100004 99997.2
          100003 99997.7 100003 99998.3 100002 99998.9 100001 99999.4 100001 100000 100009 99993.1
          100008 99993.8 100007 99994.3 100007 99994.9 100006 99995.5 100005 99996.1 100005 99996.6
          100004 99997.2 100003 99997.7 100003 99998.3 100002 99998.9 100001 99999.4 100001 100000
          100009 99993.1 100008 99993.7 100007 99994.3 100007 99994.9 100006 99995.5 100005 99996
          100005 99996.6 100004 99997.2 100003 99997.7 100003 99998.3 100002 99998.9 100001 99999.4
          100001 100000 100009 99993.1 100008 99993.7 100007 99994.3 100007 99994.9 100006 99995.5
          100005 99996 100005 99996.6 100004 99997.2 100003 99997.7 100003 99998.3 100002 99998.9
          100001 99999.4 100001 100000 100009 99993.1 100008 99993.7 100007 99994.3 100007 99994.9
          100006 99995.5 100005 99996 100005 99996.6 100004 99997.2 100003 99997.7 100003 99998.3
          100002 99998.9 100001 99999.4 100001 100000 100009 99993.1 100008 99993.7 100007 99994.3
          100007 99994.9 100006 99995.5 100005 99996.1 100005 99996.6 100004 99997.2 100003 99997.7
          100003 99998.3 100002 99998.9 100001 99999.4 100001 100000
        </DataArray>
        <DataArray type="Float32" Name="delP" NumberOfComponents="1" format="ascii">
          7.99548 -5.64978 8.02925 -5.61601 7.59982 7.60944 -5.77318 -5.75678 7.03754 7.04406 -5.42798 -5.41917
          6.41957 6.42381 -4.95148 -4.94658 5.78743 5.78986 -4.42478 -4.42185 5.15254 5.15424 -3.88099 -3.87878
          4.51258 4.51401 -3.33313 -3.33134 3.86979 3.87088 -2.78156 -2.78026 3.22815 3.22886 -2.22617 -2.22525
          2.58642 2.58691 -1.66882 -1.66808 1.93946 1.93974 -1.11109 -1.11054 1.27926 1.27874 -0.55619 -0.555281
          0.583693 0.568232 0 0 9.66331 -6.46303 8.02461 -5.95793 7.16699 -5.48109 6.47404 -4.96753
          5.81813 -4.43122 5.16979 -3.88581 4.52338 -3.33645 3.87906 -2.78324 3.23655 -2.22765 2.59349 -1.67123
          1.94649 -1.11564 1.29107 -0.567399 0.621757 0 9.39627 -6.46604 8.09639 -5.99708 7.2485 -5.49541
          6.52736 -4.9795 5.84763 -4.44138 5.19181 -3.89019 4.54264 -3.33883 3.89312 -2.78714 3.24643 -2.23262
          2.60295 -1.67548 1.95748 -1.11915 1.3054 -0.567741 0.652112 0 9.07437 -6.7236 8.16835 -6.11417
          7.30858 -5.57134 6.56984 -5.01685 5.88645 -4.46112 5.21587 -3.90842 4.55616 -3.35461 3.90706 -2.79659
          3.26249 -2.23909 2.61754 -1.68289 1.97099 -1.12769 1.32418 -0.572864 0.687258 0 9.07671 -6.67682
          8.18131 -6.11771 7.35201 -5.56404 6.60557 -5.01559 5.9041 -4.46918 5.23539 -3.90971 4.58053 -3.355
          3.92498 -2.80251 3.27371 -2.24859 2.62999 -1.69025 1.98756 -1.13158 1.34552 -0.572409 0.711783 0
          8.88162 -6.83398 8.16227 -6.20773 7.37421 -5.62916 6.63124 -5.05313 5.92991 -4.48144 5.24818 -3.92155
          4.58314 -3.36946 3.933 -2.80971 3.28955 -2.25262 2.64563 -1.69689 2.00089 -1.14049 1.36347 -0.578625
          0.741462 0 8.93791 -6.77553 8.1843 -6.18593 7.40608 -5.61391 6.66095 -5.04917 5.94864 -4.48854
          5.26566 -3.9237 4.59992 -3.36192 3.94129 -2.80644 3.29155 -2.25689 2.65216 -1.69986 2.01527 -1.14019
          1.38492 -0.578356 0.766139 0 8.80198 -6.89102 8.13231 -6.26223 7.39815 -5.66893 6.67019 -5.08335
          5.96529 -4.50458 5.27731 -3.93775 4.60527 -3.37784 3.94844 -2.81617 3.30107 -2.25594 2.6581 -1.69765
          2.01946 -1.14198 1.39408 -0.582341 0.78843 0 8.86769 -6.82808 8.16776 -6.22328 7.42864 -5.64398
          6.69572 -5.07285 5.98253 -4.50558 5.29288 -3.93751 4.6206 -3.37294 3.95853 -2.815 3.30651 -2.26103
          2.66542 -1.70369 2.03219 -1.14322 1.40839 -0.576991 0.801768 0 8.75287 -6.92204 8.105 -6.29333
          7.40015 -5.69251 6.68926 -5.10322 5.98781 -4.52135 5.29865 -3.95069 4.62378 -3.38684 3.96355 -2.82375
          3.31399 -2.26221 2.67145 -1.70351 2.03672 -1.14512 1.41492 -0.579688 0.812452 0 8.83214 -6.85905
          8.151 -6.24366 7.43554 -5.65824 6.71635 -5.08552 6.00539 -4.51592 5.31239 -3.94672 4.63632 -3.38121
          3.97234 -2.82182 3.31927 -2.26563 2.67762 -1.70761 2.04638 -1.14588 1.42594 -0.576785 0.821048 0
          8.74938 -6.94397 8.0915 -6.31382 7.40007 -5.70943 6.69689 -5.11543 5.99798 -4.53055 5.3093 -3.95747
          4.63413 -3.39203 3.97291 -2.82839 3.32246 -2.26621 2.68046 -1.7069 2.0483 -1.1473 1.42948 -0.579933
          0.827592 0 8.80858 -6.87309 8.13965 -6.25444 7.43815 -5.66477 6.72628 -5.08924 6.01714 -4.51846
          5.32241 -3.94942 4.6445 -3.38432 3.97987 -2.82445 3.32628 -2.26705 2.68417 -1.70859 2.05434 -1.14724
          1.43712 -0.578606 0.834644 0 8.72224 -6.94918 8.08107 -6.32418 7.39737 -5.71853 6.69785 -5.12213
          5.99936 -4.53393 5.31029 -3.9586 4.63582 -3.39292 3.97532 -2.82929 3.32456 -2.26612 2.68248 -1.70612
          2.05242 -1.14762 1.4374 -0.582087 0.838464 0 8.7955 -6.87593 8.13528 -6.25728 7.43865 -5.66621
          6.72898 -5.08916 6.01967 -4.51679 5.32421 -3.94774 4.64678 -3.38392 3.98293 -2.82443 3.32897 -2.26604
          2.68621 -1.70718 2.05709 -1.14765 1.44239 -0.580879 0.842697 0
        </DataArray>
        <DataArray type="Float32" Name="rho" NumberOfComponents="1" format="ascii">
          1.23022 1.23005 1.23022 1.23005 1.23021 1.23021 1.23005 1.23005 1.23021 1.23021 1.23005 1.23005
          1.2302 1.2302 1.23006 1.23006 1.23019 1.23019 1.23007 1.23007 1.23018 1.23018 1.23007 1.23007
          1.23018 1.23018 1.23008 1.23008 1.23017 1.23017 1.23009 1.23009 1.23016 1.23016 1.23009 1.23009
          1.23015 1.23015 1.2301 1.2301 1.23014 1.23014 1.23011 1.23011 1.23014 1.23014 1.23011 1.23011
          1.23013 1.23013 1.23012 1.23012 1.23024 1.23004 1.23022 1.23005 1.23021 1.23005 1.2302 1.23006
          1.23019 1.23006 1.23018 1.23007 1.23018 1.23008 1.23017 1.23009 1.23016 1.23009 1.23015 1.2301
          1.23014 1.23011 1.23014 1.23011 1.23013 1.23012 1.23024 1.23004 1.23022 1.23005 1.23021 1.23005
          1.2302 1.23006 1.23019 1.23006 1.23018 1.23007 1.23018 1.23008 1.23017 1.23009 1.23016 1.23009
          1.23015 1.2301 1.23014 1.23011 1.23014 1.23011 1.23013 1.23012 1.23023 1.23004 1.23022 1.23004
          1.23021 1.23005 1.2302 1.23006 1.23019 1.23006 1.23018 1.23007 1.23018 1.23008 1.23017 1.23009
          1.23016 1.23009 1.23015 1.2301 1.23014 1.23011 1.23014 1.23011 1.23013 1.23012 1.23023 1.23004
          1.23022 1.23004 1.23021 1.23005 1.2302 1.23006 1.23019 1.23006 1.23018 1.23007 1.23018 1.23008
          1.23017 1.23009 1.23016 1.23009 1.23015 1.2301 1.23014 1.23011 1.23014 1.23011 1.23013 1.23012
          1.23023 1.23004 1.23022 1.23004 1.23021 1.23005 1.2302 1.23006 1.23019 1.23006 1.23018 1.23007
          1.23018 1.23008 1.23017 1.23009 1.23016 1.23009 1.23015 1.2301 1.23014 1.23011 1.23014 1.23011
          1.23013 1.23012 1.23023 1.23004 1.23022 1.23004 1.23021 1.23005 1.2302 1.23006 1.23019 1.23006
          1.23018 1.23007 1.23018 1.23008 1.23017 1.23009 1.23016 1.23009 1.23015 1.2301 1.23014 1.23011
          1.23014 1.23011 1.23013 1.23012 1.23023 1.23003 1.23022 1.23004 1.23021 1.23005 1.2302 1.23006
          1.23019 1.23006 1.23018 1.23007 1.23018 1.23008 1.23017 1.23008 1.23016 1.23009 1.23015 1.2301
          1.23014 1.23011 1.23014 1.23011 1.23013 1.23012 1.23023 1.23004 1.23022 1.23004 1.23021 1.23005
          1.2302 1.23006 1.23019 1.23006 1.23018 1.23007 1.23018 1.23008 1.23017 1.23008 1.23016 1.23009
          1.23015 1.2301 1.23014 1.23011 1.23014 1.23011 1.23013 1.23012 1.23023 1.23003 1.23022 1.23004
          1.23021 1.23005 1.2302 1.23006 1.23019 1.23006 1.23018 1.23007 1.23018 1.23008 1.23017 1.23008
          1.23016 1.23009 1.23015 1.2301 1.23014 1.23011 1.23014 1.23011 1.23013 1.23012 1.23023 1.23004
          1.23022 1.23004 1.23021 1.23005 1.2302 1.23006 1.23019 1.23006 1.23018 1.23007 1.23018 1.23008
          1.23017 1.23008 1.23016 1.23009 1.23015 1.2301 1.23014 1.23011 1.23014 1.23011 1.23013 1.23012
          1.23023 1.23003 1.23022 1.23004 1.23021 1.23005 1.2302 1.23006 1.23019 1.23006 1.23018 1.23007
          1.23018 1.23008 1.23017 1.23008 1.23016 1.23009 1.23015 1.2301 1.23014 1.23011 1.23014 1.23011
          1.23013 1.23012 1.23023 1.23003 1.23022 1.23004 1.23021 1.23005 1.2302 1.23006 1.23019 1.23006
          1.23019 1.23007 1.23018 1.23008 1.23017 1.23008 1.23016 1.23009 1.23015 1.2301 1.23014 1.23011
          1.23014 1.23011 1.23013 1.23012 1.23023 1.23003 1.23022 1.23004 1.23021 1.23005 1.2302 1.23006
          1.23019 1.23006 1.23018 1.23007 1.23018 1.23008 1.23017 1.23008 1.23016 1.23009 1.23015 1.2301
          1.23014 1.23011 1.23014 1.23011 1.23013 1.23012 1.23023 1.23003 1.23022 1.23004 1.23021 1.23005
          1.2302 1.23006 1.23019 1.23006 1.23019 1.23007 1.23018 1.23008 1.23017 1.23008 1.23016 1.23009
          1.23015 1.2301 1.23014 1.23011 1.23014 1.23011 1.23013 1.23012
        </DataArray>
        <DataArray type="Float32" Name="mu" NumberOfComponents="1" format="ascii">
          1.75183e-05 1.75183e-05 1.75183e-05 1.75183e-05 1.75183e-05 1.75183e-05 1.75183e-05 1.75183e-05 1.75183e-05 1.75183e-05 1.75183e-05 1.75183e-05
          1.75183e-05 1.75183e-05 1.75183e-05 1.75183e-05 1.75183e-05 1.75183e-05 1.75183e-05 1.75183e-05 1.75183e-05 1.75183e-05 1.75183e-05 1.75183e-05
          1.75183e-05 1.75183e-05 1.75183e-05 1.75183e-05 1.75183e-05 1.75183e-05 1.75183e-05 1.75183e-05 1.75183e-05 1.75183e-05 1.75183e-05 1.75183e-05
          1.75183e-05 1.75183e-05 1.75183e-05 1.75183e-05 1.75183e-05 1.75183e-05 1.75183e-05 1.75183e-05 1.75183e-05 1.75183e-05 1.75183e-05 1.75183e-05
          1.75183e-05 1.75183e-05 1.75183e-05 1.75183e-05 1.75183e-05 1.75183e-05 1.75183e-05 1.75183e-05 1.75183e-05 1.75183e-05 1.75183e-05 1.75183e-05
          1.75183e-05 1.75183e-05 1.75183e-05 1.75183e-05 1.75183e-05 1.75183e-05 1.75183e-05 1.75183e-05 1.75183e-05 1.75183e-05 1.75183e-05 1.75183e-05
          1.75183e-05 1.75183e-05 1.75183e-05 1.75183e-05 1.75183e-05 1.75183e-05 1.75183e-05 1.75183e-05 1.75183e-05 1.75183e-05 1.75183e-05 1.75183e-05
          1.75183e-05 1.75183e-05 1.75183e-05 1.75183e-05 1.75183e-05 1.75183e-05 1.75183e-05 1.75183e-05 1.75183e-05 1.75183e-05 1.75183e-05 1.75183e-05
          1.75183e-05 1.75183e-05 1.75183e-05 1.75183e-05 1.75183e-05 1.75183e-05 1.75183e-05 1.75183e-05 1.75183e-05 1.75183e-05 1.75183e-05 1.75183e-05
          1.75183e-05 1.75183e-05 1.75183e-05 1.75183e-05 1.75183e-05 1.75183e-05 1.75183e-05 1.75183e-05 1.75183e-05 1.75183e-05 1.75183e-05 1.75183e-05
          1.75183e-05 1.75183e-05 1.75183e-05 1.75183e-05 1.75183e-05 1.75183e-05 1.75183e-05 1.75183e-05 1.75183e-05 1.75183e-05 1.75183e-05 1.75183e-05
          1.75183e-05 1.75183e-05 1.75183e-05 1.75183e-05 1.75183e-05 1.75183e-05 1.75183e-05 1.75183e-05 1.75183e-05 1.75183e-05 1.75183e-05 1.75183e-05
          1.75183e-05 1.75183e-05 1.75183e-05 1.75183e-05 1.75183e-05 1.75183e-05 1.75183e-05 1.75183e-05 1.75183e-05 1.75183e-05 1.75183e-05 1.75183e-05
          1.75183e-05 1.75183e-05 1.75183e-05 1.75183e-05 1.75183e-05 1.75183e-05 1.75183e-05 1.75183e-05 1.75183e-05 1.75183e-05 1.75183e-05 1.75183e-05
          1.75183e-05 1.75183e-05 1.75183e-05 1.75183e-05 1.75183e-05 1.75183e-05 1.75183e-05 1.75183e-05 1.75183e-05 1.75183e-05 1.75183e-05 1.75183e-05
          1.75183e-05 1.75183e-05 1.75183e-05 1.75183e-05 1.75183e-05 1.75183e-05 1.75183e-05 1.75183e-05 1.75183e-05 1.75183e-05 1.75183e-05 1.75183e-05
          1.75183e-05 1.75183e-05 1.75183e-05 1.75183e-05 1.75183e-05 1.75183e-05 1.75183e-05 1.75183e-05 1.75183e-05 1.75183e-05 1.75183e-05 1.75183e-05
          1.75183e-05 1.75183e-05 1.75183e-05 1.75183e-05 1.75183e-05 1.75183e-05 1.75183e-05 1.75183e-05 1.75183e-05 1.75183e-05 1.75183e-05 1.75183e-05
          1.75183e-05 1.75183e-05 1.75183e-05 1.75183e-05 1.75183e-05 1.75183e-05 1.75183e-05 1.75183e-05 1.75183e-05 1.75183e-05 1.75183e-05 1.75183e-05
          1.75183e-05 1.75183e-05 1.75183e-05 1.75183e-05 1.75183e-05 1.75183e-05 1.75183e-05 1.75183e-05 1.75183e-05 1.75183e-05 1.75183e-05 1.75183e-05
          1.75183e-05 1.75183e-05 1.75183e-05 1.75183e-05 1.75183e-05 1.75183e-05 1.75183e-05 1.75183e-05 1.75183e-05 1.75183e-05 1.75183e-05 1.75183e-05
          1.75183e-05 1.75183e-05 1.75183e-05 1.75183e-05 1.75183e-05 1.75183e-05 1.75183e-05 1.75183e-05 1.75183e-05 1.75183e-05 1.75183e-05 1.75183e-05
          1.75183e-05 1.75183e-05 1.75183e-05 1.75183e-05 1.75183e-05 1.75183e-05 1.75183e-05 1.75183e-05 1.75183e-05 1.75183e-05 1.75183e-05 1.75183e-05
          1.75183e-05 1.75183e-05 1.75183e-05 1.75183e-05 1.75183e-05 1.75183e-05 1.75183e-05 1.75183e-05 1.75183e-05 1.75183e-05 1.75183e-05 1.75183e-05
          1.75183e-05 1.75183e-05 1.75183e-05 1.75183e-05 1.75183e-05 1.75183e-05 1.75183e-05 1.75183e-05 1.75183e-05 1.75183e-05 1.75183e-05 1.75183e-05
          1.75183e-05 1.75183e-05 1.75183e-05 1.75183e-05 1.75183e-05 1.75183e-05 1.75183e-05 1.75183e-05 1.75183e-05 1.75183e-05 1.75183e-05 1.75183e-05
          1.75183e-05 1.75183e-05 1.75183e-05 1.75183e-05 1.75183e-05 1.75183e-05 1.75183e-05 1.75183e-05 1.75183e-05 1.75183e-05 1.75183e-05 1.75183e-05
          1.75183e-05 1.75183e-05 1.75183e-05 1.75183e-05 1.75183e-05 1.75183e-05 1.75183e-05 1.75183e-05 1.75183e-05 1.75183e-05 1.75183e-05 1.75183e-05
          1.75183e-05 1.75183e-05 1.75183e-05 1.75183e-05 1.75183e-05 1.75183e-05 1.75183e-05 1.75183e-05 1.75183e-05 1.75183e-05 1.75183e-05 1.75183e-05
          1.75183e-05 1.75183e-05 1.75183e-05 1.75183e-05 1.75183e-05 1.75183e-05 1.75183e-05 1.75183e-05 1.75183e-05 1.75183e-05 1.75183e-05 1.75183e-05
          1.75183e-05 1.75183e-05 1.75183e-05 1.75183e-05 1.75183e-05 1.75183e-05 1.75183e-05 1.75183e-05 1.75183e-05 1.75183e-05 1.75183e-05 1.75183e-05
          1.75183e-05 1.75183e-05 1.75183e-05 1.75183e-05 1.75183e-05 1.75183e-05 1.75183e-05 1.75183e-05 1.75183e-05 1.75183e-05 1.75183e-05 1.75183e-05
          1.75183e-05 1.75183e-05 1.75183e-05 1.75183e-05 1.75183e-05 1.75183e-05 1.75183e-05 1.75183e-05 1.75183e-05 1.75183e-05 1.75183e-05 1.75183e-05
          1.75183e-05 1.75183e-05 1.75183e-05 1.75183e-05 1.75183e-05 1.75183e-05 1.75183e-05 1.75183e-05 1.75183e-05 1.75183e-05 1.75183e-05 1.75183e-05
          1.75183e-05 1.75183e-05 1.75183e-05 1.75183e-05 1.75183e-05 1.75183e-05 1.75183e-05 1.75183e-05
        </DataArray>
        <DataArray type="Float32" Name="v" NumberOfComponents="3" format="ascii">
          0 0 0 0 0 0 2.5 0 0 2.36048 0.105196 0
          0 0 0 2.21414 0.0262673 0 0 0 0 2.18635 0.0494144 0
          0 0 0 2.02843 0.021798 0 0 0 0 2.06335 0.0282764 0
          0 0 0 1.91289 0.0152549 0 0 0 0 1.98097 0.0167263 0
          0 0 0 1.8361 0.00943935 0 0 0 0 1.92245 0.0104908 0
          0 0 0 1.78073 0.0068759 0 0 0 0 1.87833 0.00812998 0
          0 0 0 1.73863 0.00590026 0 0 0 0 1.84401 0.00669202 0
          0 0 0 1.70555 0.00459625 0 0 0 0 1.81667 0.00499692 0
          0 0 0 1.67895 0.00316616 0 0 0 0 1.79472 0.00368385 0
          0 0 0 1.65737 0.00224652 0 0 0 0 1.77759 0.00295465 0
          0 0 0 1.64076 0.00135279 0 0 0 0 1.76647 0.00210606 0
          0 0 0 1.63148 -0.00130928 0 0 0 0 1.76871 -0.000966754 0
          0 0 0 1.64834 -0.0327194 0 0.512824 -0.0090883 0 1.74695 -0.0455043 0
          2.5 0 0 2.67577 0.12834 0 2.56747 0.0561493 0 2.62139 0.0821828 0
          2.4956 0.0459336 0 2.53592 0.0519924 0 2.41123 0.0327505 0 2.45951 0.0351635 0
          2.33965 0.024057 0 2.39738 0.0256275 0 2.28209 0.0184537 0 2.34759 0.0195982 0
          2.23604 0.0144683 0 2.30755 0.0154905 0 2.19861 0.0115733 0 2.27474 0.0125393 0
          2.16771 0.00929982 0 2.24773 0.0102779 0 2.14221 0.00721017 0 2.22603 0.00810018 0
          2.12216 0.00458018 0 2.21034 0.005152 0 2.10946 -0.000921922 0 2.20448 -0.00368595 0
          2.10526 -0.0252243 0 2.17407 -0.0301369 0 2.5 0 0 2.69513 0.0799784 0
          2.61704 0.0628963 0 2.72514 0.0870451 0 2.63322 0.0626379 0 2.70624 0.0703267 0
          2.60299 0.0505971 0 2.66306 0.0523093 0 2.55864 0.038123 0 2.61757 0.0391669 0
          2.51557 0.0299291 0 2.57684 0.031135 0 2.47798 0.0244568 0 2.54218 0.0254602 0
          2.44568 0.0198242 0 2.51237 0.0205602 0 2.41774 0.0157047 0 2.48682 0.01662 0
          2.39385 0.012279 0 2.46569 0.0132316 0 2.37454 0.00853034 0 2.44961 0.00880467 0
          2.36108 0.00130529 0 2.4395 -0.00224962 0 2.35014 -0.0176855 0 2.41591 -0.0207303 0
          2.5 0 0 2.64948 0.0593476 0 2.56924 0.0539241 0 2.69702 0.0748276 0
          2.6176 0.0584984 0 2.724 0.0670884 0 2.64058 0.0536995 0 2.72984 0.0566707 0
          2.63991 0.0456326 0 2.71612 0.0468259 0 2.62379 0.0378749 0 2.69341 0.0383208 0
          2.60248 0.0309828 0 2.66994 0.0317222 0 2.58065 0.0257745 0 2.6477 0.0266233 0
          2.56014 0.0214369 0 2.62762 0.0223801 0 2.54158 0.0172244 0 2.61019 0.0179389 0
          2.5258 0.0122058 0 2.596 0.0120282 0 2.51354 0.00365583 0 2.58484 0.000363044 0
          2.50127 -0.0126931 0 2.56758 -0.0150059 0 2.5 0 0 2.63413 0.0349702 0
          2.55112 0.0443924 0 2.67269 0.0630587 0 2.59422 0.0533659 0 2.70181 0.0610444 0
          2.62249 0.0503499 0 2.72302 0.0539382 0 2.64158 0.0457142 0 2.7359 0.0471234 0
          2.65309 0.0409701 0 2.73983 0.0413877 0 2.65463 0.0357863 0 2.7339 0.036155 0
          2.64857 0.0306346 0 2.72261 0.0307654 0 2.63885 0.0254385 0 2.71021 0.0259662 0
          2.62792 0.020687 0 2.69838 0.0211959 0 2.61764 0.0153655 0 2.68794 0.0149103 0
          2.60858 0.00648953 0 2.67833 0.00338446 0 2.59792 -0.00865894 0 2.66549 -0.0107849 0
          2.5 0 0 2.61589 0.0291686 0 2.52761 0.0364401 0 2.64769 0.0514907 0
          2.56875 0.0449524 0 2.67812 0.0527919 0 2.59956 0.0440523 0 2.70125 0.0481518 0
          2.62231 0.0405594 0 2.71992 0.0423173 0 2.63997 0.036952 0 2.73552 0.0380521 0
          2.65451 0.0342356 0 2.747 0.0344331 0 2.66601 0.0312956 0 2.75329 0.0310548 0
          2.67138 0.027504 0 2.75314 0.02758 0 2.67169 0.0230698 0 2.74894 0.0229196 0
          2.66919 0.0173695 0 2.74353 0.0164062 0 2.66504 0.0082637 0 2.7368 0.0055802 0
          2.65713 -0.00611444 0 2.7271 -0.00797118 0 2.5 0 0 2.61454 0.0179407 0
          2.52453 0.0291178 0 2.63928 0.0415935 0 2.5568 0.0393177 0 2.66427 0.045624 0
          2.58462 0.0391803 0 2.68614 0.0428573 0 2.60758 0.0365799 0 2.7048 0.0389056 0
          2.62622 0.0335796 0 2.72096 0.0350061 0 2.64252 0.0308774 0 2.73591 0.0312213 0
          2.65685 0.0282436 0 2.74953 0.0284038 0 2.6695 0.025875 0 2.76059 0.0255336 0
          2.68093 0.0228759 0 2.76844 0.0220091 0 2.68856 0.0180639 0 2.77237 0.0165843 0
          2.69172 0.00981024 0 2.77051 0.00717056 0 2.68841 -0.00353378 0 2.76099 -0.00533126 0
          2.5 0 0 2.60612 0.016054 0 2.51318 0.0243422 0 2.62595 0.0340735 0
          2.54206 0.0327263 0 2.65047 0.0383126 0 2.5695 0.0332731 0 2.67234 0.0366064 0
          2.59288 0.0311368 0 2.69157 0.0331576 0 2.6132 0.0286368 0 2.70867 0.030184 0
          2.63101 0.0266457 0 2.72411 0.0276938 0 2.64639 0.0246214 0 2.73804 0.025308 0
          2.66033 0.0225054 0 2.75101 0.0223845 0 2.67278 0.0197835 0 2.7629 0.0193896 0
          2.68349 0.0157855 0 2.77266 0.0146662 0 2.69186 0.00937001 0 2.7773 0.00674548 0
          2.69439 -0.0011423 0 2.77051 -0.00244769 0 2.5 0 0 2.60699 0.01038 0
          2.51384 0.018954 0 2.62425 0.0265663 0 2.53832 0.0276092 0 2.64487 0.0317403 0
          2.56247 0.0285907 0 2.6648 0.0311866 0 2.58431 0.0271175 0 2.6829 0.0289514 0
          2.60356 0.025065 0 2.69935 0.0263427 0 2.6211 0.0230052 0 2.71479 0.0237836 0
          2.6373 0.0210527 0 2.72908 0.0216892 0 2.65209 0.0192673 0 2.74216 0.0195668 0
          2.66501 0.0169621 0 2.7538 0.0169867 0 2.6764 0.0134241 0 2.76338 0.0126009 0
          2.6851 0.00797654 0 2.76927 0.00566826 0 2.68815 0.000308363 0 2.76633 -0.000566453 0
          2.5 0 0 2.60116 0.0093545 0 2.50813 0.0155777 0 2.61557 0.0214037 0
          2.52859 0.022363 0 2.63634 0.025827 0 2.55216 0.0233009 0 2.65665 0.0254652 0
          2.57448 0.0220215 0 2.67533 0.0234175 0 2.59486 0.0203108 0 2.69229 0.0214261 0
          2.61311 0.0188399 0 2.70766 0.0197511 0 2.6293 0.0174127 0 2.72171 0.0180707 0
          2.64408 0.0158371 0 2.73472 0.0160715 0 2.65755 0.0138149 0 2.74638 0.0137808 0
          2.66936 0.0109213 0 2.75581 0.0103029 0 2.67805 0.00649234 0 2.7615 0.00498478 0
          2.68121 0.000740585 0 2.76126 4.02698e-05 0 2.5 0 0 2.60459 0.00615892 0
          2.51011 0.0111024 0 2.61798 0.0162666 0 2.529 0.0171705 0 2.63649 0.0199804 0
          2.55077 0.0186125 0 2.65504 0.0200672 0 2.57158 0.0179846 0 2.67226 0.0188634 0
          2.59044 0.0167376 0 2.68809 0.0173044 0 2.60776 0.0153338 0 2.70297 0.0157389 0
          2.62387 0.0139861 0 2.71687 0.0143445 0 2.63865 0.0127263 0 2.72953 0.0129203 0
          2.65177 0.0111518 0 2.74064 0.0110955 0 2.66308 0.00873345 0 2.74969 0.00821318 0
          2.67148 0.00508838 0 2.7553 0.0040115 0 2.67528 0.000667993 0 2.75667 0.000111401 0
          2.5 0 0 2.60397 0.00472161 0 2.50706 0.00864672 0 2.61416 0.0120685 0
          2.52399 0.0128914 0 2.63098 0.0148535 0 2.54452 0.0139554 0 2.64949 0.0148939 0
          2.56518 0.0133463 0 2.66733 0.0137992 0 2.58481 0.0123247 0 2.68386 0.012652 0
          2.60275 0.0113621 0 2.69895 0.0116963 0 2.61882 0.0104578 0 2.71272 0.0106894 0
          2.63344 0.00948644 0 2.7253 0.00946664 0 2.64675 0.00824566 0 2.73637 0.00802696 0
          2.65816 0.006415 0 2.74519 0.00603142 0 2.66634 0.00369044 0 2.75054 0.00314483 0
          2.67 0.00022637 0 2.75238 -0.000241609 0 2.5 0 0 2.6027 0.00263572 0
          2.50749 0.00545994 0 2.6139 0.00771528 0 2.52422 0.0084869 0 2.63075 0.00967649 0
          2.54432 0.00929696 0 2.64898 0.00976238 0 2.5644 0.0091537 0 2.66619 0.00911312 0
          2.5831 0.00860406 0 2.68197 0.00838986 0 2.60027 0.00783821 0 2.69668 0.00772796 0
          2.61606 0.00709357 0 2.71038 0.00703589 0 2.63049 0.00646496 0 2.72274 0.00625449 0
          2.64334 0.00569203 0 2.73342 0.00533353 0 2.65422 0.0043757 0 2.74198 0.00406019 0
          2.66206 0.00240675 0 2.74726 0.00219479 0 2.666 -0.000162786 0 2.74912 -0.000539412 0
          2.5 0 0 2.59931 0.00141614 0 2.5058 0.00278525 0 2.60906 0.0038983 0
          2.52139 0.00426149 0 2.62532 0.00490284 0 2.5409 0.00468475 0 2.64344 0.00489042 0
          2.56071 0.00460123 0 2.66142 0.00441483 0 2.57946 0.004301 0 2.6784 0.0040373 0
          2.59676 0.00390156 0 2.69388 0.00382327 0 2.61254 0.00354442 0 2.70787 0.00349991 0
          2.62683 0.00325241 0 2.72062 0.00300306 0 2.63961 0.00286474 0 2.7319 0.00249882 0
          2.65047 0.00211994 0 2.7407 0.00202987 0 2.65847 0.00108585 0 2.74577 0.00116827 0
          2.66245 -0.000509596 0 2.74597 -0.00075674 0 2.5 0 0 2.60115 0 0
          2.50665 0 0 2.61156 0 0 2.52273 0 0 2.62812 0 0
          2.5427 0 0 2.64649 0 0 2.56267 1.75348e-38 0 2.66433 0 0
          2.58075 1.24265e-38 0 2.68082 -1.36825e-38 0 2.59725 0 0 2.69591 -1.51127e-38 0
          2.61281 0 0 2.70978 0 0 2.62706 -1.6163e-38 0 2.72244 0 0
          2.63929 0 0 2.73345 0 0 2.64931 0 0 2.74175 0 0
          2.65713 0 0 2.74635 0 0 2.661 0 0 2.74462 -0.000309358 0
        </DataArray>
      </PointData>
      <Points>
        <DataArray type="Float32" Name="Coordinates" NumberOfComponents="3" format="ascii">
          0 0 0 0.2 0 0 0 0.1 0 0.2 0.1 0
          0.4 0 0 0.4 0.1 0 0.6 0 0 0.6 0.1 0
          0.8 0 0 0.8 0.1 0 1 0 0 1 0.1 0
          1.2 0 0 1.2 0.1 0 1.4 0 0 1.4 0.1 0
          1.6 0 0 1.6 0.1 0 1.8 0 0 1.8 0.1 0
          2 0 0 2 0.1 0 2.2 0 0 2.2 0.1 0
          2.4 0 0 2.4 0.1 0 2.6 0 0 2.6 0.1 0
          2.8 0 0 2.8 0.1 0 3 0 0 3 0.1 0
          3.2 0 0 3.2 0.1 0 3.4 0 0 3.4 0.1 0
          3.6 0 0 3.6 0.1 0 3.8 0 0 3.8 0.1 0
          4 0 0 4 0.1 0 4.2 0 0 4.2 0.1 0
          4.4 0 0 4.4 0.1 0 4.6 0 0 4.6 0.1 0
          4.8 0 0 4.8 0.1 0 5 0 0 5 0.1 0
          0 0.2 0 0.2 0.2 0 0.4 0.2 0 0.6 0.2 0
          0.8 0.2 0 1 0.2 0 1.2 0.2 0 1.4 0.2 0
          1.6 0.2 0 1.8 0.2 0 2 0.2 0 2.2 0.2 0
          2.4 0.2 0 2.6 0.2 0 2.8 0.2 0 3 0.2 0
          3.2 0.2 0 3.4 0.2 0 3.6 0.2 0 3.8 0.2 0
          4 0.2 0 4.2 0.2 0 4.4 0.2 0 4.6 0.2 0
          4.8 0.2 0 5 0.2 0 0 0.3 0 0.2 0.3 0
          0.4 0.3 0 0.6 0.3 0 0.8 0.3 0 1 0.3 0
          1.2 0.3 0 1.4 0.3 0 1.6 0.3 0 1.8 0.3 0
          2 0.3 0 2.2 0.3 0 2.4 0.3 0 2.6 0.3 0
          2.8 0.3 0 3 0.3 0 3.2 0.3 0 3.4 0.3 0
          3.6 0.3 0 3.8 0.3 0 4 0.3 0 4.2 0.3 0
          4.4 0.3 0 4.6 0.3 0 4.8 0.3 0 5 0.3 0
          0 0.4 0 0.2 0.4 0 0.4 0.4 0 0.6 0.4 0
          0.8 0.4 0 1 0.4 0 1.2 0.4 0 1.4 0.4 0
          1.6 0.4 0 1.8 0.4 0 2 0.4 0 2.2 0.4 0
          2.4 0.4 0 2.6 0.4 0 2.8 0.4 0 3 0.4 0
          3.2 0.4 0 3.4 0.4 0 3.6 0.4 0 3.8 0.4 0
          4 0.4 0 4.2 0.4 0 4.4 0.4 0 4.6 0.4 0
          4.8 0.4 0 5 0.4 0 0 0.5 0 0.2 0.5 0
          0.4 0.5 0 0.6 0.5 0 0.8 0.5 0 1 0.5 0
          1.2 0.5 0 1.4 0.5 0 1.6 0.5 0 1.8 0.5 0
          2 0.5 0 2.2 0.5 0 2.4 0.5 0 2.6 0.5 0
          2.8 0.5 0 3 0.5 0 3.2 0.5 0 3.4 0.5 0
          3.6 0.5 0 3.8 0.5 0 4 0.5 0 4.2 0.5 0
          4.4 0.5 0 4.6 0.5 0 4.8 0.5 0 5 0.5 0
          0 0.6 0 0.2 0.6 0 0.4 0.6 0 0.6 0.6 0
          0.8 0.6 0 1 0.6 0 1.2 0.6 0 1.4 0.6 0
          1.6 0.6 0 1.8 0.6 0 2 0.6 0 2.2 0.6 0
          2.4 0.6 0 2.6 0.6 0 2.8 0.6 0 3 0.6 0
          3.2 0.6 0 3.4 0.6 0 3.6 0.6 0 3.8 0.6 0
          4 0.6 0 4.2 0.6 0 4.4 0.6 0 4.6 0.6 0
          4.8 0.6 0 5 0.6 0 0 0.7 0 0.2 0.7 0
          0.4 0.7 0 0.6 0.7 0 0.8 0.7 0 1 0.7 0
          1.2 0.7 0 1.4 0.7 0 1.6 0.7 0 1.8 0.7 0
          2 0.7 0 2.2 0.7 0 2.4 0.7 0 2.6 0.7 0
          2.8 0.7 0 3 0.7 0 3.2 0.7 0 3.4 0.7 0
          3.6 0.7 0 3.8 0.7 0 4 0.7 0 4.2 0.7 0
          4.4 0.7 0 4.6 0.7 0 4.8 0.7 0 5 0.7 0
          0 0.8 0 0.2 0.8 0 0.4 0.8 0 0.6 0.8 0
          0.8 0.8 0 1 0.8 0 1.2 0.8 0 1.4 0.8 0
          1.6 0.8 0 1.8 0.8 0 2 0.8 0 2.2 0.8 0
          2.4 0.8 0 2.6 0.8 0 2.8 0.8 0 3 0.8 0
          3.2 0.8 0 3.4 0.8 0 3.6 0.8 0 3.8 0.8 0
          4 0.8 0 4.2 0.8 0 4.4 0.8 0 4.6 0.8 0
          4.8 0.8 0 5 0.8 0 0 0.9 0 0.2 0.9 0
          0.4 0.9 0 0.6 0.9 0 0.8 0.9 0 1 0.9 0
          1.2 0.9 0 1.4 0.9 0 1.6 0.9 0 1.8 0.9 0
          2 0.9 0 2.2 0.9 0 2.4 0.9 0 2.6 0.9 0
          2.8 0.9 0 3 0.9 0 3.2 0.9 0 3.4 0.9 0
          3.6 0.9 0 3.8 0.9 0 4 0.9 0 4.2 0.9 0
          4.4 0.9 0 4.6 0.9 0 4.8 0.9 0 5 0.9 0
          0 1 0 0.2 1 0 0.4 1 0 0.6 1 0
          0.8 1 0 1 1 0 1.2 1 0 1.4 1 0
          1.6 1 0 1.8 1 0 2 1 0 2.2 1 0
          2.4 1 0 2.6 1 0 2.8 1 0 3 1 0
          3.2 1 0 3.4 1 0 3.6 1 0 3.8 1 0
          4 1 0 4.2 1 0 4.4 1 0 4.6 1 0
          4.8 1 0 5 1 0 0 1.1 0 0.2 1.1 0
          0.4 1.1 0 0.6 1.1 0 0.8 1.1 0 1 1.1 0
          1.2 1.1 0 1.4 1.1 0 1.6 1.1 0 1.8 1.1 0
          2 1.1 0 2.2 1.1 0 2.4 1.1 0 2.6 1.1 0
          2.8 1.1 0 3 1.1 0 3.2 1.1 0 3.4 1.1 0
          3.6 1.1 0 3.8 1.1 0 4 1.1 0 4.2 1.1 0
          4.4 1.1 0 4.6 1.1 0 4.8 1.1 0 5 1.1 0
          0 1.2 0 0.2 1.2 0 0.4 1.2 0 0.6 1.2 0
          0.8 1.2 0 1 1.2 0 1.2 1.2 0 1.4 1.2 0
          1.6 1.2 0 1.8 1.2 0 2 1.2 0 2.2 1.2 0
          2.4 1.2 0 2.6 1.2 0 2.8 1.2 0 3 1.2 0
          3.2 1.2 0 3.4 1.2 0 3.6 1.2 0 3.8 1.2 0
          4 1.2 0 4.2 1.2 0 4.4 1.2 0 4.6 1.2 0
          4.8 1.2 0 5 1.2 0 0 1.3 0 0.2 1.3 0
          0.4 1.3 0 0.6 1.3 0 0.8 1.3 0 1 1.3 0
          1.2 1.3 0 1.4 1.3 0 1.6 1.3 0 1.8 1.3 0
          2 1.3 0 2.2 1.3 0 2.4 1.3 0 2.6 1.3 0
          2.8 1.3 0 3 1.3 0 3.2 1.3 0 3.4 1.3 0