<?xml version="1.0"?>
<VTKFile type="UnstructuredGrid" version="0.1" byte_order="LittleEndian">
  <UnstructuredGrid>
    <Piece NumberOfCells="600" NumberOfPoints="651">
      <PointData Scalars="P" Vectors="v">
        <DataArray type="Float32" Name="P" NumberOfComponents="1" format="ascii">
          99999.1 99998.6 100001 100001 99999.2 100001 99998.7 100001 99999.2 100001 99998.8 100001
          99999.3 100001 99998.9 100001 99999.3 100001 99998.9 100001 99999.4 100001 99999 100001
          99999.4 100001 99999.1 100001 99999.5 100001 99999.2 100001 99999.6 100001 99999.3 100000
          99999.6 100001 99999.4 100000 99999.7 100001 99999.5 100000 99999.8 100000 99999.6 100000
          99999.8 100000 99999.7 100000 99999.9 100000 99999.8 100000 99999.9 100000 99999.9 100000
          100000 100000 99999.2 99998.6 99999.2 99998.7 99999.2 99998.8 99999.3 99998.9 99999.3 99998.9
          99999.4 99999 99999.4 99999.1 99999.5 99999.2 99999.6 99999.3 99999.6 99999.4 99999.7 99999.5
          99999.8 99999.6 99999.8 99999.7 99999.9 99999.8 99999.9 99999.9 100000 100001 100001 100001
          100001 100001 100001 100001 100001 100001 100001 100001 100001 100001 100001 100001
          100001 100001 100000 100001 100000 100001 100000 100000 100000 100000 100000 100000
          100000 100000 100000 100000 99999.2 99998.6 99999.2 99998.7 99999.2 99998.8 99999.3 99998.9
          99999.3 99998.9 99999.4 99999 99999.4 99999.1 99999.5 99999.2 99999.6 99999.3 99999.6 99999.4
          99999.7 99999.5 99999.8 99999.6 99999.8 99999.7 99999.9 99999.8 99999.9 99999.9 100000 100001
          100001 100001 100001 100001 100001 100001 100001 100001 100001 100001 100001 100001
          100001 100001 100001 100001 100000 100001 100000 100001 100000 100000 100000 100000
          100000 100000 100000 100000 100000 100000 99999.2 99998.6 99999.2 99998.7 99999.2 99998.8
          99999.3 99998.9 99999.3 99998.9 99999.4 99999 99999.4 99999.1 99999.5 99999.2 99999.6 99999.3
          99999.6 99999.4 99999.7 99999.5 99999.8 99999.6 99999.8 99999.7 99999.9 99999.8 99999.9 99999.9
          100000 100001 100001 100001 100001 100001 100001 100001 100001 100001 100001 100001
          100001 100001 100001 100001 100001 100001 100000 100001 100000 100001 100000 100000
          100000 100000 100000 100000 100000 100000 100000 100000 99999.2 99998.6 99999.2 99998.7
          99999.2 99998.8 99999.3 99998.9 99999.3 99998.9 99999.4 99999 99999.4 99999.1 99999.5 99999.2
          99999.6 99999.3 99999.6 99999.4 99999.7 99999.5 99999.8 99999.6 99999.8 99999.7 99999.9 99999.8
          99999.9 99999.9 100000 100001 100001 100001 100001 100001 100001 100001 100001 100001
          100001 100001 100001 100001 100001 100001 100001 100001 100000 100001 100000 100001
          100000 100000 100000 100000 100000 100000 100000 100000 100000 100000 99999.2 99998.6
          99999.2 99998.7 99999.2 99998.8 99999.3 99998.9 99999.3 99998.9 99999.4 99999 99999.4 99999.1
          99999.5 99999.2 99999.6 99999.3 99999.6 99999.4 99999.7 99999.5 99999.8 99999.6 99999.8 99999.7
          99999.9 99999.8 99999.9 99999.9 100000 100001 100001 100001 100001 100001 100001 100001
          100001 100001 100001 100001 100001 100001 100001 100001 100001 100001 100000 100001
          100000 100001 100000 100000 100000 100000 100000 100000 100000 100000 100000 100000
          99999.2 99998.6 99999.2 99998.7 99999.2 99998.8 99999.3 99998.9 99999.3 99998.9 99999.4 99999
          99999.4 99999.1 99999.5 99999.2 99999.6 99999.3 99999.6 99999.4 99999.7 99999.5 99999.8 99999.6
          99999.8 99999.7 99999.9 99999.8 99999.9 99999.9 100000 100001 100001 100001 100001 100001
          100001 100001 100001 100001 100001 100001 100001 100001 100001 100001 100001 100001
          100000 100001 100000 100001 100000 100000 100000 100000 100000 100000 100000 100000
          100000 100000 99999.2 99998.6 99999.2 99998.7 99999.2 99998.8 99999.3 99998.9 99999.3 99998.9
          99999.4 99999 99999.4 99999.1 99999.5 99999.2 99999.6 99999.3 99999.6 99999.4 99999.7 99999.5
          99999.8 99999.6 99999.8 99999.7 99999.9 99999.8 99999.9 99999.9 100000 100001 100001 100001
          100001 100001 100001 100001 100001 100001 100001 100001 100001 100001 100001 100001
          100001 100001 100000 100001 100000 100001 100000 100000 100000 100000 100000 100000
          100000 100000 100000 100000 99999.2 99998.6 99999.2 99998.7 99999.2 99998.8 99999.3 99998.9
          99999.3 99998.9 99999.4 99999 99999.4 99999.1 99999.5 99999.2 99999.6 99999.3 99999.6 99999.4
          99999.7 99999.5 99999.8 99999.6 99999.8 99999.7 99999.9 99999.8 99999.9 99999.9 100000 100001
          100001 100001 100001 100001 100001 100001 100001 100001 100001 100001 100001 100001
          100001 100001 100001 100001 100000 100001 100000 100001 100000 100000 100000 100000
          100000 100000 100000 100000 100000 100000 99999.2 99998.6 99999.2 99998.7 99999.2 99998.8
          99999.3 99998.9 99999.3 99998.9 99999.4 99999 99999.4 99999.1 99999.5 99999.2 99999.6 99999.3
          99999.6 99999.4 99999.7 99999.5 99999.8 99999.6 99999.8 99999.7 99999.9 99999.8 99999.9 99999.9
          100000 100001 100001 100001 100001 100001 100001 100001 100001 100001 100001 100001
          100001 100001 100001 100001 100001 100001 100000 100001 100000 100001 100000 100000
          100000 100000 100000 100000 100000 100000 100000 100000 99999.1 99998.6 99999.2 99998.7
          99999.2 99998.8 99999.3 99998.9 99999.3 99998.9 99999.4 99999 99999.4 99999.1 99999.5 99999.2
          99999.6 99999.3 99999.6 99999.4 99999.7 99999.5 99999.8 99999.6 99999.8 99999.7 99999.9 99999.8
          99999.9 99999.9 100000
        </DataArray>
        <DataArray type="Float32" Name="delP" NumberOfComponents="1" format="ascii">
          -0.851063 -1.3527 1.47446 0.972821 -0.810936 1.40233 -1.31219 0.915953 -0.778891 1.32569 -1.23648 0.85779
          -0.731077 1.23582 -1.14847 0.795303 -0.676677 1.13957 -1.05521 0.729844 -0.619217 1.04 -0.95919 0.662405
          -0.559981 0.938517 -0.861468 0.593608 -0.499556 0.835837 -0.762619 0.523852 -0.438289 0.732367 -0.662995 0.453409
          -0.376402 0.628357 -0.562824 0.382467 -0.314046 0.523972 -0.462275 0.31116 -0.251343 0.419331 -0.36149 0.239581
          -0.188374 0.314528 -0.260607 0.167802 -0.125238 0.209649 -0.159897 0.0958945 -0.0622257 0.104827 -0.0598809 0.0238783
          0 0 -0.814626 -1.35912 -0.808912 -1.31119 -0.77816 -1.23591 -0.730762 -1.14824 -0.676544 -1.05512
          -0.619156 -0.959146 -0.55995 -0.861448 -0.499542 -0.76261 -0.438281 -0.66299 -0.376396 -0.562822 -0.314045 -0.462276
          -0.251341 -0.361489 -0.188372 -0.26061 -0.125238 -0.159917 -0.0621848 -0.06007 0 1.48884 0.939006 1.41621
          0.908333 1.33187 0.856078 1.23893 0.795118 1.14133 0.73006 1.04109 0.662702 0.939232 0.593888 0.836327
          0.52409 0.732711 0.453605 0.628601 0.382629 0.524141 0.311298 0.419438 0.239709 0.314569 0.167934 0.209609
          0.0960641 0.104672 0.0241948 0 -0.817047 -1.35731 -0.805939 -1.30833 -0.774238 -1.23439 -0.728619 -1.14795
          -0.67561 -1.0553 -0.618785 -0.959436 -0.559823 -0.861718 -0.49952 -0.76283 -0.438304 -0.663159 -0.376438 -0.562946
          -0.314097 -0.462357 -0.251403 -0.361518 -0.188447 -0.260551 -0.125326 -0.159678 -0.0622371 -0.0594274 0 1.46812
          0.923025 1.41708 0.901171 1.33508 0.853141 1.24164 0.794077 1.14327 0.729762 1.0424 0.66267 0.940107
          0.593941 0.836913 0.524164 0.733105 0.45368 0.628865 0.382703 0.524311 0.311382 0.419526 0.239825 0.314568
          0.16813 0.209499 0.0964655 0.104432 0.0251543 0 -0.815943 -1.35425 -0.806075 -1.30674 -0.772292 -1.23305
          -0.726438 -1.14713 -0.67401 -1.05492 -0.61775 -0.959274 -0.559169 -0.861652 -0.499102 -0.762802 -0.438033 -0.663143
          -0.376264 -0.562928 -0.313993 -0.462324 -0.25136 -0.361448 -0.18847 -0.260396 -0.125431 -0.159324 -0.0624205 -0.058591
          0 1.45594 0.91359 1.41483 0.895614 1.33614 0.850371 1.2431 0.792682 1.14444 0.729033 1.04321
          0.662262 0.940642 0.593696 0.837256 0.524011 0.733324 0.453586 0.629 0.382655 0.524384 0.311381 0.41954
          0.23989 0.314511 0.168323 0.209353 0.0969563 0.104245 0.0264453 0 -0.814102 -1.35169 -0.80602 -1.30585
          -0.771751 -1.23265 -0.72542 -1.14677 -0.672965 -1.05462 -0.616908 -0.959055 -0.558554 -0.8615 -0.49867 -0.762696
          -0.437736 -0.663065 -0.376063 -0.562866 -0.313867 -0.462264 -0.251299 -0.361368 -0.18848 -0.260257 -0.125538 -0.159042
          -0.0626547 -0.0578658 0 1.45001 0.909059 1.413 0.892503 1.3363 0.848748 1.24368 0.791789 1.14493
          0.728484 1.04354 0.661896 0.940836 0.593444 0.837366 0.523838 0.733385 0.453471 0.629032 0.382586 0.524392
          0.311354 0.419522 0.239918 0.314455 0.168449 0.20925 0.0973107 0.104147 0.0274059 0 -0.813749 -1.35077
          -0.805922 -1.30567 -0.771734 -1.2328 -0.725276 -1.14689 -0.672735 -1.05466 -0.616679 -0.959061 -0.55837 -0.861498
          -0.498536 -0.762695 -0.437644 -0.663067 -0.376005 -0.562868 -0.313835 -0.462262 -0.251291 -0.361354 -0.1885 -0.260216
          -0.1256 -0.15893 -0.0627881 -0.0574711 0 1.44997 0.909025 1.41297 0.892486 1.33629 0.848753 1.2437
          0.791806 1.14495 0.728506 1.04356 0.66192 0.940861 0.593468 0.837391 0.523862 0.733409 0.453494 0.629055
          0.382609 0.524414 0.311375 0.419542 0.239936 0.314474 0.168465 0.209265 0.0973206 0.104156 0.0274075 0
          -0.814067 -1.35166 -0.805988 -1.30585 -0.771749 -1.23267 -0.725438 -1.14681 -0.672993 -1.05466 -0.616941 -0.959102
          -0.55859 -0.861548 -0.498708 -0.762744 -0.437774 -0.663113 -0.376102 -0.562912 -0.313904 -0.462306 -0.251335 -0.361406
          -0.188513 -0.260289 -0.125565 -0.159062 -0.062671 -0.0578703 0 1.45584 0.913493 1.41474 0.89557 1.33613
          0.850386 1.24313 0.792729 1.1445 0.729094 1.04328 0.662327 0.940711 0.593763 0.837324 0.524077 0.73339
          0.45365 0.629064 0.382716 0.524444 0.311437 0.419596 0.23994 0.314561 0.168364 0.209393 0.0969829 0.104268
          0.0264528 0 -0.815881 -1.35419 -0.806024 -1.30673 -0.77229 -1.23309 -0.726468 -1.1472 -0.674058 -1.05499
          -0.617808 -0.959357 -0.559233 -0.861738 -0.499169 -0.762888 -0.438101 -0.663227 -0.376332 -0.563009 -0.31406 -0.4624
          -0.251424 -0.361516 -0.188528 -0.260452 -0.125479 -0.159359 -0.0624496 -0.0585971 0 1.46795 0.922863 1.41695
          0.901108 1.33506 0.853166 1.2417 0.794148 1.14335 0.729853 1.0425 0.662769 0.940211 0.594042 0.837015
          0.524263 0.733205 0.453776 0.628961 0.382794 0.524401 0.311466 0.419609 0.2399 0.314643 0.168191 0.209559
          0.0965039 0.104467 0.0251626 0 -0.816972 -1.35723 -0.805875 -1.30832 -0.77423 -1.23443 -0.728654 -1.14803
          -0.675672 -1.05541 -0.618862 -0.959548 -0.559909 -0.861833 -0.499609 -0.762945 -0.438395 -0.663271 -0.376528 -0.563053
          -0.314185 -0.462456 -0.251487 -0.361607 -0.188524 -0.260624 -0.125389 -0.159725 -0.062276 -0.0594326 0 1.48858
          0.938771 1.41605 0.908266 1.33186 0.856121 1.23901 0.795214 1.14144 0.730179 1.04121 0.662829 0.939363
          0.594016 0.836455 0.524215 0.732834 0.453725 0.628718 0.382743 0.524252 0.311403 0.41954 0.239802 0.31466
          0.168009 0.209684 0.0961095 0.104716 0.0241933 0 -0.814485 -1.35905 -0.808828 -1.31117 -0.778146 -1.23596
          -0.730809 -1.14834 -0.676626 -1.05524 -0.619254 -0.959281 -0.560055 -0.861585 -0.49965 -0.762745 -0.438389 -0.66312
          -0.376503 -0.562946 -0.314148 -0.462391 -0.25144 -0.361593 -0.188462 -0.260695 -0.125312 -0.159972 -0.0622311 -0.0600746
          0 1.47382 0.972532 1.40215 0.915903 1.32569 0.857853 1.23592 0.79542 1.1397 0.729985 1.04014
          0.662554 0.938665 0.593757 0.835982 0.523998 0.732506 0.453549 0.628489 0.3826 0.524097 0.311282 0.419447
          0.239689 0.314631 0.167889 0.209735 0.0959475 0.104883 0.023868 0 -0.851294 -1.35258 -0.810854 -1.31216
          -0.77887 -1.23652 -0.731122 -1.14857 -0.676759 -1.05534 -0.619316 -0.959326 -0.560088 -0.861607 -0.499666 -0.762755
          -0.4384 -0.663128 -0.376511 -0.56295 -0.314152 -0.462392 -0.251443 -0.361595 -0.188465 -0.260694 -0.125315 -0.159954
          -0.0622742 -0.0598862 0
        </DataArray>
        <DataArray type="Float32" Name="X^H2O" NumberOfComponents="1" format="ascii">
          0.1 0.1 0.1 0.1 0.1 0.1 0.1 0.1 0.1 0.1 0.1 0.1
          0.1 0.1 0.1 0.1 0.1 0.1 0.1 0.1 0.1 0.1 0.1 0.1
          0.1 0.1 0.1 0.1 0.1 0.1 0.1 0.1 0.1 0.1 0.1 0.1
          0.1 0.1 0.1 0.1 0.1 0.1 0.1 0.1 0.1 0.1 0.1 0.1
          0.1 0.1 0.1 0.1 0.1 0.1 0.1 0.1 0.1 0.100001 0.1 0.100043
          0.1 0.102884 0.1 0.1 0.1 0.1 0.1 0.1 0.1 0.1 0.1 0.1
          0.1 0.1 0.1 0.1 0.1 0.1 0.1 0.1 0.1 0.1 0.1 0.1
          0.1 0.1 0.1 0.1 0.1 0.1 0.100001 0.100032 0.102012 0.1 0.1 0.1
          0.1 0.1 0.1 0.1 0.1 0.1 0.1 0.1 0.1 0.1 0.1 0.1
          0.1 0.1 0.1 0.1 0.1 0.1 0.1 0.1 0.1 0.1 0.1 0.1
          0.1 0.100001 0.100038 0.101546 0.1 0.1 0.1 0.1 0.1 0.1 0.1 0.1
          0.1 0.1 0.1 0.1 0.1 0.1 0.1 0.1 0.1 0.1 0.1 0.1
          0.1 0.1 0.1 0.1 0.1 0.1 0.1 0.1 0.100002 0.10004 0.101404 0.1
          0.1 0.1 0.1 0.1 0.1 0.1 0.1 0.1 0.1 0.1 0.1 0.1
          0.1 0.1 0.1 0.1 0.1 0.1 0.1 0.1 0.1 0.1 0.1 0.1
          0.1 0.1 0.1 0.100002 0.100046 0.101184 0.1 0.1 0.1 0.1 0.1 0.1
          0.1 0.1 0.1 0.1 0.1 0.1 0.1 0.1 0.1 0.1 0.1 0.1
          0.1 0.1 0.1 0.1 0.1 0.1 0.1 0.1 0.1 0.1 0.100003 0.100049
          0.101133 0.1 0.1 0.1 0.1 0.1 0.1 0.1 0.1 0.1 0.1 0.1
          0.1 0.1 0.1 0.1 0.1 0.1 0.1 0.1 0.1 0.1 0.1 0.1
          0.1 0.1 0.1 0.1 0.1 0.100004 0.100054 0.101025 0.1 0.1 0.1 0.1
          0.1 0.1 0.1 0.1 0.1 0.1 0.1 0.1 0.1 0.1 0.1 0.1
          0.1 0.1 0.1 0.1 0.1 0.1 0.1 0.1 0.1 0.1 0.1 0.1
          0.100004 0.100058 0.101002 0.1 0.1 0.1 0.1 0.1 0.1 0.1 0.1 0.1
          0.1 0.1 0.1 0.1 0.1 0.1 0.1 0.1 0.1 0.1 0.1 0.1
          0.1 0.1 0.1 0.1 0.1 0.1 0.1 0.100004 0.100062 0.100946 0.1 0.1
          0.1 0.1 0.1 0.1 0.1 0.1 0.1 0.1 0.1 0.1 0.1 0.1
          0.1 0.1 0.1 0.1 0.1 0.1 0.1 0.1 0.1 0.1 0.1 0.1
          0.1 0.1 0.100003 0.10006 0.100945 0.1 0.1 0.1 0.1 0.1 0.1 0.1
          0.1 0.1 0.1 0.1 0.1 0.1 0.1 0.1 0.1 0.1 0.1 0.1
          0.1 0.1 0.1 0.1 0.1 0.1 0.1 0.1 0.1 0.100003 0.100055 0.100934
          0.1 0.1 0.1 0.1 0.1 0.1 0.1 0.1 0.1 0.1 0.1 0.1
          0.1 0.1 0.1 0.1 0.1 0.1 0.1 0.1 0.1 0.1 0.1 0.1
          0.1 0.1 0.1 0.1 0.100002 0.100051 0.100992 0.1 0.1 0.1 0.1 0.1
          0.1 0.1 0.1 0.1 0.1 0.1 0.1 0.1 0.1 0.1 0.1 0.1
          0.1 0.1 0.1 0.1 0.1 0.1 0.1 0.1 0.1 0.1 0.1 0.100002
          0.100049 0.101018 0.1 0.1 0.1 0.1 0.1 0.1 0.1 0.1 0.1 0.1
          0.1 0.1 0.1 0.1 0.1 0.1 0.1 0.1 0.1 0.1 0.1 0.1
          0.1 0.1 0.1 0.1 0.1 0.1 0.100001 0.100044 0.101126 0.1 0.1 0.1
          0.1 0.1 0.1 0.1 0.1 0.1 0.1 0.1 0.1 0.1 0.1 0.1
          0.1 0.1 0.1 0.1 0.1 0.1 0.1 0.1 0.1 0.1 0.1 0.1
          0.1 0.100001 0.100043 0.101181 0.1 0.1 0.1 0.1 0.1 0.1 0.1 0.1
          0.1 0.1 0.1 0.1 0.1 0.1 0.1 0.1 0.1 0.1 0.1 0.1
          0.1 0.1 0.1 0.1 0.1 0.1 0.1 0.1 0.100001 0.100037 0.101398 0.1
          0.1 0.1 0.1 0.1 0.1 0.1 0.1 0.1 0.1 0.1 0.1 0.1
          0.1 0.1 0.1 0.1 0.1 0.1 0.1 0.1 0.1 0.1 0.1 0.1
          0.1 0.1 0.1 0.1 0.100034 0.101537 0.1 0.1 0.1 0.1 0.1 0.1
          0.1 0.1 0.1 0.1 0.1 0.1 0.1 0.1 0.1 0.1 0.1 0.1
          0.1 0.1 0.1 0.1 0.1 0.1 0.1 0.1 0.1 0.1 0.0999993 0.100026
          0.101997 0.1 0.1 0.1 0.1 0.1 0.1 0.1 0.1 0.1 0.1 0.1
          0.1 0.1 0.1 0.1 0.1 0.1 0.1 0.1 0.1 0.1 0.1 0.1
          0.1 0.1 0.1 0.1 0.1 0.1 0.0999808 0.102757 0.1 0.1 0.1 0.1
          0.1 0.1 0.1 0.1 0.1 0.1 0.1 0.1 0.1 0.1 0.1 0.1
          0.1 0.1 0.1 0.1 0.1 0.1 0.1 0.1 0.1 0.1 0.1 0.1
          0.1 0.1 0.1
        </DataArray>
        <DataArray type="Float32" Name="rho" NumberOfComponents="1" format="ascii">
          1.1059 1.1059 1.07 1.07014 1.1059 1.07028 1.1059 1.07041 1.1059 1.07056 1.1059 1.07069
          1.1059 1.07083 1.1059 1.07097 1.1059 1.0711 1.1059 1.07123 1.1059 1.07137 1.1059 1.07149
          1.1059 1.07162 1.1059 1.07174 1.1059 1.07187 1.1059 1.07199 1.10591 1.07211 1.1059 1.07222
          1.10591 1.07234 1.1059 1.07245 1.10591 1.07256 1.10591 1.07267 1.10591 1.07278 1.10591 1.07288
          1.10591 1.07299 1.10591 1.07309 1.10591 1.07319 1.10591 1.07329 1.10591 1.07338 1.10591 1.07344
          1.10591 1.06903 1.06998 1.06998 1.07 1.07001 1.07003 1.07004 1.07006 1.07007 1.07009 1.0701
          1.07012 1.07013 1.07015 1.07017 1.07019 1.07021 1.07023 1.07025 1.07027 1.07029 1.07031 1.07033
          1.07036 1.07038 1.07041 1.07043 1.07046 1.07048 1.07051 1.07051 1.06737 1.07 1.07 1.07
          1.07 1.07001 1.07 1.07001 1.07001 1.07001 1.07001 1.07002 1.07002 1.07002 1.07002 1.07003
          1.07003 1.07003 1.07003 1.07004 1.07004 1.07005 1.07005 1.07006 1.07006 1.07006 1.07007 1.07007
          1.07008 1.07008 1.07006 1.06766 1.06998 1.06997 1.06998 1.06997 1.06998 1.06997 1.06998 1.06998
          1.06998 1.06998 1.06998 1.06998 1.06999 1.06998 1.06999 1.06999 1.06999 1.06999 1.06999 1.06999
          1.06999 1.06999 1.07 1.07 1.07 1.07 1.07 1.07 1.07001 1.06998 1.0678 1.07
          1.07 1.07 1.07 1.07 1.07 1.07 1.07 1.07 1.06999 1.07 1.06999 1.07
          1.06999 1.07 1.06999 1.07 1.06999 1.07 1.06999 1.06999 1.06999 1.06999 1.06999 1.06999
          1.06999 1.06999 1.06999 1.06999 1.06995 1.06814 1.06998 1.06997 1.06998 1.06997 1.06998 1.06997
          1.06998 1.06997 1.06998 1.06998 1.06998 1.06998 1.06998 1.06998 1.06998 1.06998 1.06998 1.06998
          1.06998 1.06998 1.06998 1.06998 1.06998 1.06998 1.06999 1.06998 1.06999 1.06999 1.06999 1.06995
          1.06822 1.07 1.07 1.07 1.07 1.07 1.07 1.07 1.06999 1.07 1.06999 1.07
          1.06999 1.07 1.06999 1.07 1.06999 1.06999 1.06999 1.06999 1.06999 1.06999 1.06999 1.06999
          1.06999 1.06999 1.06999 1.06999 1.06999 1.06999 1.06994 1.0684 1.06998 1.06997 1.06998 1.06997
          1.06998 1.06997 1.06998 1.06997 1.06998 1.06998 1.06998 1.06998 1.06998 1.06998 1.06998 1.06998
          1.06998 1.06998 1.06998 1.06998 1.06998 1.06998 1.06998 1.06998 1.06998 1.06998 1.06999 1.06998
          1.06998 1.06994 1.06843 1.07 1.07 1.07 1.07 1.07 1.07 1.07 1.06999 1.07
          1.06999 1.07 1.06999 1.07 1.06999 1.07 1.06999 1.06999 1.06999 1.06999 1.06999 1.06999
          1.06999 1.06999 1.06999 1.06999 1.06999 1.06999 1.06999 1.06999 1.06994 1.06853 1.06998 1.06997
          1.06998 1.06997 1.06998 1.06997 1.06998 1.06997 1.06998 1.06998 1.06998 1.06998 1.06998 1.06998
          1.06998 1.06998 1.06998 1.06998 1.06998 1.06998 1.06998 1.06998 1.06998 1.06998 1.06998 1.06998
          1.06999 1.06998 1.06998 1.06994 1.06852 1.07 1.07 1.07 1.07 1.07 1.07 1.07
          1.06999 1.07 1.06999 1.07 1.06999 1.07 1.06999 1.07 1.06999 1.06999 1.06999 1.06999
          1.06999 1.06999 1.06999 1.06999 1.06999 1.06999 1.06999 1.06999 1.06999 1.06999 1.06994 1.06854
          1.06998 1.06997 1.06998 1.06997 1.06998 1.06997 1.06998 1.06997 1.06998 1.06998 1.06998 1.06998
          1.06998 1.06998 1.06998 1.06998 1.06998 1.06998 1.06998 1.06998 1.06998 1.06998 1.06998 1.06998
          1.06998 1.06998 1.06999 1.06998 1.06998 1.06994 1.06844 1.07 1.07 1.07 1.07 1.07
          1.07 1.07 1.06999 1.07 1.06999 1.07 1.06999 1.07 1.06999 1.07 1.06999 1.06999
          1.06999 1.06999 1.06999 1.06999 1.06999 1.06999 1.06999 1.06999 1.06999 1.06999 1.06999 1.06999
          1.06995 1.0684 1.06998 1.06997 1.06998 1.06997 1.06998 1.06997 1.06998 1.06997 1.06998 1.06998
          1.06998 1.06998 1.06998 1.06998 1.06998 1.06998 1.06998 1.06998 1.06998 1.06998 1.06998 1.06998
          1.06998 1.06998 1.06998 1.06998 1.06999 1.06998 1.06998 1.06995 1.06822 1.07 1.07 1.07
          1.07 1.07 1.07 1.07 1.06999 1.07 1.06999 1.07 1.06999 1.07 1.06999 1.07
          1.06999 1.06999 1.06999 1.06999 1.06999 1.06999 1.06999 1.06999 1.06999 1.06999 1.06999 1.06999
          1.06999 1.06999 1.06995 1.06814 1.06998 1.06997 1.06998 1.06997 1.06998 1.06997 1.06998 1.06997
          1.06998 1.06998 1.06998 1.06998 1.06998 1.06998 1.06998 1.06998 1.06998 1.06998 1.06998 1.06998
          1.06998 1.06998 1.06998 1.06998 1.06998 1.06998 1.06999 1.06998 1.06999 1.06996 1.06778 1.07
          1.07 1.07 1.07 1.07 1.07 1.07 1.06999 1.07 1.06999 1.07 1.06999 1.07
          1.06999 1.07 1.06999 1.06999 1.06999 1.06999 1.06999 1.06999 1.06999 1.06999 1.06999 1.06999
          1.06999 1.06999 1.06999 1.06999 1.06996 1.06757 1.06998 1.06997 1.06998 1.06997 1.06998 1.06997
          1.06998 1.06997 1.06998 1.06998 1.06998 1.06998 1.06998 1.06998 1.06998 1.06998 1.06998 1.06998
          1.06998 1.06998 1.06998 1.06998 1.06998 1.06998 1.06998 1.06998 1.06999 1.06998 1.06999 1.06996
          1.06682 1.07 1.07 1.07 1.07 1.07 1.07 1.07 1.06999 1.07 1.06999 1.07
          1.06999 1.07 1.06999 1.07 1.06999 1.06999 1.06999 1.06999 1.06999 1.06999 1.06999 1.06999
          1.06999 1.06999 1.06999 1.06999 1.06999 1.06999 1.07 1.06555 1.06998 1.06997 1.06998 1.06997
          1.06998 1.06997 1.06998 1.06997 1.06998 1.06998 1.06998 1.06998 1.06998 1.06998 1.06998 1.06998
          1.06998 1.06998 1.06998 1.06998 1.06998 1.06998 1.06998 1.06998 1.06998 1.06998 1.06999 1.06998
          1.06999 1.06999 1.06999
        </DataArray>
        <DataArray type="Float32" Name="mu" NumberOfComponents="1" format="ascii">
          1.68204e-05 1.68204e-05 1.72735e-05 1.72717e-05 1.68204e-05 1.72699e-05 1.68204e-05 1.72681e-05 1.68204e-05 1.72663e-05 1.68204e-05 1.72645e-05
          1.68204e-05 1.72627e-05 1.68204e-05 1.72609e-05 1.68204e-05 1.72592e-05 1.68204e-05 1.72575e-05 1.68204e-05 1.72558e-05 1.68204e-05 1.72541e-05
          1.68204e-05 1.72525e-05 1.68204e-05 1.72508e-05 1.68204e-05 1.72493e-05 1.68204e-05 1.72477e-05 1.68204e-05 1.72461e-05 1.68204e-05 1.72446e-05
          1.68204e-05 1.72431e-05 1.68204e-05 1.72417e-05 1.68204e-05 1.72402e-05 1.68204e-05 1.72388e-05 1.68204e-05 1.72374e-05 1.68204e-05 1.7236e-05
          1.68204e-05 1.72347e-05 1.68204e-05 1.72333e-05 1.68204e-05 1.7232e-05 1.68204e-05 1.72308e-05 1.68204e-05 1.72295e-05 1.68204e-05 1.72279e-05
          1.68204e-05 1.7226e-05 1.72735e-05 1.72734e-05 1.72733e-05 1.72731e-05 1.72729e-05 1.72727e-05 1.72725e-05 1.72723e-05 1.72721e-05 1.72719e-05
          1.72717e-05 1.72715e-05 1.72713e-05 1.7271e-05 1.72708e-05 1.72706e-05 1.72703e-05 1.72701e-05 1.72698e-05 1.72695e-05 1.72692e-05 1.72689e-05
          1.72687e-05 1.72683e-05 1.7268e-05 1.72677e-05 1.72674e-05 1.72671e-05 1.72668e-05 1.72661e-05 1.72657e-05 1.72735e-05 1.72735e-05 1.72735e-05
          1.72735e-05 1.72735e-05 1.72734e-05 1.72734e-05 1.72734e-05 1.72733e-05 1.72733e-05 1.72733e-05 1.72732e-05 1.72732e-05 1.72731e-05 1.72731e-05
          1.72731e-05 1.7273e-05 1.7273e-05 1.72729e-05 1.72729e-05 1.72728e-05 1.72728e-05 1.72727e-05 1.72726e-05 1.72726e-05 1.72725e-05 1.72724e-05
          1.72724e-05 1.72723e-05 1.72718e-05 1.72716e-05 1.72735e-05 1.72735e-05 1.72735e-05 1.72735e-05 1.72735e-05 1.72735e-05 1.72735e-05 1.72735e-05
          1.72735e-05 1.72735e-05 1.72735e-05 1.72735e-05 1.72735e-05 1.72735e-05 1.72735e-05 1.72734e-05 1.72734e-05 1.72734e-05 1.72734e-05 1.72734e-05
          1.72734e-05 1.72734e-05 1.72734e-05 1.72733e-05 1.72733e-05 1.72733e-05 1.72733e-05 1.72733e-05 1.72732e-05 1.72728e-05 1.72728e-05 1.72735e-05
          1.72735e-05 1.72735e-05 1.72735e-05 1.72735e-05 1.72735e-05 1.72735e-05 1.72735e-05 1.72735e-05 1.72735e-05 1.72735e-05 1.72735e-05 1.72735e-05
          1.72735e-05 1.72735e-05 1.72735e-05 1.72735e-05 1.72735e-05 1.72735e-05 1.72735e-05 1.72735e-05 1.72735e-05 1.72735e-05 1.72735e-05 1.72735e-05
          1.72735e-05 1.72735e-05 1.72735e-05 1.72734e-05 1.7273e-05 1.72728e-05 1.72735e-05 1.72735e-05 1.72735e-05 1.72735e-05 1.72735e-05 1.72735e-05
          1.72735e-05 1.72735e-05 1.72735e-05 1.72735e-05 1.72735e-05 1.72735e-05 1.72735e-05 1.72735e-05 1.72735e-05 1.72735e-05 1.72735e-05 1.72735e-05
          1.72735e-05 1.72735e-05 1.72735e-05 1.72735e-05 1.72735e-05 1.72735e-05 1.72735e-05 1.72735e-05 1.72735e-05 1.72735e-05 1.72735e-05 1.7273e-05
          1.7273e-05 1.72735e-05 1.72735e-05 1.72735e-05 1.72735e-05 1.72735e-05 1.72735e-05 1.72735e-05 1.72735e-05 1.72735e-05 1.72735e-05 1.72735e-05
          1.72735e-05 1.72735e-05 1.72735e-05 1.72735e-05 1.72735e-05 1.72735e-05 1.72735e-05 1.72735e-05 1.72735e-05 1.72735e-05 1.72735e-05 1.72735e-05
          1.72735e-05 1.72735e-05 1.72735e-05 1.72735e-05 1.72735e-05 1.72735e-05 1.7273e-05 1.72728e-05 1.72735e-05 1.72735e-05 1.72735e-05 1.72735e-05
          1.72735e-05 1.72735e-05 1.72735e-05 1.72735e-05 1.72735e-05 1.72735e-05 1.72735e-05 1.72735e-05 1.72735e-05 1.72735e-05 1.72735e-05 1.72735e-05
          1.72735e-05 1.72735e-05 1.72735e-05 1.72735e-05 1.72735e-05 1.72735e-05 1.72735e-05 1.72735e-05 1.72735e-05 1.72735e-05 1.72735e-05 1.72735e-05
          1.72735e-05 1.72729e-05 1.72729e-05 1.72735e-05 1.72735e-05 1.72735e-05 1.72735e-05 1.72735e-05 1.72735e-05 1.72735e-05 1.72735e-05 1.72735e-05
          1.72735e-05 1.72735e-05 1.72735e-05 1.72735e-05 1.72735e-05 1.72735e-05 1.72735e-05 1.72735e-05 1.72735e-05 1.72735e-05 1.72735e-05 1.72735e-05
          1.72735e-05 1.72735e-05 1.72735e-05 1.72735e-05 1.72735e-05 1.72735e-05 1.72735e-05 1.72735e-05 1.72729e-05 1.72728e-05 1.72735e-05 1.72735e-05
          1.72735e-05 1.72735e-05 1.72735e-05 1.72735e-05 1.72735e-05 1.72735e-05 1.72735e-05 1.72735e-05 1.72735e-05 1.72735e-05 1.72735e-05 1.72735e-05
          1.72735e-05 1.72735e-05 1.72735e-05 1.72735e-05 1.72735e-05 1.72735e-05 1.72735e-05 1.72735e-05 1.72735e-05 1.72735e-05 1.72735e-05 1.72735e-05
          1.72735e-05 1.72735e-05 1.72735e-05 1.72729e-05 1.72729e-05 1.72735e-05 1.72735e-05 1.72735e-05 1.72735e-05 1.72735e-05 1.72735e-05 1.72735e-05
          1.72735e-05 1.72735e-05 1.72735e-05 1.72735e-05 1.72735e-05 1.72735e-05 1.72735e-05 1.72735e-05 1.72735e-05 1.72735e-05 1.72735e-05 1.72735e-05
          1.72735e-05 1.72735e-05 1.72735e-05 1.72735e-05 1.72735e-05 1.72735e-05 1.72735e-05 1.72735e-05 1.72735e-05 1.72735e-05 1.7273e-05 1.72729e-05
          1.72735e-05 1.72735e-05 1.72735e-05 1.72735e-05 1.72735e-05 1.72735e-05 1.72735e-05 1.72735e-05 1.72735e-05 1.72735e-05 1.72735e-05 1.72735e-05
          1.72735e-05 1.72735e-05 1.72735e-05 1.72735e-05 1.72735e-05 1.72735e-05 1.72735e-05 1.72735e-05 1.72735e-05 1.72735e-05 1.72735e-05 1.72735e-05
          1.72735e-05 1.72735e-05 1.72735e-05 1.72735e-05 1.72735e-05 1.7273e-05 1.7273e-05 1.72735e-05 1.72735e-05 1.72735e-05 1.72735e-05 1.72735e-05
          1.72735e-05 1.72735e-05 1.72735e-05 1.72735e-05 1.72735e-05 1.72735e-05 1.72735e-05 1.72735e-05 1.72735e-05 1.72735e-05 1.72735e-05 1.72735e-05
          1.72735e-05 1.72735e-05 1.72735e-05 1.72735e-05 1.72735e-05 1.72735e-05 1.72735e-05 1.72735e-05 1.72735e-05 1.72735e-05 1.72735e-05 1.72735e-05
          1.7273e-05 1.72729e-05 1.72735e-05 1.72735e-05 1.72735e-05 1.72735e-05 1.72735e-05 1.72735e-05 1.72735e-05 1.72735e-05 1.72735e-05 1.72735e-05
          1.72735e-05 1.72735e-05 1.72735e-05 1.72735e-05 1.72735e-05 1.72735e-05 1.72735e-05 1.72735e-05 1.72735e-05 1.72735e-05 1.72735e-05 1.72735e-05
          1.72735e-05 1.72735e-05 1.72735e-05 1.72735e-05 1.72735e-05 1.72735e-05 1.72735e-05 1.72731e-05 1.72731e-05 1.72735e-05 1.72735e-05 1.72735e-05
          1.72735e-05 1.72735e-05 1.72735e-05 1.72735e-05 1.72735e-05 1.72735e-05 1.72735e-05 1.72735e-05 1.72735e-05 1.72735e-05 1.72735e-05 1.72735e-05
          1.72735e-05 1.72735e-05 1.72735e-05 1.72735e-05 1.72735e-05 1.72735e-05 1.72735e-05 1.72735e-05 1.72735e-05 1.72735e-05 1.72735e-05 1.72735e-05
          1.72735e-05 1.72735e-05 1.72731e-05 1.72729e-05 1.72735e-05 1.72735e-05 1.72735e-05 1.72735e-05 1.72735e-05 1.72735e-05 1.72735e-05 1.72735e-05
          1.72735e-05 1.72735e-05 1.72735e-05 1.72735e-05 1.72735e-05 1.72735e-05 1.72735e-05 1.72735e-05 1.72735e-05 1.72735e-05 1.72735e-05 1.72735e-05
          1.72735e-05 1.72735e-05 1.72735e-05 1.72735e-05 1.72735e-05 1.72735e-05 1.72735e-05 1.72735e-05 1.72735e-05 1.72732e-05 1.72731e-05 1.72735e-05
          1.72735e-05 1.72735e-05 1.72735e-05 1.72735e-05 1.72735e-05 1.72735e-05 1.72735e-05 1.72735e-05 1.72735e-05 1.72735e-05 1.72735e-05 1.72735e-05
          1.72735e-05 1.72735e-05 1.72735e-05 1.72735e-05 1.72735e-05 1.72735e-05 1.72735e-05 1.72735e-05 1.72735e-05 1.72735e-05 1.72735e-05 1.72735e-05
          1.72735e-05 1.72735e-05 1.72735e-05 1.72735e-05 1.72732e-05 1.7273e-05 1.72735e-05 1.72735e-05 1.72735e-05 1.72735e-05 1.72735e-05 1.72735e-05
          1.72735e-05 1.72735e-05 1.72735e-05 1.72735e-05 1.72735e-05 1.72735e-05 1.72735e-05 1.72735e-05 1.72735e-05 1.72735e-05 1.72735e-05 1.72735e-05
          1.72735e-05 1.72735e-05 1.72735e-05 1.72735e-05 1.72735e-05 1.72735e-05 1.72735e-05 1.72735e-05 1.72735e-05 1.72735e-05 1.72735e-05 1.72733e-05
          1.72732e-05 1.72735e-05 1.72735e-05 1.72735e-05 1.72735e-05 1.72735e-05 1.72735e-05 1.72735e-05 1.72735e-05 1.72735e-05 1.72735e-05 1.72735e-05
          1.72735e-05 1.72735e-05 1.72735e-05 1.72735e-05 1.72735e-05 1.72735e-05 1.72735e-05 1.72735e-05 1.72735e-05 1.72735e-05 1.72735e-05 1.72735e-05
          1.72735e-05 1.72735e-05 1.72735e-05 1.72735e-05 1.72735e-05 1.72735e-05 1.72737e-05 1.7274e-05 1.72735e-05 1.72735e-05 1.72735e-05 1.72735e-05
          1.72735e-05 1.72735e-05 1.72735e-05 1.72735e-05 1.72735e-05 1.72735e-05 1.72735e-05 1.72735e-05 1.72735e-05 1.72735e-05 1.72735e-05 1.72735e-05
          1.72735e-05 1.72735e-05 1.72735e-05 1.72735e-05 1.72735e-05 1.72735e-05 1.72735e-05 1.72735e-05 1.72735e-05 1.72735e-05 1.72735e-05 1.72735e-05
          1.72735e-05 1.72735e-05 1.72735e-05
        </DataArray>
        <DataArray type="Float32" Name="v" NumberOfComponents="3" format="ascii">
          0 0 0 0 0 0 0.5 0 0 0.468418 8.18926e-17 0
          0 0 0 0.432946 6.74122e-17 0 0 0 0 0.422666 7.11068e-17 0