<?xml version="1.0"?>
<VTKFile type="UnstructuredGrid" version="0.1" byte_order="LittleEndian">
  <UnstructuredGrid>
    <Piece NumberOfCells="600" NumberOfPoints="651">
      <PointData Scalars="P" Vectors="v">
        <DataArray type="Float32" Name="P" NumberOfComponents="1" format="ascii">
          100009 99994.9 100009 99995 100008 100008 99994.4 99994.5 100007 100007 99994.8 99994.8
          100007 100007 99995.2 99995.2 100006 100006 99995.5 99995.6 100005 100005 99995.9 99995.9
          100005 100005 99996.3 99996.3 100004 100004 99996.7 99996.8 100004 100004 99997.1 99997.1
          100003 100003 99997.5 99997.5 100003 100003 99997.9 99997.9 100002 100002 99998.3 99998.3
          100002 100002 99998.7 99998.7 100001 100001 99999.1 99999.1 100001 100001 99999.5 99999.5
          100000 100000 100010 99993.8 100008 99994.3 100007 99994.7 100007 99995.1 100006 99995.5
          100005 99996 100005 99996.4 100004 99996.7 100004 99997.1 100003 99997.5 100003 99997.9
          100002 99998.3 100002 99998.7 100001 99999.1 100001 99999.5 100000 100010 99994.3 100008
          99994.3 100007 99994.7 100007 99995.2 100006 99995.6 100005 99995.9 100005 99996.3 100004
          99996.8 100004 99997.1 100003 99997.5 100003 99997.9 100002 99998.3 100002 99998.7 100001
          99999.1 100001 99999.5 100000 100009 99993.3 100008 99994.3 100007 99994.7 100007 99995.1
          100006 99995.5 100005 99996 100005 99996.4 100004 99996.7 100004 99997.1 100003 99997.5
          100003 99997.9 100002 99998.3 100002 99998.7 100001 99999.1 100001 99999.5 100000 100011
          99994.4 100008 99994.3 100007 99994.8 100007 99995.2 100006 99995.6 100005 99995.9 100005
          99996.3 100004 99996.7 100004 99997.1 100003 99997.5 100003 99997.9 100002 99998.3 100002
          99998.7 100001 99999.1 100001 99999.5 100000 100007 99993.6 100008 99994.5 100007 99994.8
          100007 99995.1 100006 99995.5 100005 99996 100005 99996.4 100004 99996.7 100004 99997.1
          100003 99997.5 100003 99997.9 100002 99998.3 100002 99998.6 100001 99999 100001 99999.5
          100000 100008 99994.5 100008 99994.5 100007 99994.8 100007 99995.2 100006 99995.6 100005
          99995.9 100005 99996.3 100004 99996.8 100004 99997.2 100003 99997.5 100003 99997.9 100002
          99998.3 100002 99998.7 100001 99999.1 100001 99999.5 100000 100008 99993.9 100008 99994.5
          100007 99994.8 100007 99995.2 100006 99995.6 100005 99996 100005 99996.4 100004 99996.7
          100004 99997.1 100003 99997.5 100003 99997.9 100002 99998.2 100002 99998.6 100001 99999
          100001 99999.4 100000 100008 99994.3 100008 99994.5 100007 99994.9 100007 99995.2 100006
          99995.6 100005 99995.9 100005 99996.3 100004 99996.7 100004 99997.1 100003 99997.5 100003
          99997.9 100002 99998.3 100002 99998.7 100001 99999 100001 99999.4 100000 100008 99994.1
          100008 99994.5 100007 99994.8 100007 99995.2 100006 99995.6 100005 99996 100005 99996.4
          100004 99996.7 100004 99997.1 100003 99997.5 100003 99997.9 100002 99998.2 100002 99998.6
          100001 99999 100001 99999.4 100000 100008 99993.9 100008 99994.5 100007 99994.9 100007
          99995.2 100006 99995.6 100005 99995.9 100005 99996.3 100004 99996.7 100004 99997.1 100003
          99997.5 100003 99997.9 100002 99998.3 100002 99998.7 100001 99999 100001 99999.4 100000
          100008 99994.4 100008 99994.4 100007 99994.7 100007 99995.1 100006 99995.5 100005 99996
          100005 99996.4 100004 99996.7 100004 99997.1 100003 99997.5 100003 99997.9 100002 99998.2
          100002 99998.6 100001 99999 100001 99999.4 100000 100007 99993.5 100008 99994.5 100007
          99994.8 100007 99995.2 100006 99995.5 100005 99995.9 100005 99996.3 100004 99996.7 100004
          99997.1 100003 99997.5 100003 99997.8 100002 99998.3 100002 99998.7 100001 99999.1 100001
          99999.5 100000 100011 99994.2 100008 99994.3 100007 99994.7 100007 99995.1 100006 99995.5
          100005 99996 100005 99996.4 100004 99996.7 100004 99997.1 100003 99997.5 100003 99997.9
          100002 99998.2 100002 99998.6 100001 99999 100001 99999.5 100000 100009 99993.3 100008
          99994.3 100008 99994.8 100007 99995.1 100006 99995.5 100005 99995.9 100005 99996.3 100004
          99996.7 100004 99997.1 100003 99997.5 100003 99997.9 100002 99998.3 100002 99998.7 100001
          99999.1 100001 99999.5 100000 100010 99993.9 100008 99994.2 100007 99994.7 100007 99995.1
          100006 99995.5 100005 99995.9 100005 99996.3 100004 99996.7 100004 99997.1 100003 99997.5
          100003 99997.9 100002 99998.3 100002 99998.7 100001 99999.1 100001 99999.5 100000 100009
          99993.6 100008 99994.3 100007 99994.7 100007 99995.1 100006 99995.5 100005 99995.9 100005
          99996.3 100004 99996.7 100004 99997.1 100003 99997.5 100003 99997.9 100002 99998.3 100002
          99998.7 100001 99999.1 100001 99999.5 100000 100010 99993.9 100008 99994.3 100007 99994.7
          100007 99995.1 100006 99995.5 100005 99995.9 100005 99996.3 100004 99996.7 100004 99997.1
          100003 99997.5 100003 99997.9 100002 99998.3 100002 99998.7 100001 99999.1 100001 99999.5
          100000 100008 99994.5 100008 99994.5 100007 99994.8 100007 99995.1 100006 99995.5 100005
          99995.9 100005 99996.3 100004 99996.7 100004 99997.1 100003 99997.5 100003 99997.9 100002
          99998.3 100002 99998.7 100001 99999.1 100001 99999.5 100000 100008 99994.5 100008 99994.5
          100007 99994.7 100007 99995.1 100006 99995.5 100005 99995.9 100005 99996.3 100004 99996.7
          100004 99997.1 100003 99997.5 100003 99997.9 100002 99998.3 100002 99998.7 100001 99999.1
          100001 99999.5 100000
        </DataArray>
        <DataArray type="Float32" Name="delP" NumberOfComponents="1" format="ascii">
          8.79622 -5.06012 8.86512 -4.99122 7.75074 7.78489 -5.55117 -5.52459 7.07105 7.07906 -5.24054 -5.23335
          6.52358 6.52757 -4.837 -4.83146 5.94043 5.94453 -4.45161 -4.44738 5.35662 5.3581 -4.06202 -4.06177
          4.81165 4.8112 -3.65726 -3.65807 4.27661 4.27683 -3.25413 -3.25277 3.72591 3.7276 -2.87192 -2.8696
          3.17336 3.17509 -2.49457 -2.49345 2.63467 2.63523 -2.10266 -2.10234 2.10567 2.10591 -1.70496 -1.70398
          1.57359 1.57431 -1.31461 -1.31325 1.04037 1.04095 -0.924493 -0.923632 0.516425 0.516822 -0.529629 -0.528698
          0 0 9.98494 -6.17563 8.21135 -5.67691 7.23915 -5.25609 6.56531 -4.85301 5.95563 -4.45785
          5.38258 -4.04578 4.827 -3.64087 4.27809 -3.25749 3.726 -2.87775 3.17642 -2.48872 2.64094 -2.09726
          2.11133 -1.71019 1.57917 -1.32201 1.0493 -0.927833 0.523413 -0.533118 0 10.3005 -5.73433 8.26085
          -5.69322 7.24052 -5.26996 6.59488 -4.82743 5.98502 -4.4327 5.37651 -4.07269 4.81479 -3.67797 4.2835
          -3.25268 3.74062 -2.86091 3.19156 -2.49479 2.64416 -2.10854 2.11022 -1.70249 1.58107 -1.30786 1.04577
          -0.922082 0.51903 -0.526546 0 9.1785 -6.67197 8.25755 -5.6964 7.35716 -5.25664 6.60739 -4.87169
          5.97948 -4.47167 5.42763 -4.02363 4.86052 -3.61548 4.29254 -3.26703 3.73123 -2.89483 3.18359 -2.48556
          2.65716 -2.09227 2.12827 -1.72342 1.59276 -1.34014 1.06636 -0.936793 0.534778 -0.534697 0 10.7048
          -5.64328 8.04525 -5.69258 7.22318 -5.24865 6.6118 -4.803 6.00767 -4.41767 5.387 -4.08933 4.81903
          -3.71017 4.29581 -3.25465 3.75703 -2.85205 3.21448 -2.50479 2.65761 -2.12482 2.11757 -1.70338 1.5926
          -1.30267 1.05292 -0.9248 0.522445 -0.528193 0 6.7669 -6.44197 7.91169 -5.55025 7.311 -5.20002
          6.61412 -4.85026 5.99115 -4.4572 5.42634 -4.00655 4.87078 -3.59836 4.30168 -3.28195 3.73681 -2.9173
          3.18834 -2.48467 2.67346 -2.0891 2.14963 -1.74332 1.61011 -1.36708 1.08782 -0.951582 0.5506 -0.544537
          0 8.39157 -5.49989 7.89861 -5.53226 7.17749 -5.19977 6.60922 -4.79318 6.0188 -4.41719 5.41155
          -4.07695 4.82468 -3.69985 4.27936 -3.25036 3.75739 -2.84467 3.23662 -2.5205 2.67033 -2.1441 2.12192
          -1.70269 1.60413 -1.29692 1.06065 -0.93378 0.528934 -0.540642 0 7.62293 -6.141 7.62597 -5.51898
          7.19139 -5.17935 6.60335 -4.83433 6.00255 -4.44834 5.43201 -4.01585 4.88021 -3.60956 4.31623 -3.2702
          3.74074 -2.90913 3.18379 -2.48797 2.67828 -2.08921 2.17554 -1.76773 1.62941 -1.39796 1.11094 -0.966378
          0.569434 -0.563089 0 8.09525 -5.74457 7.74208 -5.47005 7.20954 -5.14533 6.62561 -4.78597 6.02941
          -4.41897 5.42585 -4.06627 4.83082 -3.68865 4.27516 -3.25904 3.75598 -2.85513 3.23481 -2.50469 2.67064
          -2.13167 2.11232 -1.69501 1.60096 -1.28664 1.07165 -0.949335 0.541939 -0.562853 0 7.94325 -5.88489
          7.5824 -5.52374 7.14772 -5.19363 6.60234 -4.83514 6.01578 -4.44891 5.44192 -4.02682 4.88583 -3.61582
          4.31944 -3.25813 3.74689 -2.89945 3.19299 -2.49674 2.68025 -2.09376 2.17152 -1.75985 1.63254 -1.39552
          1.11136 -0.959696 0.574578 -0.569943 0 7.69037 -6.05647 7.76496 -5.47587 7.26171 -5.13432 6.65017
          -4.79352 6.04036 -4.42996 5.43247 -4.0677 4.83347 -3.68687 4.27672 -3.26228 3.75771 -2.8574 3.23492
          -2.50339 2.67335 -2.13211 2.11555 -1.69565 1.60135 -1.28653 1.06838 -0.9506 0.543636 -0.560304 0
          8.23855 -5.63401 7.7237 -5.5887 7.14867 -5.25793 6.61182 -4.85619 6.0218 -4.45476 5.44763 -4.03451
          4.89493 -3.6339 4.32663 -3.28195 3.7507 -2.9185 3.19492 -2.49114 2.67757 -2.08777 2.16756 -1.76911
          1.63411 -1.4029 1.11904 -0.967175 0.567463 -0.558947 0 6.71436 -6.46022 8.05649 -5.54859 7.40002
          -5.17279 6.69074 -4.82815 6.05161 -4.46122 5.43248 -4.0871 4.83484 -3.693 4.28719 -3.25407 3.75818
          -2.84821 3.22623 -2.52155 2.67812 -2.15271 2.14071 -1.70887 1.60719 -1.29876 1.05944 -0.933298 0.530688
          -0.538399 0 10.5058 -5.77641 7.86209 -5.7407 7.23857 -5.31353 6.64642 -4.88248 6.03089 -4.46213
          5.45271 -4.03914 4.89817 -3.65042 4.32027 -3.30253 3.75607 -2.93399 3.2158 -2.49776 2.67986 -2.095
          2.14836 -1.7462 1.61491 -1.37037 1.09386 -0.952446 0.550939 -0.542322 0 9.00825 -6.72812 8.33358
          -5.73044 7.50173 -5.24292 6.72266 -4.86089 6.0605 -4.49686 5.43104 -4.10819 4.83893 -3.70046 4.30761
          -3.26483 3.76051 -2.8624 3.213 -2.51046 2.66645 -2.13206 2.13122 -1.70954 1.59754 -1.30577 1.05415
          -0.925426 0.52437 -0.527281 0 9.8391 -6.11022 8.24217 -5.79738 7.36513 -5.33953 6.67065 -4.91356
          6.0306 -4.48222 5.45065 -4.06244 4.88678 -3.6621 4.31299 -3.2928 3.74996 -2.9126 3.20386 -2.49873
          2.66647 -2.10013 2.13202 -1.7282 1.59813 -1.34369 1.07124 -0.938218 0.536202 -0.533867 0 9.46846
          -6.41058 8.36018 -5.72026 7.48276 -5.27647 6.71264 -4.89138 6.04478 -4.50805 5.42389 -4.10603 4.84445
          -3.69074 4.30071 -3.27107 3.74958 -2.8756 3.19746 -2.50356 2.65427 -2.11604 2.121 -1.70892 1.5869
          -1.31171 1.04882 -0.92343 0.521187 -0.526319 0 10.0507 -6.09304 8.26441 -5.68506 7.36325 -5.30819
          6.64909 -4.91641 6.01028 -4.50436 5.42256 -4.0873 4.85855 -3.67633 4.29942 -3.28278 3.74188 -2.89539
          3.19114 -2.50033 2.65188 -2.10515 2.11902 -1.71604 1.58533 -1.32588 1.0538 -0.929412 0.525583 -0.532897
          0 8.20217 -5.50941 7.91482 -5.49838 7.31982 -5.25254 6.63194 -4.90685 5.99923 -4.51516 5.40777
          -4.10162 4.84464 -3.68359 4.29617 -3.27605 3.74 -2.88593 3.18587 -2.50287 2.64658 -2.10968 2.11565
          -1.71036 1.5807 -1.31714 1.0451 -0.92495 0.51929 -0.528549 0 8.18608 -5.5255 7.91753 -5.51069
          7.30966 -5.2652 6.62328 -4.91442 5.99446 -4.51822 5.40642 -4.10202 4.84481 -3.68363 4.29563 -3.27759
          3.73853 -2.88805 3.18459 -2.50379 2.64614 -2.10994 2.11535 -1.71129 1.58005 -1.31839 1.04464 -0.925717
          0.518958 -0.529374 0
        </DataArray>
        <DataArray type="Float32" Name="X^H2O" NumberOfComponents="1" format="ascii">
          0 0 0 8.15422e-07 0 5.92586e-06 0 2.41702e-05 0 6.37626e-05 0 0.000129648
          0 0.000244777 0 0.000432943 0 0.000722502 0 0.00110193 0 0.00158995 0 0.00215845
          0 0.00284029 0 0.00359027 0 0.00445001 0 0.00534641 0 0.0063408 0 0.00734624
          0 0.00844715 0 0.00954308 0 0.0107293 0 0.0118805 0 0.0131095 0 0.0142679
          0 0.0155037 0 0.0166554 0 0.0178966 0 0.0190455 0 0.0202805 0 0.0214017
          0 0.0226492 0 4.32841e-06 3.1763e-05 0.000114795 0.000248966 0.000414366 0.000719738 0.00124035 0.00195408 0.00278112
          0.00370781 0.00472823 0.00587424 0.00710849 0.00842902 0.00978512 0.0111915 0.0126071 0.014064 0.0155175 0.0169965 0.0184573
          0.0199281 0.0213675 0.0228116 0.0242199 0.0256328 0.0270085 0.0283837 0.0297158 0.0309334 0 5.24262e-05 0.000288979
          0.000836904 0.0012845 0.00138541 0.00245955 0.00418137 0.00589229 0.00734333 0.00873847 0.0103739 0.0121763 0.0140593 0.0159002
          0.0176656 0.0193927 0.0210945 0.022772 0.0244265 0.0260643 0.027663 0.0292465 0.0307756 0.0322798 0.0337378 0.0351781
          0.0365891 0.0379815 0.0393411 0.0405716 0 0.000456651 0.00131777 0.00687607 0.0128654 0.0187569 0.022147 0.0230735
          0.0221666 0.0202837 0.0212804 0.0237105 0.026194 0.0282844 0.0297516 0.0313751 0.0330058 0.0347366 0.0363821 0.037934
          0.0393677 0.0407946 0.0421525 0.0435302 0.0448754 0.0462139 0.0475225 0.0487905 0.0500346 0.051263 0.0525016 0
          0.0559057 0.0740097 0.0752654 0.0729766 0.0708696 0.069713 0.0699537 0.0712419 0.0734774 0.0727068 0.0694155 0.0651701
          0.0593996 0.0567069 0.0563056 0.0566269 0.0572778 0.0572176 0.0575457 0.0580559 0.058902 0.0598145 0.0607076 0.0615147
          0.0623488 0.0631534 0.064063 0.0649438 0.0659121 0.0670994 0.2 0.136994 0.112149 0.106739 0.1082 0.110287
          0.111346 0.111282 0.110941 0.110153 0.108794 0.108052 0.107634 0.109101 0.108419 0.104874 0.100447 0.0942154
          0.0890121 0.0866468 0.0852738 0.0847736 0.0835238 0.0829914 0.0826124 0.0827696 0.0829151 0.0830892 0.0832394 0.0835627
          0.0846472 0.2 0.194528 0.191021 0.182146 0.170981 0.161177 0.15429 0.149522 0.146564 0.144529 0.14352
          0.142389 0.141498 0.140219 0.138065 0.136181 0.134346 0.134066 0.134264 0.131447 0.127775 0.122078 0.116924
          0.11358 0.111207 0.109361 0.10717 0.106005 0.104941 0.104554 0.105431 0.2 0.199419 0.197443 0.193635
          0.188248 0.183413 0.179409 0.175935 0.172748 0.169735 0.166817 0.16439 0.162587 0.161324 0.160981 0.160586
          0.160209 0.159523 0.157961 0.156015 0.153984 0.15283 0.152744 0.15023 0.147177 0.142227 0.138142 0.134421
          0.131253 0.12881 0.129189 0.2 0.199833 0.199283 0.198558 0.198108 0.196895 0.194683 0.192258 0.189577
          0.187173 0.184834 0.182705 0.18044 0.178278 0.175887 0.173771 0.171982 0.170448 0.169529 0.169 0.168454
          0.167976 0.166771 0.165439 0.163815 0.163175 0.162466 0.160312 0.157801 0.153864 0.153598 0.2 0.199699
          0.199018 0.198355 0.198025 0.197421 0.195883 0.193954 0.19148 0.188928 0.186217 0.183653 0.181324 0.179443
          0.177874 0.177238 0.176292 0.176115 0.17476 0.172867 0.1712 0.169534 0.168895 0.168532 0.167903 0.167388
          0.166371 0.165846 0.16517 0.16275 0.163143 0.2 0.199009 0.196612 0.19307 0.188179 0.183866 0.179731
          0.176402 0.173228 0.170898 0.168821 0.167324 0.165423 0.163361 0.160628 0.157636 0.155243 0.152912 0.152083
          0.15234 0.152729 0.153466 0.152018 0.150642 0.14916 0.148804 0.14721 0.143499 0.139741 0.13642 0.136424
          0.2 0.191302 0.187337 0.179992 0.170419 0.160776 0.153921 0.148868 0.145309 0.142256 0.139832 0.137695
          0.136458 0.135763 0.136126 0.136345 0.136654 0.136317 0.134634 0.132828 0.13071 0.130176 0.129266 0.125885
          0.122342 0.116954 0.113686 0.11102 0.108695 0.10714 0.10769 0.2 0.133877 0.112526 0.109005 0.110757
          0.113065 0.113796 0.113047 0.11217 0.111243 0.110695 0.110216 0.109861 0.108982 0.107339 0.106162 0.104989
          0.105605 0.104943 0.10161 0.0978768 0.0919739 0.0884822 0.0866055 0.0853927 0.0844674 0.083147 0.0828095 0.0824589
          0.0826771 0.0836237 0 0.0625505 0.0796601 0.0806388 0.0773903 0.0739185 0.0720596 0.0716094 0.0718144 0.0721246
          0.0723908 0.0731118 0.07453 0.0755761 0.0744817 0.0712039 0.0674803 0.0622814 0.0597686 0.059273 0.0592987 0.0596392
          0.0592671 0.0595353 0.0598332 0.0605347 0.0611695 0.0617873 0.0623872 0.0631081 0.0641716 0 0.00294372 0.00598908
          0.0115855 0.0177867 0.0240661 0.0288589 0.0330895 0.0366692 0.0380513 0.037815 0.0360206 0.0332671 0.0310926 0.0312635
          0.0326557 0.0340084 0.035171 0.0357695 0.036699 0.0376934 0.0388925 0.0400754 0.0411973 0.0422618 0.0433277 0.0443622
          0.0454734 0.0465452 0.0476664 0.0487416 0 0.000376148 0.00131105 0.00266981 0.0041648 0.00548478 0.00631268 0.00636646
          0.00596648 0.00704173 0.00887912 0.0110461 0.0127745 0.014199 0.0154456 0.0168745 0.0183565 0.0198827 0.0213398 0.0227276
          0.0240696 0.0254071 0.0267067 0.0280219 0.0293113 0.0305968 0.0318652 0.0331027 0.0343301 0.0355343 0.0365791 0
          1.3718e-05 7.97412e-05 0.000184295 0.000366649 0.000671929 0.00109399 0.00156646 0.00200058 0.00255273 0.00331454 0.00429692 0.00540416
          0.00655147 0.00770609 0.00887105 0.0100717 0.0112948 0.0125365 0.0137871 0.0150484 0.0163042 0.0175715 0.0188164 0.0200653
          0.0212929 0.0225243 0.023745 0.0249646 0.0261582 0.0271306 0 2.16219e-07 2.77918e-06 1.65141e-05 5.3347e-05 0.000131939
          0.000266564 0.000456144 0.000693741 0.000985169 0.00136063 0.00183315 0.00241309 0.00307272 0.00381067 0.00459889 0.00545121 0.00634139
          0.00728924 0.0082615 0.00927846 0.0103067 0.0113671 0.012428 0.0135149 0.0145955 0.0156995 0.0167922 0.0179021 0.0189864
          0.0198911 0 6.20862e-08 6.45271e-07 3.62368e-06 1.30041e-05 3.51035e-05 7.88338e-05 0.000148821 0.000252416 0.00038898 0.000574099
          0.000806684 0.00110855 0.00146357 0.00189393 0.0023669 0.00291514 0.00349388 0.00414926 0.00482455 0.00557366 0.00632471 0.00714343
          0.00794191 0.00880857 0.00964205 0.0105499 0.0114147 0.0123506 0.0132224 0.0140935 0 0 0 0
          0 0 0 0 0 0 0 0 0 0 0 0
          0 0 0 0 0 0 0 0 0 0 0 0
          0 0 0
        </DataArray>
        <DataArray type="Float32" Name="rho" NumberOfComponents="1" format="ascii">
          1.23023 1.23006 1.23023 1.23006 1.23021 1.23021 1.23005 1.23003 1.23021 1.23016 1.23006 1.22996
          1.2302 1.23002 1.23006 1.22974 1.23019 1.22965 1.23006 1.22924 1.23019 1.229 1.23007 1.22846
          1.23018 1.22806 1.23007 1.2274 1.23017 1.22686 1.23008 1.2261 1.23017 1.22545 1.23008 1.22463
          1.23016 1.22389 1.23009 1.22301 1.23015 1.2222 1.23009 1.2213 1.23015 1.22045 1.2301 1.21955
          1.23014 1.21869 1.2301 1.21781 1.23013 1.21693 1.23011 1.21607 1.23013 1.21519 1.23011 1.21436
          1.23012 1.21346 1.23024 1.23004 1.2302 1.22996 1.23002 1.22975 1.22966 1.22913 1.22873 1.22799
          1.22742 1.22655 1.22581 1.22479 1.22391 1.22282 1.22187 1.22075 1.21976 1.21863 1.21761 1.21649
          1.21547 1.21437 1.21337 1.21231 1.21132 1.2103 1.20933 1.20836 1.20749 1.23025 1.23001 1.23001
          1.22942 1.22925 1.22902 1.22837 1.22695 1.22581 1.22461 1.2237 1.22238 1.22116 1.21968 1.21843
          1.21705 1.21588 1.21456 1.21341 1.21215 1.21103 1.20982 1.20873 1.20758 1.20654 1.20546 1.20446
          1.20343 1.20246 1.20148 1.20061 1.23023 1.2297 1.22924 1.22494 1.22069 1.21623 1.21391 1.2131
          1.21389 1.21513 1.21452 1.21265 1.21096 1.20935 1.20839 1.20713 1.20605 1.20473 1.20363 1.20245
          1.2015 1.20043 1.19951 1.19849 1.19758 1.1966 1.19571 1.19479 1.19394 1.19306 1.1922 1.23025
          1.18976 1.17744 1.17642 1.17813 1.17943 1.18036 1.18006 1.17931 1.17765 1.1783 1.18044 1.18346
          1.18735 1.18932 1.18951 1.18937 1.18884 1.18895 1.18866 1.18836 1.18772 1.18713 1.18647 1.18595
          1.18534 1.18481 1.18416 1.18357 1.18289 1.18208 1.09732 1.13581 1.15198 1.15536 1.15455 1.15304
          1.15249 1.1524 1.15274 1.15314 1.15414 1.15452 1.1549 1.15384 1.15438 1.15662 1.15962 1.16368
          1.16723 1.16875 1.16974 1.17002 1.17091 1.17123 1.17152 1.17138 1.17131 1.17117 1.17109 1.17085
          1.17013 1.09734 1.10044 1.10268 1.10786 1.11479 1.12068 1.12508 1.12793 1.12991 1.13107 1.13182
          1.13242 1.13309 1.1338 1.13526 1.13637 1.13761 1.13772 1.13766 1.13939 1.1418 1.14541 1.1488
          1.15093 1.15252 1.15369 1.15516 1.1559 1.15662 1.15686 1.15629 1.09733 1.09752 1.09885 1.10097
          1.10433 1.1071 1.10965 1.11164 1.1137 1.11542 1.11732 1.11871 1.11992 1.12061 1.12091 1.12107
          1.12138 1.12173 1.12276 1.12391 1.12523 1.1259 1.126 1.12752 1.12948 1.13256 1.13517 1.13751
          1.13955 1.1411 1.14086 1.09733 1.09728 1.09776 1.09804 1.09845 1.09903 1.10048 1.1018 1.10352
          1.10485 1.10636 1.10754 1.10901 1.11023 1.11177 1.11297 1.11414 1.115 1.11563 1.11589 1.11629
          1.11653 1.11731 1.11809 1.11913 1.11949 1.11995 1.12126 1.12283 1.12527 1.12544 1.09733 1.09736
          1.09791 1.09816 1.0985 1.09872 1.09976 1.10079 1.10238 1.1038 1.10553 1.10697 1.10848 1.10952
          1.11056 1.11086 1.11151 1.11155 1.11244 1.11353 1.11461 1.11557 1.11601 1.11619 1.11661 1.1169
          1.11755 1.11785 1.11828 1.11976 1.11952 1.09733 1.09777 1.09934 1.10131 1.10437 1.10683 1.10946
          1.11135 1.1134 1.11471 1.11609 1.11691 1.11817 1.11935 1.12112 1.12289 1.12446 1.12584 1.12642
          1.1262 1.12601 1.1255 1.12645 1.12727 1.12823 1.12842 1.12945 1.13176 1.13415 1.13624 1.13625
          1.09734 1.10236 1.10488 1.10917 1.11513 1.12093 1.12531 1.12834 1.1307 1.1325 1.13415 1.1354
          1.13628 1.13663 1.13649 1.13626 1.13614 1.13628 1.13742 1.13851 1.13992 1.14021 1.14084 1.14296
          1.14529 1.14874 1.15089 1.15261 1.15415 1.15516 1.1548 1.09732 1.1378 1.15173 1.15388 1.15288
          1.15123 1.15089 1.15124 1.15194 1.15243 1.1529 1.1531 1.15344 1.15391 1.15508 1.15577 1.15662
          1.15614 1.15665 1.15878 1.16131 1.16519 1.16758 1.16879 1.16965 1.17024 1.17115 1.17136 1.17161
          1.17145 1.17082 1.23025 1.18515 1.17359 1.17277 1.17513 1.17734 1.17875 1.17893 1.17891 1.17858
          1.17851 1.17791 1.17705 1.17623 1.17707 1.17922 1.18186 1.18537 1.18718 1.18745 1.1875 1.18721
          1.18751 1.18728 1.18711 1.18659 1.18618 1.18573 1.18533 1.18482 1.18409 1.23023 1.22784 1.22577
          1.22147 1.21709 1.21238 1.20906 1.20588 1.20346 1.20235 1.20263 1.2038 1.20587 1.20733 1.2073
          1.20621 1.20533 1.20442 1.20407 1.20333 1.20269 1.20178 1.20099 1.20015 1.19943 1.19864 1.19794
          1.19713 1.19639 1.19559 1.19484 1.23024 1.22976 1.22924 1.22806 1.22711 1.22597 1.22551 1.22533
          1.22576 1.22483 1.2236 1.22189 1.22073 1.21958 1.21876 1.21763 1.21663 1.21544 1.21445 1.21338
          1.21247 1.21144 1.21056 1.20956 1.20867 1.20771 1.20683 1.20592 1.20506 1.20419 1.20345 1.23024
          1.23003 1.23016 1.22991 1.22994 1.22955 1.22939 1.22889 1.2287 1.22816 1.22772 1.22687 1.22616
          1.2252 1.22445 1.2235 1.2227 1.22172 1.22088 1.21989 1.21903 1.21806 1.21718 1.21623 1.21536
          1.21443 1.21357 1.21266 1.21179 1.21092 1.21022 1.23024 1.23004 1.23022 1.23004 1.23017 1.22996
          1.23 1.22972 1.22968 1.22933 1.22917 1.2287 1.22838 1.22778 1.22733 1.22665 1.22611 1.22537
          1.22474 1.22396 1.22327 1.22245 1.22173 1.2209 1.22014 1.21932 1.21854 1.21771 1.21692 1.21612
          1.21547 1.23022 1.23005 1.23022 1.23005 1.2302 1.23003 1.23014 1.22995 1.23 1.22977 1.22976
          1.22947 1.22935 1.22898 1.22876 1.22831 1.22799 1.22748 1.22707 1.2265 1.22601 1.22539 1.22484
          1.2242 1.2236 1.22295 1.22231 1.22165 1.22098 1.22033 1.2197 1.23022 1.23005 1.23022 1.23005
          1.23021 1.23005 1.2302 1.23006 1.23019 1.23006 1.23019 1.23007 1.23018 1.23007 1.23017 1.23008
          1.23017 1.23008 1.23016 1.23009 1.23015 1.23009 1.23015 1.2301 1.23014 1.2301 1.23013 1.23011
          1.23013 1.23011 1.23012
        </DataArray>
        <DataArray type="Float32" Name="mu" NumberOfComponents="1" format="ascii">
          1.75183e-05 1.75183e-05 1.75183e-05 1.75183e-05 1.75183e-05 1.75182e-05 1.75183e-05 1.75179e-05 1.75183e-05 1.75174e-05 1.75183e-05 1.75164e-05
          1.75183e-05 1.75148e-05 1.75183e-05 1.75121e-05 1.75183e-05 1.7508e-05 1.75183e-05 1.75025e-05 1.75183e-05 1.74956e-05 1.75183e-05 1.74875e-05
          1.75183e-05 1.74778e-05 1.75183e-05 1.74671e-05 1.75183e-05 1.74549e-05 1.75183e-05 1.74422e-05 1.75183e-05 1.74282e-05 1.75183e-05 1.74139e-05
          1.75183e-05 1.73984e-05 1.75183e-05 1.7383e-05 1.75183e-05 1.73663e-05 1.75183e-05 1.73501e-05 1.75183e-05 1.73329e-05 1.75183e-05 1.73167e-05
          1.75183e-05 1.72994e-05 1.75183e-05 1.72833e-05 1.75183e-05 1.7266e-05 1.75183e-05 1.72501e-05 1.75183e-05 1.72329e-05 1.75183e-05 1.72174e-05
          1.75183e-05 1.72001e-05 1.75183e-05 1.75182e-05 1.75178e-05 1.75166e-05 1.75147e-05 1.75124e-05 1.7508e-05 1.75006e-05 1.74904e-05 1.74786e-05
          1.74655e-05 1.7451e-05 1.74348e-05 1.74173e-05 1.73987e-05 1.73796e-05 1.73598e-05 1.73399e-05 1.73195e-05 1.72992e-05 1.72786e-05 1.72582e-05
          1.72378e-05 1.72179e-05 1.71979e-05 1.71785e-05 1.7159e-05 1.71401e-05 1.71212e-05 1.7103e-05 1.70863e-05 1.75183e-05 1.75175e-05 1.75141e-05
          1.75063e-05 1.74999e-05 1.74985e-05 1.74832e-05 1.74588e-05 1.74345e-05 1.7414e-05 1.73943e-05 1.73713e-05 1.7346e-05 1.73196e-05 1.72939e-05
          1.72693e-05 1.72452e-05 1.72216e-05 1.71984e-05 1.71756e-05 1.71531e-05 1.71311e-05 1.71094e-05 1.70885e-05 1.7068e-05 1.70481e-05 1.70285e-05
          1.70094e-05 1.69905e-05 1.69722e-05 1.69556e-05 1.75183e-05 1.75117e-05 1.74995e-05 1.74206e-05 1.73363e-05 1.72541e-05 1.72071e-05 1.71943e-05
          1.72068e-05 1.72329e-05 1.72191e-05 1.71855e-05 1.71513e-05 1.71226e-05 1.71025e-05 1.70803e-05 1.70581e-05 1.70345e-05 1.70122e-05 1.69912e-05
          1.69718e-05 1.69526e-05 1.69343e-05 1.69158e-05 1.68978e-05 1.68799e-05 1.68624e-05 1.68455e-05 1.68289e-05 1.68126e-05 1.67962e-05 1.75183e-05
          1.67512e-05 1.65154e-05 1.64993e-05 1.65287e-05 1.65559e-05 1.65708e-05 1.65677e-05 1.65511e-05 1.65223e-05 1.65322e-05 1.65747e-05 1.66298e-05
          1.67052e-05 1.67406e-05 1.67459e-05 1.67417e-05 1.67331e-05 1.67339e-05 1.67296e-05 1.67229e-05 1.67118e-05 1.66998e-05 1.66881e-05 1.66775e-05
          1.66666e-05 1.66561e-05 1.66442e-05 1.66328e-05 1.66201e-05 1.66047e-05 1.50242e-05 1.5739e-05 1.60374e-05 1.61038e-05 1.60858e-05 1.60602e-05
          1.60473e-05 1.6048e-05 1.60522e-05 1.60619e-05 1.60785e-05 1.60876e-05 1.60927e-05 1.60747e-05 1.60831e-05 1.61267e-05 1.61815e-05 1.62591e-05
          1.63244e-05 1.63543e-05 1.63717e-05 1.6378e-05 1.63939e-05 1.64006e-05 1.64054e-05 1.64034e-05 1.64016e-05 1.63994e-05 1.63975e-05 1.63934e-05
          1.63796e-05 1.50242e-05 1.5084e-05 1.51226e-05 1.52209e-05 1.53462e-05 1.54577e-05 1.55369e-05 1.55922e-05 1.56266e-05 1.56504e-05 1.56622e-05
          1.56755e-05 1.56859e-05 1.5701e-05 1.57263e-05 1.57486e-05 1.57703e-05 1.57737e-05 1.57713e-05 1.58048e-05 1.58486e-05 1.5917e-05 1.59793e-05
          1.602e-05 1.6049e-05 1.60716e-05 1.60985e-05 1.61128e-05 1.61259e-05 1.61307e-05 1.61199e-05 1.50242e-05 1.50305e-05 1.50521e-05 1.50938e-05
          1.51532e-05 1.52068e-05 1.52515e-05 1.52904e-05 1.53263e-05 1.53603e-05 1.53934e-05 1.5421e-05 1.54416e-05 1.5456e-05 1.546e-05 1.54645e-05
          1.54688e-05 1.54767e-05 1.54946e-05 1.5517e-05 1.55405e-05 1.55538e-05 1.55548e-05 1.5584e-05 1.56195e-05 1.56774e-05 1.57254e-05 1.57694e-05
          1.58071e-05 1.58362e-05 1.58317e-05 1.50242e-05 1.5026e-05 1.5032e-05 1.50399e-05 1.50448e-05 1.50581e-05 1.50823e-05 1.51089e-05 1.51385e-05
          1.51651e-05 1.5191e-05 1.52147e-05 1.52399e-05 1.52641e-05 1.52909e-05 1.53147e-05 1.53349e-05 1.53522e-05 1.53626e-05 1.53686e-05 1.53748e-05
          1.53802e-05 1.53939e-05 1.54091e-05 1.54276e-05 1.54349e-05 1.5443e-05 1.54676e-05 1.54965e-05 1.55419e-05 1.55449e-05 1.50242e-05 1.50275e-05
          1.50349e-05 1.50421e-05 1.50457e-05 1.50523e-05 1.50692e-05 1.50903e-05 1.51175e-05 1.51457e-05 1.51757e-05 1.52041e-05 1.52301e-05 1.52511e-05
          1.52686e-05 1.52758e-05 1.52864e-05 1.52884e-05 1.53036e-05 1.53249e-05 1.53437e-05 1.53626e-05 1.53698e-05 1.53739e-05 1.53811e-05 1.53869e-05
          1.53985e-05 1.54044e-05 1.54121e-05 1.54397e-05 1.54353e-05 1.50242e-05 1.5035e-05 1.50612e-05 1.51e-05 1.51539e-05 1.52017e-05 1.52478e-05
          1.52851e-05 1.53208e-05 1.53471e-05 1.53707e-05 1.53876e-05 1.54093e-05 1.54328e-05 1.5464e-05 1.54984e-05 1.55259e-05 1.55529e-05 1.55625e-05
          1.55595e-05 1.5555e-05 1.55465e-05 1.55632e-05 1.55792e-05 1.55964e-05 1.56005e-05 1.56191e-05 1.56625e-05 1.57066e-05 1.57458e-05 1.57457e-05
          1.50242e-05 1.51195e-05 1.51632e-05 1.52449e-05 1.53526e-05 1.54623e-05 1.55412e-05 1.55998e-05 1.56413e-05 1.5677e-05 1.57055e-05 1.57307e-05
          1.57453e-05 1.57535e-05 1.57493e-05 1.57467e-05 1.5743e-05 1.5747e-05 1.57669e-05 1.57884e-05 1.58136e-05 1.58199e-05 1.58308e-05 1.58712e-05
          1.59138e-05 1.5979e-05 1.60187e-05 1.60512e-05 1.60797e-05 1.60988e-05 1.60921e-05 1.50242e-05 1.57759e-05 1.60328e-05 1.60759e-05 1.60545e-05
          1.60263e-05 1.60174e-05 1.60265e-05 1.60372e-05 1.60485e-05 1.60552e-05 1.60611e-05 1.60654e-05 1.60762e-05 1.60964e-05 1.61109e-05 1.61253e-05
          1.61177e-05 1.61259e-05 1.61671e-05 1.62134e-05 1.62872e-05 1.63311e-05 1.63548e-05 1.63702e-05 1.63819e-05 1.63986e-05 1.64029e-05 1.64074e-05
          1.64046e-05 1.63926e-05 1.75183e-05 1.6664e-05 1.6443e-05 1.64306e-05 1.6472e-05 1.65166e-05 1.65405e-05 1.65463e-05 1.65437e-05 1.65397e-05
          1.65363e-05 1.6527e-05 1.65087e-05 1.64953e-05 1.65094e-05 1.65516e-05 1.65998e-05 1.66675e-05 1.67004e-05 1.67069e-05 1.67066e-05 1.67021e-05
          1.6707e-05 1.67035e-05 1.66995e-05 1.66903e-05 1.6682e-05 1.66739e-05 1.66661e-05 1.66567e-05 1.66428e-05 1.75183e-05 1.74763e-05 1.74331e-05