<?xml version="1.0"?>
<VTKFile type="UnstructuredGrid" version="0.1" byte_order="LittleEndian">
  <UnstructuredGrid>
    <Piece NumberOfCells="800" NumberOfPoints="861">
      <PointData Scalars="P" Vectors="v">
        <DataArray type="Float32" Name="P" NumberOfComponents="1" format="ascii">
          100009 99994.5 100009 99994.5 100009 100009 99994.8 99994.8 100008 100008 99995.4 99995.4
          100007 100007 99995.9 99995.9 100006 100006 99996.4 99996.4 100005 100005 99996.9 99996.9
          100004 100004 99997.5 99997.5 100003 100003 99998 99998 100002 100002 99998.5 99998.5
          100001 100001 99999.1 99999.1 100000 100000 100009 99994.5 100009 99994.8 100008 99995.4
          100007 99995.9 100006 99996.4 100005 99996.9 100004 99997.5 100003 99998 100002 99998.5
          100001 99999.1 100000 100010 99994.4 100009 99994.8 100008 99995.4 100007 99995.9 100006
          99996.4 100005 99996.9 100004 99997.5 100003 99998 100002 99998.5 100001 99999.1 100000
          100010 99994.3 100009 99994.8 100008 99995.4 100007 99995.9 100006 99996.4 100005 99996.9
          100004 99997.5 100003 99998 100002 99998.5 100001 99999.1 100000 100010 99994.3 100009
          99994.8 100008 99995.4 100007 99995.9 100006 99996.4 100005 99996.9 100004 99997.5 100003
          99998 100002 99998.5 100001 99999.1 100000 100010 99994.3 100009 99994.8 100008 99995.4
          100007 99995.9 100006 99996.4 100005 99996.9 100004 99997.5 100003 99998 100002 99998.5
          100001 99999 100000 100010 99994.3 100009 99994.8 100008 99995.4 100007 99995.9 100006
          99996.4 100005 99996.9 100004 99997.5 100003 99998 100002 99998.5 100001 99999 100000
          100010 99994.3 100009 99994.8 100008 99995.4 100007 99995.9 100006 99996.4 100005 99996.9
          100004 99997.5 100003 99998 100002 99998.5 100001 99999 100000 100010 99994.3 100009
          99994.8 100008 99995.4 100007 99995.9 100006 99996.4 100005 99996.9 100004 99997.5 100003
          99998 100002 99998.5 100001 99999 100000 100010 99994.3 100009 99994.8 100008 99995.4
          100007 99995.9 100006 99996.4 100005 99996.9 100004 99997.5 100003 99998 100002 99998.5
          100001 99999 100000 100010 99994.3 100009 99994.8 100008 99995.4 100007 99995.9 100006
          99996.4 100005 99996.9 100004 99997.5 100003 99998 100002 99998.5 100001 99999 100000
          100010 99994.3 100009 99994.8 100008 99995.4 100007 99995.9 100006 99996.4 100005 99996.9
          100004 99997.5 100003 99998 100002 99998.5 100001 99999 100000 100010 99994.3 100009
          99994.8 100008 99995.4 100007 99995.9 100006 99996.4 100005 99996.9 100004 99997.5 100003
          99998 100002 99998.5 100001 99999 100000 100010 99994.3 100009 99994.8 100008 99995.4
          100007 99995.9 100006 99996.4 100005 99996.9 100004 99997.5 100003 99998 100002 99998.5
          100001 99999 100000 100010 99994.3 100009 99994.8 100008 99995.4 100007 99995.9 100006
          99996.4 100005 99996.9 100004 99997.5 100003 99998 100002 99998.5 100001 99999 100000
          100010 99994.3 100009 99994.8 100008 99995.4 100007 99995.9 100006 99996.4 100005 99996.9
          100004 99997.5 100003 99998 100002 99998.5 100001 99999 100000 100010 99994.3 100009
          99994.8 100008 99995.4 100007 99995.9 100006 99996.4 100005 99996.9 100004 99997.5 100003
          99998 100002 99998.5 100001 99999 100000 100010 99994.3 100009 99994.8 100008 99995.4
          100007 99995.9 100006 99996.4 100005 99996.9 100004 99997.5 100003 99998 100002 99998.5
          100001 99999 100000 100010 99994.3 100009 99994.8 100008 99995.4 100007 99995.9 100006
          99996.4 100005 99996.9 100004 99997.5 100003 99998 100002 99998.5 100001 99999 100000
          100010 99994.3 100009 99994.8 100008 99995.4 100007 99995.9 100006 99996.4 100005 99996.9
          100004 99997.5 100003 99998 100002 99998.5 100001 99999 100000 100010 99994.3 100009
          99994.8 100008 99995.4 100007 99995.9 100006 99996.4 100005 99996.9 100004 99997.5 100003
          99998 100002 99998.5 100001 99999 100000 100010 99994.3 100009 99994.8 100008 99995.4
          100007 99995.9 100006 99996.4 100005 99996.9 100004 99997.5 100003 99998 100002 99998.5
          100001 99999 100000 100010 99994.3 100009 99994.8 100008 99995.4 100007 99995.9 100006
          99996.4 100005 99996.9 100004 99997.5 100003 99998 100002 99998.5 100001 99999 100000
          100010 99994.3 100009 99994.8 100008 99995.4 100007 99995.9 100006 99996.4 100005 99996.9
          100004 99997.5 100003 99998 100002 99998.5 100001 99999 100000 100010 99994.3 100009
          99994.8 100008 99995.4 100007 99995.9 100006 99996.4 100005 99996.9 100004 99997.5 100003
          99998 100002 99998.5 100001 99999 100000 100010 99994.3 100009 99994.8 100008 99995.4
          100007 99995.9 100006 99996.4 100005 99996.9 100004 99997.5 100003 99998 100002 99998.5
          100001 99999 100000 100010 99994.3 100009 99994.8 100008 99995.4 100007 99995.9 100006
          99996.4 100005 99996.9 100004 99997.5 100003 99998 100002 99998.5 100001 99999 100000
          100010 99994.3 100009 99994.8 100008 99995.4 100007 99995.9 100006 99996.4 100005 99996.9
          100004 99997.5 100003 99998 100002 99998.5 100001 99999 100000 100010 99994.3 100009
          99994.8 100008 99995.4 100007 99995.9 100006 99996.4 100005 99996.9 100004 99997.5 100003
          99998 100002 99998.5 100001 99999 100000 100010 99994.3 100009 99994.8 100008 99995.4
          100007 99995.9 100006 99996.4 100005 99996.9 100004 99997.5 100003 99998 100002 99998.5
          100001 99999 100000 100010 99994.3 100009 99994.8 100008 99995.4 100007 99995.9 100006
          99996.4 100005 99996.9 100004 99997.5 100003 99998 100002 99998.5 100001 99999 100000
          100010 99994.3 100009 99994.8 100008 99995.4 100007 99995.9 100006 99996.4 100005 99996.9
          100004 99997.5 100003 99998 100002 99998.5 100001 99999 100000 100010 99994.3 100009
          99994.8 100008 99995.4 100007 99995.9 100006 99996.4 100005 99996.9 100004 99997.5 100003
          99998 100002 99998.5 100001 99999 100000 100010 99994.3 100009 99994.8 100008 99995.4
          100007 99995.9 100006 99996.4 100005 99996.9 100004 99997.5 100003 99998 100002 99998.5
          100001 99999 100000 100010 99994.3 100009 99994.8 100008 99995.4 100007 99995.9 100006
          99996.4 100005 99996.9 100004 99997.5 100003 99998 100002 99998.5 100001 99999 100000
          100010 99994.3 100009 99994.8 100008 99995.4 100007 99995.9 100006 99996.4 100005 99996.9
          100004 99997.5 100003 99998 100002 99998.5 100001 99999 100000 100010 99994.4 100009
          99994.8 100008 99995.4 100007 99995.9 100006 99996.4 100005 99996.9 100004 99997.5 100003
          99998 100002 99998.5 100001 99999 100000 100009 99994.5 100009 99994.8 100008 99995.4
          100007 99995.9 100006 99996.4 100005 99996.9 100004 99997.5 100003 99998 100002 99998.5
          100001 99999 100000 100009 99994.5 100009 99994.8 100008 99995.4 100007 99995.9 100006
          99996.4 100005 99996.9 100004 99997.5 100003 99998 100002 99998.5 100001 99999 100000
          100009 99994.5 100009 99994.8 100008 99995.4 100007 99995.9 100006 99996.4 100005 99996.9
          100004 99997.5 100003 99998 100002 99998.5 100001 99999 100000
        </DataArray>
        <DataArray type="Float32" Name="delP" NumberOfComponents="1" format="ascii">
          8.80602 -5.45084 8.80648 -5.45038 8.6807 8.68059 -5.1598 -5.1598 7.69549 7.6955 -4.64111 -4.6411
          6.68763 6.68763 -4.11387 -4.11386 5.70411 5.70411 -3.58103 -3.58104 4.73953 4.73953 -3.05268 -3.05269
          3.78117 3.78117 -2.52226 -2.52226 2.82744 2.82743 -1.99698 -1.99698 1.88237 1.88237 -1.47311 -1.47312
          0.945099 0.945093 -0.948187 -0.948167 0 0 9.23458 -5.52363 8.69395 -5.16212 7.69586 -4.64119
          6.68763 -4.11389 5.70408 -3.58105 4.73954 -3.05269 3.78117 -2.52228 2.82743 -1.997 1.88236 -1.47313
          0.945079 -0.948184 0 9.82485 -5.62655 8.71204 -5.16498 7.69673 -4.64112 6.6877 -4.11382 5.70412
          -3.58107 4.7395 -3.05273 3.78113 -2.52227 2.8274 -1.99699 1.88233 -1.47317 0.945068 -0.948109 0
          10.0652 -5.66811 8.72026 -5.16659 7.69692 -4.6412 6.68768 -4.11373 5.7041 -3.58089 4.73949 -3.05253
          3.78116 -2.52228 2.82747 -1.99701 1.88238 -1.47315 0.945183 -0.948758 0 10.204 -5.69375 8.72521
          -5.16732 7.69739 -4.64109 6.68775 -4.11368 5.70415 -3.58092 4.73946 -3.05257 3.78113 -2.52227 2.82744
          -1.99699 1.88237 -1.47315 0.945208 -0.948748 0 10.2751 -5.70631 8.72846 -5.16814 7.69742 -4.64118
          6.68773 -4.11361 5.70413 -3.58076 4.73945 -3.05238 3.78115 -2.52229 2.8275 -1.99701 1.88242 -1.47312
          0.945271 -0.949233 0 10.3104 -5.71412 8.73031 -5.16837 7.69778 -4.64108 6.6878 -4.11358 5.70418
          -3.58081 4.73942 -3.05244 3.78113 -2.52227 2.82747 -1.99699 1.8824 -1.47313 0.945306 -0.94926 0
          10.3281 -5.7174 8.7319 -5.16894 7.69776 -4.64118 6.68778 -4.11353 5.70416 -3.58066 4.73942 -3.05226
          3.78115 -2.52229 2.82754 -1.99701 1.88245 -1.4731 0.945337 -0.949645 0 10.3348 -5.72019 8.73279
          -5.16903 7.69809 -4.64109 6.68786 -4.11351 5.70421 -3.58072 4.73939 -3.05233 3.78113 -2.52228 2.82751
          -1.99699 1.88243 -1.4731 0.94539 -0.94974 0 10.3381 -5.72085 8.7338 -5.1695 7.69804 -4.64119
          6.68784 -4.11347 5.7042 -3.58059 4.7394 -3.05216 3.78115 -2.52229 2.82757 -1.99701 1.88248 -1.47307
          0.945395 -0.950046 0 10.3378 -5.72228 8.73433 -5.16952 7.69833 -4.6411 6.68792 -4.11347 5.70425
          -3.58066 4.73938 -3.05224 3.78113 -2.52228 2.82753 -1.99699 1.88246 -1.47309 0.945473 -0.950227 0
          10.3379 -5.72223 8.73511 -5.16994 7.69825 -4.64121 6.68791 -4.11343 5.70424 -3.58054 4.73939 -3.05209
          3.78115 -2.5223 2.8276 -1.99702 1.8825 -1.47305 0.945453 -0.950461 0 10.3364 -5.7233 8.73546
          -5.16991 7.69852 -4.64112 6.68798 -4.11343 5.7043 -3.58062 4.73937 -3.05218 3.78113 -2.52229 2.82756
          -1.997 1.88248 -1.47308 0.945553 -0.950716 0 10.3362 -5.72305 8.73608 -5.17028 7.69842 -4.64123
          6.68797 -4.11341 5.70428 -3.58051 4.73939 -3.05203 3.78116 -2.5223 2.82762 -1.99702 1.88253 -1.47304
          0.945503 -0.95085 0 10.3349 -5.72398 8.73629 -5.17021 7.69865 -4.64114 6.68805 -4.11341 5.70434
          -3.58059 4.73937 -3.05212 3.78113 -2.52229 2.82758 -1.997 1.8825 -1.47307 0.945617 -0.951148 0
          10.3349 -5.72361 8.73677 -5.17053 7.69853 -4.64125 6.68803 -4.11339 5.70433 -3.58048 4.73939 -3.05197
          3.78116 -2.52231 2.82764 -1.99703 1.88254 -1.47303 0.945532 -0.951155 0 10.3338 -5.72442 8.73684
          -5.17041 7.69874 -4.64116 6.6881 -4.1134 5.70438 -3.58056 4.73938 -3.05207 3.78114 -2.52229 2.8276
          -1.99701 1.88252 -1.47306 0.945658 -0.951475 0 10.3341 -5.72394 8.73718 -5.17068 7.6986 -4.64126
          6.68807 -4.11338 5.70436 -3.58045 4.7394 -3.05193 3.78117 -2.52231 2.82766 -1.99703 1.88256 -1.47301
          0.945535 -0.951343 0 10.3332 -5.72464 8.73712 -5.17051 7.69879 -4.64117 6.68812 -4.11339 5.70441
          -3.58054 4.73939 -3.05204 3.78115 -2.52229 2.82762 -1.99701 1.88253 -1.47305 0.945673 -0.951676 0
          10.3339 -5.72405 8.73732 -5.17073 7.69862 -4.64126 6.68808 -4.11337 5.70438 -3.58044 4.73941 -3.05191
          3.78118 -2.52231 2.82767 -1.99703 1.88256 -1.473 0.945515 -0.951395 0 10.3332 -5.72464 8.73712
          -5.17051 7.69879 -4.64117 6.68812 -4.11339 5.70441 -3.58054 4.73939 -3.05204 3.78115 -2.52229 2.82762
          -1.99701 1.88253 -1.47305 0.945652 -0.951713 0 10.3341 -5.72394 8.73718 -5.17068 7.6986 -4.64126
          6.68807 -4.11338 5.70436 -3.58045 4.7394 -3.05193 3.78117 -2.52231 2.82766 -1.99703 1.88256 -1.473
          0.945512 -0.951466 0 10.3338 -5.72442 8.73684 -5.17041 7.69874 -4.64116 6.6881 -4.1134 5.70438
          -3.58056 4.73938 -3.05207 3.78114 -2.52229 2.8276 -1.99701 1.88252 -1.47304 0.945645 -0.951777 0
          10.3349 -5.72361 8.73677 -5.17053 7.69853 -4.64125 6.68803 -4.11339 5.70433 -3.58048 4.73939 -3.05197
          3.78116 -2.52231 2.82764 -1.99703 1.88255 -1.473 0.945519 -0.951554 0 10.3349 -5.72398 8.73629
          -5.17021 7.69865 -4.64114 6.68805 -4.11341 5.70434 -3.58059 4.73937 -3.05212 3.78113 -2.52229 2.82758
          -1.997 1.88251 -1.47304 0.945643 -0.951847 0 10.3362 -5.72305 8.73608 -5.17028 7.69842 -4.64123
          6.68797 -4.11341 5.70428 -3.58051 4.73939 -3.05203 3.78116 -2.5223 2.82762 -1.99702 1.88253 -1.47301
          0.945529 -0.951645 0 10.3364 -5.7233 8.73546 -5.16991 7.69852 -4.64112 6.68798 -4.11343 5.7043
          -3.58062 4.73937 -3.05218 3.78113 -2.52229 2.82756 -1.997 1.88248 -1.47304 0.945642 -0.951915 0
          10.3379 -5.72223 8.73511 -5.16994 7.69825 -4.64121 6.68791 -4.11343 5.70424 -3.58054 4.73939 -3.05209
          3.78115 -2.5223 2.8276 -1.99702 1.8825 -1.47301 0.945541 -0.951733 0 10.3378 -5.72228 8.73433
          -5.16952 7.69833 -4.6411 6.68792 -4.11347 5.70425 -3.58066 4.73938 -3.05224 3.78113 -2.52228 2.82753
          -1.99699 1.88246 -1.47304 0.945642 -0.951981 0 10.3381 -5.72085 8.7338 -5.1695 7.69804 -4.64119
          6.68784 -4.11347 5.7042 -3.58059 4.7394 -3.05216 3.78115 -2.52229 2.82757 -1.99701 1.88248 -1.47302
          0.945554 -0.951821 0 10.3348 -5.72019 8.73279 -5.16903 7.69809 -4.64109 6.68786 -4.11351 5.70421
          -3.58072 4.73939 -3.05233 3.78113 -2.52228 2.8275 -1.99699 1.88243 -1.47305 0.945644 -0.952047 0
          10.3281 -5.7174 8.7319 -5.16894 7.69776 -4.64118 6.68778 -4.11353 5.70416 -3.58066 4.73942 -3.05226
          3.78115 -2.52229 2.82754 -1.99701 1.88245 -1.47304 0.945569 -0.95191 0 10.3104 -5.71412 8.73031
          -5.16837 7.69778 -4.64108 6.6878 -4.11358 5.70418 -3.58081 4.73942 -3.05244 3.78113 -2.52227 2.82747
          -1.99699 1.8824 -1.47306 0.945648 -0.952116 0 10.2751 -5.70631 8.72846 -5.16814 7.69742 -4.64118
          6.68773 -4.11361 5.70413 -3.58076 4.73945 -3.05238 3.78115 -2.52229 2.8275 -1.99701 1.88241 -1.47306
          0.945587 -0.952002 0 10.204 -5.69375 8.72521 -5.16732 7.69739 -4.64109 6.68775 -4.11368 5.70415
          -3.58092 4.73946 -3.05257 3.78113 -2.52227 2.82744 -1.99699 1.88236 -1.47308 0.945655 -0.952189 0
          10.0652 -5.66811 8.72026 -5.16659 7.69692 -4.6412 6.68768 -4.11373 5.7041 -3.58089 4.73949 -3.05253
          3.78116 -2.52228 2.82746 -1.99701 1.88238 -1.47308 0.945605 -0.952098 0 9.82485 -5.62655 8.71204
          -5.16498 7.69673 -4.64112 6.6877 -4.11382 5.70412 -3.58107 4.7395 -3.05273 3.78113 -2.52227 2.82739
          -1.99699 1.88232 -1.4731 0.945658 -0.952254 0 9.23458 -5.52363 8.69395 -5.16212 7.69586 -4.64119
          6.68763 -4.11389 5.70408 -3.58105 4.73954 -3.05269 3.78117 -2.52228 2.82743 -1.99699 1.88235 -1.47308
          0.945647 -0.952245 0 8.80648 -5.45038 8.68059 -5.1598 7.6955 -4.6411 6.68763 -4.11386 5.70411
          -3.58104 4.73953 -3.05269 3.78117 -2.52226 2.82743 -1.99697 1.88236 -1.47306 0.945646 -0.952169 0
          8.80602 -5.45084 8.6807 -5.1598 7.69549 -4.64111 6.68763 -4.11387 5.70411 -3.58103 4.73953 -3.05268
          3.78117 -2.52226 2.82743 -1.99697 1.88236 -1.47305 0.945647 -0.952167 0
        </DataArray>
        <DataArray type="Float32" Name="rho" NumberOfComponents="1" format="ascii">
          1.23023 1.23005 1.23023 1.23005 1.23023 1.23023 1.23006 1.23006 1.23021 1.23021 1.23006 1.23006
          1.2302 1.2302 1.23007 1.23007 1.23019 1.23019 1.23008 1.23008 1.23018 1.23018 1.23008 1.23008
          1.23017 1.23017 1.23009 1.23009 1.23015 1.23015 1.2301 1.2301 1.23014 1.23014 1.2301 1.2301
          1.23013 1.23013 1.23011 1.23011 1.23012 1.23012 1.23023 1.23005 1.23023 1.23006 1.23021 1.23006
          1.2302 1.23007 1.23019 1.23008 1.23018 1.23008 1.23017 1.23009 1.23015 1.2301 1.23014 1.2301
          1.23013 1.23011 1.23012 1.23024 1.23005 1.23023 1.23006 1.23021 1.23006 1.2302 1.23007 1.23019
          1.23008 1.23018 1.23008 1.23017 1.23009 1.23015 1.2301 1.23014 1.2301 1.23013 1.23011 1.23012
          1.23024 1.23005 1.23023 1.23006 1.23021 1.23006 1.2302 1.23007 1.23019 1.23008 1.23018 1.23008
          1.23017 1.23009 1.23015 1.2301 1.23014 1.2301 1.23013 1.23011 1.23012 1.23025 1.23005 1.23023
          1.23006 1.23021 1.23006 1.2302 1.23007 1.23019 1.23008 1.23018 1.23008 1.23017 1.23009 1.23015
          1.2301 1.23014 1.2301 1.23013 1.23011 1.23012 1.23025 1.23005 1.23023 1.23006 1.23021 1.23006
          1.2302 1.23007 1.23019 1.23008 1.23018 1.23008 1.23017 1.23009 1.23015 1.2301 1.23014 1.2301
          1.23013 1.23011 1.23012 1.23025 1.23005 1.23023 1.23006 1.23021 1.23006 1.2302 1.23007 1.23019
          1.23008 1.23018 1.23008 1.23017 1.23009 1.23015 1.2301 1.23014 1.2301 1.23013 1.23011 1.23012
          1.23025 1.23005 1.23023 1.23006 1.23021 1.23006 1.2302 1.23007 1.23019 1.23008 1.23018 1.23008
          1.23017 1.23009 1.23015 1.2301 1.23014 1.2301 1.23013 1.23011 1.23012 1.23025 1.23005 1.23023
          1.23006 1.23021 1.23006 1.2302 1.23007 1.23019 1.23008 1.23018 1.23008 1.23017 1.23009 1.23015
          1.2301 1.23014 1.2301 1.23013 1.23011 1.23012 1.23025 1.23005 1.23023 1.23006 1.23021 1.23006
          1.2302 1.23007 1.23019 1.23008 1.23018 1.23008 1.23017 1.23009 1.23015 1.2301 1.23014 1.2301
          1.23013 1.23011 1.23012 1.23025 1.23005 1.23023 1.23006 1.23021 1.23006 1.2302 1.23007 1.23019
          1.23008 1.23018 1.23008 1.23017 1.23009 1.23015 1.2301 1.23014 1.2301 1.23013 1.23011 1.23012
          1.23025 1.23005 1.23023 1.23006 1.23021 1.23006 1.2302 1.23007 1.23019 1.23008 1.23018 1.23008
          1.23017 1.23009 1.23015 1.2301 1.23014 1.2301 1.23013 1.23011 1.23012 1.23025 1.23005 1.23023
          1.23006 1.23021 1.23006 1.2302 1.23007 1.23019 1.23008 1.23018 1.23008 1.23017 1.23009 1.23015
          1.2301 1.23014 1.2301 1.23013 1.23011 1.23012 1.23025 1.23005 1.23023 1.23006 1.23021 1.23006
          1.2302 1.23007 1.23019 1.23008 1.23018 1.23008 1.23017 1.23009 1.23015 1.2301 1.23014 1.2301
          1.23013 1.23011 1.23012 1.23025 1.23005 1.23023 1.23006 1.23021 1.23006 1.2302 1.23007 1.23019
          1.23008 1.23018 1.23008 1.23017 1.23009 1.23015 1.2301 1.23014 1.2301 1.23013 1.23011 1.23012
          1.23025 1.23005 1.23023 1.23006 1.23021 1.23006 1.2302 1.23007 1.23019 1.23008 1.23018 1.23008
          1.23017 1.23009 1.23015 1.2301 1.23014 1.2301 1.23013 1.23011 1.23012 1.23025 1.23005 1.23023
          1.23006 1.23021 1.23006 1.2302 1.23007 1.23019 1.23008 1.23018 1.23008 1.23017 1.23009 1.23015
          1.2301 1.23014 1.2301 1.23013 1.23011 1.23012 1.23025 1.23005 1.23023 1.23006 1.23021 1.23006
          1.2302 1.23007 1.23019 1.23008 1.23018 1.23008 1.23017 1.23009 1.23015 1.2301 1.23014 1.2301
          1.23013 1.23011 1.23012 1.23025 1.23005 1.23023 1.23006 1.23021 1.23006 1.2302 1.23007 1.23019
          1.23008 1.23018 1.23008 1.23017 1.23009 1.23015 1.2301 1.23014 1.2301 1.23013 1.23011 1.23012
          1.23025 1.23005 1.23023 1.23006 1.23021 1.23006 1.2302 1.23007 1.23019 1.23008 1.23018 1.23008
          1.23017 1.23009 1.23015 1.2301 1.23014 1.2301 1.23013 1.23011 1.23012 1.23025 1.23005 1.23023
          1.23006 1.23021 1.23006 1.2302 1.23007 1.23019 1.23008 1.23018 1.23008 1.23017 1.23009 1.23015
          1.2301 1.23014 1.2301 1.23013 1.23011 1.23012 1.23025 1.23005 1.23023 1.23006 1.23021 1.23006
          1.2302 1.23007 1.23019 1.23008 1.23018 1.23008 1.23017 1.23009 1.23015 1.2301 1.23014 1.2301
          1.23013 1.23011 1.23012 1.23025 1.23005 1.23023 1.23006 1.23021 1.23006 1.2302 1.23007 1.23019
          1.23008 1.23018 1.23008 1.23017 1.23009 1.23015 1.2301 1.23014 1.2301 1.23013 1.23011 1.23012
          1.23025 1.23005 1.23023 1.23006 1.23021 1.23006 1.2302 1.23007 1.23019 1.23008 1.23018 1.23008
          1.23017 1.23009 1.23015 1.2301 1.23014 1.2301 1.23013 1.23011 1.23012 1.23025 1.23005 1.23023
          1.23006 1.23021 1.23006 1.2302 1.23007 1.23019 1.23008 1.23018 1.23008 1.23017 1.23009 1.23015
          1.2301 1.23014 1.2301 1.23013 1.23011 1.23012 1.23025 1.23005 1.23023 1.23006 1.23021 1.23006
          1.2302 1.23007 1.23019 1.23008 1.23018 1.23008 1.23017 1.23009 1.23015 1.2301 1.23014 1.2301
          1.23013 1.23011 1.23012 1.23025 1.23005 1.23023 1.23006 1.23021 1.23006 1.2302 1.23007 1.23019
          1.23008 1.23018 1.23008 1.23017 1.23009 1.23015 1.2301 1.23014 1.2301 1.23013 1.23011 1.23012
          1.23025 1.23005 1.23023 1.23006 1.23021 1.23006 1.2302 1.23007 1.23019 1.23008 1.23018 1.23008
          1.23017 1.23009 1.23015 1.2301 1.23014 1.2301 1.23013 1.23011 1.23012 1.23025 1.23005 1.23023
          1.23006 1.23021 1.23006 1.2302 1.23007 1.23019 1.23008 1.23018 1.23008 1.23017 1.23009 1.23015
          1.2301 1.23014 1.2301 1.23013 1.23011 1.23012 1.23025 1.23005 1.23023 1.23006 1.23021 1.23006
          1.2302 1.23007 1.23019 1.23008 1.23018 1.23008 1.23017 1.23009 1.23015 1.2301 1.23014 1.2301
          1.23013 1.23011 1.23012 1.23025 1.23005 1.23023 1.23006 1.23021 1.23006 1.2302 1.23007 1.23019
          1.23008 1.23018 1.23008 1.23017 1.23009 1.23015 1.2301 1.23014 1.2301 1.23013 1.23011 1.23012
          1.23025 1.23005 1.23023 1.23006 1.23021 1.23006 1.2302 1.23007 1.23019 1.23008 1.23018 1.23008
          1.23017 1.23009 1.23015 1.2301 1.23014 1.2301 1.23013 1.23011 1.23012 1.23025 1.23005 1.23023
          1.23006 1.23021 1.23006 1.2302 1.23007 1.23019 1.23008 1.23018 1.23008 1.23017 1.23009 1.23015
          1.2301 1.23014 1.2301 1.23013 1.23011 1.23012 1.23025 1.23005 1.23023 1.23006 1.23021 1.23006
          1.2302 1.23007 1.23019 1.23008 1.23018 1.23008 1.23017 1.23009 1.23015 1.2301 1.23014 1.2301
          1.23013 1.23011 1.23012 1.23025 1.23005 1.23023 1.23006 1.23021 1.23006 1.2302 1.23007 1.23019
          1.23008 1.23018 1.23008 1.23017 1.23009 1.23015 1.2301 1.23014 1.2301 1.23013 1.23011 1.23012
          1.23024 1.23005 1.23023 1.23006 1.23021 1.23006 1.2302 1.23007 1.23019 1.23008 1.23018 1.23008
          1.23017 1.23009 1.23015 1.2301 1.23014 1.2301 1.23013 1.23011 1.23012 1.23024 1.23005 1.23023
          1.23006 1.23021 1.23006 1.2302 1.23007 1.23019 1.23008 1.23018 1.23008 1.23017 1.23009 1.23015
          1.2301 1.23014 1.2301 1.23013 1.23011 1.23012 1.23023 1.23005 1.23023 1.23006 1.23021 1.23006
          1.2302 1.23007 1.23019 1.23008 1.23018 1.23008 1.23017 1.23009 1.23015 1.2301 1.23014 1.2301
          1.23013 1.23011 1.23012 1.23023 1.23005 1.23023 1.23006 1.23021 1.23006 1.2302 1.23007 1.23019
          1.23008 1.23018 1.23008 1.23017 1.23009 1.23015 1.2301 1.23014 1.2301 1.23013 1.23011 1.23012
          1.23023 1.23005 1.23023 1.23006 1.23021 1.23006 1.2302 1.23007 1.23019 1.23008 1.23018 1.23008
          1.23017 1.23009 1.23015 1.2301 1.23014 1.2301 1.23013 1.23011 1.23012
        </DataArray>
        <DataArray type="Float32" Name="mu" NumberOfComponents="1" format="ascii">
          1.75183e-05 1.75183e-05 1.75183e-05 1.75183e-05 1.75183e-05 1.75183e-05 1.75183e-05 1.75183e-05 1.75183e-05 1.75183e-05 1.75183e-05 1.75183e-05
          1.75183e-05 1.75183e-05 1.75183e-05 1.75183e-05 1.75183e-05 1.75183e-05 1.75183e-05 1.75183e-05 1.75183e-05 1.75183e-05 1.75183e-05 1.75183e-05
          1.75183e-05 1.75183e-05 1.75183e-05 1.75183e-05 1.75183e-05 1.75183e-05 1.75183e-05 1.75183e-05 1.75183e-05 1.75183e-05 1.75183e-05 1.75183e-05
          1.75183e-05 1.75183e-05 1.75183e-05 1.75183e-05 1.75183e-05 1.75183e-05 1.75183e-05 1.75183e-05 1.75183e-05 1.75183e-05 1.75183e-05 1.75183e-05
          1.75183e-05 1.75183e-05 1.75183e-05 1.75183e-05 1.75183e-05 1.75183e-05 1.75183e-05 1.75183e-05 1.75183e-05 1.75183e-05 1.75183e-05 1.75183e-05
          1.75183e-05 1.75183e-05 1.75183e-05 1.75183e-05 1.75183e-05 1.75183e-05 1.75183e-05 1.75183e-05 1.75183e-05 1.75183e-05 1.75183e-05 1.75183e-05
          1.75183e-05 1.75183e-05 1.75183e-05 1.75183e-05 1.75183e-05 1.75183e-05 1.75183e-05 1.75183e-05 1.75183e-05 1.75183e-05 1.75183e-05 1.75183e-05
          1.75183e-05 1.75183e-05 1.75183e-05 1.75183e-05 1.75183e-05 1.75183e-05 1.75183e-05 1.75183e-05 1.75183e-05 1.75183e-05 1.75183e-05 1.75183e-05
          1.75183e-05 1.75183e-05 1.75183e-05 1.75183e-05 1.75183e-05 1.75183e-05 1.75183e-05 1.75183e-05 1.75183e-05 1.75183e-05 1.75183e-05 1.75183e-05
          1.75183e-05 1.75183e-05 1.75183e-05 1.75183e-05 1.75183e-05 1.75183e-05 1.75183e-05 1.75183e-05 1.75183e-05 1.75183e-05 1.75183e-05 1.75183e-05
          1.75183e-05 1.75183e-05 1.75183e-05 1.75183e-05 1.75183e-05 1.75183e-05 1.75183e-05 1.75183e-05 1.75183e-05 1.75183e-05 1.75183e-05 1.75183e-05
          1.75183e-05 1.75183e-05 1.75183e-05 1.75183e-05 1.75183e-05 1.75183e-05 1.75183e-05 1.75183e-05 1.75183e-05 1.75183e-05 1.75183e-05 1.75183e-05
          1.75183e-05 1.75183e-05 1.75183e-05 1.75183e-05 1.75183e-05 1.75183e-05 1.75183e-05 1.75183e-05 1.75183e-05 1.75183e-05 1.75183e-05 1.75183e-05
          1.75183e-05 1.75183e-05 1.75183e-05 1.75183e-05 1.75183e-05 1.75183e-05 1.75183e-05 1.75183e-05 1.75183e-05 1.75183e-05 1.75183e-05 1.75183e-05
          1.75183e-05 1.75183e-05 1.75183e-05 1.75183e-05 1.75183e-05 1.75183e-05 1.75183e-05 1.75183e-05 1.75183e-05 1.75183e-05 1.75183e-05 1.75183e-05
          1.75183e-05 1.75183e-05 1.75183e-05 1.75183e-05 1.75183e-05 1.75183e-05 1.75183e-05 1.75183e-05 1.75183e-05 1.75183e-05 1.75183e-05 1.75183e-05
          1.75183e-05 1.75183e-05 1.75183e-05 1.75183e-05 1.75183e-05 1.75183e-05 1.75183e-05 1.75183e-05 1.75183e-05 1.75183e-05 1.75183e-05 1.75183e-05
          1.75183e-05 1.75183e-05 1.75183e-05 1.75183e-05 1.75183e-05 1.75183e-05 1.75183e-05 1.75183e-05 1.75183e-05 1.75183e-05 1.75183e-05 1.75183e-05
          1.75183e-05 1.75183e-05 1.75183e-05 1.75183e-05 1.75183e-05 1.75183e-05 1.75183e-05 1.75183e-05 1.75183e-05 1.75183e-05 1.75183e-05 1.75183e-05
          1.75183e-05 1.75183e-05 1.75183e-05 1.75183e-05 1.75183e-05 1.75183e-05 1.75183e-05 1.75183e-05 1.75183e-05 1.75183e-05 1.75183e-05 1.75183e-05
          1.75183e-05 1.75183e-05 1.75183e-05 1.75183e-05 1.75183e-05 1.75183e-05 1.75183e-05 1.75183e-05 1.75183e-05 1.75183e-05 1.75183e-05 1.75183e-05
          1.75183e-05 1.75183e-05 1.75183e-05 1.75183e-05 1.75183e-05 1.75183e-05 1.75183e-05 1.75183e-05 1.75183e-05 1.75183e-05 1.75183e-05 1.75183e-05
          1.75183e-05 1.75183e-05 1.75183e-05 1.75183e-05 1.75183e-05 1.75183e-05 1.75183e-05 1.75183e-05 1.75183e-05 1.75183e-05 1.75183e-05 1.75183e-05
          1.75183e-05 1.75183e-05 1.75183e-05 1.75183e-05 1.75183e-05 1.75183e-05 1.75183e-05 1.75183e-05 1.75183e-05 1.75183e-05 1.75183e-05 1.75183e-05
          1.75183e-05 1.75183e-05 1.75183e-05 1.75183e-05 1.75183e-05 1.75183e-05 1.75183e-05 1.75183e-05 1.75183e-05 1.75183e-05 1.75183e-05 1.75183e-05
          1.75183e-05 1.75183e-05 1.75183e-05 1.75183e-05 1.75183e-05 1.75183e-05 1.75183e-05 1.75183e-05 1.75183e-05 1.75183e-05 1.75183e-05 1.75183e-05
          1.75183e-05 1.75183e-05 1.75183e-05 1.75183e-05 1.75183e-05 1.75183e-05 1.75183e-05 1.75183e-05 1.75183e-05 1.75183e-05 1.75183e-05 1.75183e-05
          1.75183e-05 1.75183e-05 1.75183e-05 1.75183e-05 1.75183e-05 1.75183e-05 1.75183e-05 1.75183e-05 1.75183e-05 1.75183e-05 1.75183e-05 1.75183e-05
          1.75183e-05 1.75183e-05 1.75183e-05 1.75183e-05 1.75183e-05 1.75183e-05 1.75183e-05 1.75183e-05 1.75183e-05 1.75183e-05 1.75183e-05 1.75183e-05
          1.75183e-05 1.75183e-05 1.75183e-05 1.75183e-05 1.75183e-05 1.75183e-05 1.75183e-05 1.75183e-05 1.75183e-05 1.75183e-05 1.75183e-05 1.75183e-05
          1.75183e-05 1.75183e-05 1.75183e-05 1.75183e-05 1.75183e-05 1.75183e-05 1.75183e-05 1.75183e-05 1.75183e-05 1.75183e-05 1.75183e-05 1.75183e-05
          1.75183e-05 1.75183e-05 1.75183e-05 1.75183e-05 1.75183e-05 1.75183e-05 1.75183e-05 1.75183e-05 1.75183e-05 1.75183e-05 1.75183e-05 1.75183e-05
          1.75183e-05 1.75183e-05 1.75183e-05 1.75183e-05 1.75183e-05 1.75183e-05 1.75183e-05 1.75183e-05 1.75183e-05 1.75183e-05 1.75183e-05 1.75183e-05
          1.75183e-05 1.75183e-05 1.75183e-05 1.75183e-05 1.75183e-05 1.75183e-05 1.75183e-05 1.75183e-05 1.75183e-05 1.75183e-05 1.75183e-05 1.75183e-05
          1.75183e-05 1.75183e-05 1.75183e-05 1.75183e-05 1.75183e-05 1.75183e-05 1.75183e-05 1.75183e-05 1.75183e-05 1.75183e-05 1.75183e-05 1.75183e-05
          1.75183e-05 1.75183e-05 1.75183e-05 1.75183e-05 1.75183e-05 1.75183e-05 1.75183e-05 1.75183e-05 1.75183e-05 1.75183e-05 1.75183e-05 1.75183e-05
          1.75183e-05 1.75183e-05 1.75183e-05 1.75183e-05 1.75183e-05 1.75183e-05 1.75183e-05 1.75183e-05 1.75183e-05 1.75183e-05 1.75183e-05 1.75183e-05
          1.75183e-05 1.75183e-05 1.75183e-05 1.75183e-05 1.75183e-05 1.75183e-05 1.75183e-05 1.75183e-05 1.75183e-05 1.75183e-05 1.75183e-05 1.75183e-05
          1.75183e-05 1.75183e-05 1.75183e-05 1.75183e-05 1.75183e-05 1.75183e-05 1.75183e-05 1.75183e-05 1.75183e-05 1.75183e-05 1.75183e-05 1.75183e-05
          1.75183e-05 1.75183e-05 1.75183e-05 1.75183e-05 1.75183e-05 1.75183e-05 1.75183e-05 1.75183e-05 1.75183e-05 1.75183e-05 1.75183e-05 1.75183e-05
          1.75183e-05 1.75183e-05 1.75183e-05 1.75183e-05 1.75183e-05 1.75183e-05 1.75183e-05 1.75183e-05 1.75183e-05 1.75183e-05 1.75183e-05 1.75183e-05
          1.75183e-05 1.75183e-05 1.75183e-05 1.75183e-05 1.75183e-05 1.75183e-05 1.75183e-05 1.75183e-05 1.75183e-05 1.75183e-05 1.75183e-05 1.75183e-05
          1.75183e-05 1.75183e-05 1.75183e-05 1.75183e-05 1.75183e-05 1.75183e-05 1.75183e-05 1.75183e-05 1.75183e-05 1.75183e-05 1.75183e-05 1.75183e-05
          1.75183e-05 1.75183e-05 1.75183e-05 1.75183e-05 1.75183e-05 1.75183e-05 1.75183e-05 1.75183e-05 1.75183e-05 1.75183e-05 1.75183e-05 1.75183e-05
          1.75183e-05 1.75183e-05 1.75183e-05 1.75183e-05 1.75183e-05 1.75183e-05 1.75183e-05 1.75183e-05 1.75183e-05 1.75183e-05 1.75183e-05 1.75183e-05
          1.75183e-05 1.75183e-05 1.75183e-05 1.75183e-05 1.75183e-05 1.75183e-05 1.75183e-05 1.75183e-05 1.75183e-05 1.75183e-05 1.75183e-05 1.75183e-05