<?xml version="1.0"?>
<VTKFile type="UnstructuredGrid" version="0.1" byte_order="LittleEndian">
  <UnstructuredGrid>
    <Piece NumberOfCells="375" NumberOfPoints="416">
      <PointData Scalars="P" Vectors="v">
        <DataArray type="Float32" Name="P" NumberOfComponents="1" format="ascii">
          100008 99994.4 100008 99994.4 100008 100008 99994.2 99994.2 100007 100007 99994.6 99994.6
          100006 100006 99995 99995.1 100006 100006 99995.6 99995.6 100005 100005 99996.1 99996.1
          100005 100005 99996.7 99996.7 100004 100004 99997.2 99997.2 100003 100003 99997.8 99997.8
          100003 100003 99998.3 99998.3 100002 100002 99998.9 99998.9 100001 100001 99999.4 99999.4
          100001 100001 100000 100000 100010 99993.5 100008 99994 100007 99994.5 100006 99995
          100006 99995.6 100005 99996.1 100005 99996.7 100004 99997.2 100003 99997.8 100003 99998.3
          100002 99998.9 100001 99999.4 100001 100000 100009 99993.5 100008 99994 100007 99994.5
          100007 99995 100006 99995.6 100005 99996.1 100005 99996.7 100004 99997.2 100003 99997.8
          100003 99998.3 100002 99998.9 100001 99999.4 100001 100000 100009 99993.3 100008 99993.9
          100007 99994.4 100007 99995 100006 99995.5 100005 99996.1 100005 99996.6 100004 99997.2
          100003 99997.8 100003 99998.3 100002 99998.9 100001 99999.4 100001 100000 100009 99993.3
          100008 99993.9 100007 99994.4 100007 99995 100006 99995.5 100005 99996.1 100005 99996.6
          100004 99997.2 100003 99997.8 100003 99998.3 100002 99998.9 100001 99999.4 100001 100000
          100009 99993.2 100008 99993.8 100007 99994.4 100007 99994.9 100006 99995.5 100005 99996.1
          100005 99996.6 100004 99997.2 100003 99997.8 100003 99998.3 100002 99998.9 100001 99999.4
          100001 100000 100009 99993.2 100008 99993.8 100007 99994.4 100007 99995 100006 99995.5
          100005 99996.1 100005 99996.6 100004 99997.2 100003 99997.7 100003 99998.3 100002 99998.9
          100001 99999.4 100001 100000 100009 99993.1 100008 99993.7 100007 99994.3 100007 99994.9
          100006 99995.5 100005 99996.1 100005 99996.6 100004 99997.2 100003 99997.7 100003 99998.3
          100002 99998.9 100001 99999.4 100001 100000 100009 99993.2 100008 99993.8 100007 99994.4
          100007 99994.9 100006 99995.5 100005 99996.1 100005 99996.6 100004 99997.2 100003 99997.7
          100003 99998.3 100002 99998.9 100001 99999.4 100001 100000 100009 99993.1 100008 99993.7
          100007 99994.3 100007 99994.9 100006 99995.5 100005 99996 100005 99996.6 100004 99997.2
          100003 99997.7 100003 99998.3 100002 99998.9 100001 99999.4 100001 100000 100009 99993.1
          100008 99993.8 100007 99994.3 100007 99994.9 100006 99995.5 100005 99996.1 100005 99996.6
          100004 99997.2 100003 99997.7 100003 99998.3 100002 99998.9 100001 99999.4 100001 100000
          100009 99993.1 100008 99993.7 100007 99994.3 100007 99994.9 100006 99995.5 100005 99996
          100005 99996.6 100004 99997.2 100003 99997.7 100003 99998.3 100002 99998.9 100001 99999.4
          100001 100000 100009 99993.1 100008 99993.7 100007 99994.3 100007 99994.9 100006 99995.5
          100005 99996 100005 99996.6 100004 99997.2 100003 99997.7 100003 99998.3 100002 99998.9
          100001 99999.4 100001 100000 100009 99993 100008 99993.7 100007 99994.3 100007 99994.9
          100006 99995.5 100005 99996 100005 99996.6 100004 99997.2 100003 99997.7 100003 99998.3
          100002 99998.9 100001 99999.4 100001 100000 100009 99993.1 100008 99993.7 100007 99994.3
          100007 99994.9 100006 99995.5 100005 99996.1 100005 99996.6 100004 99997.2 100003 99997.7
          100003 99998.3 100002 99998.9 100001 99999.4 100001 100000
        </DataArray>
        <DataArray type="Float32" Name="delP" NumberOfComponents="1" format="ascii">
          7.99266 -5.6514 8.02634 -5.61772 7.59874 7.60832 -5.77401 -5.75766 7.03688 7.04338 -5.42858 -5.41979
          6.41909 6.42331 -4.95198 -4.94708 5.78701 5.78944 -4.4252 -4.42229 5.15221 5.15389 -3.88133 -3.87913
          4.51232 4.51375 -3.3334 -3.33161 3.86961 3.87069 -2.78177 -2.78048 3.22801 3.22873 -2.22634 -2.22541
          2.58635 2.58684 -1.66892 -1.66819 1.93948 1.93976 -1.11114 -1.11059 1.27936 1.27884 -0.556181 -0.555276
          0.583849 0.568432 0 0 9.66213 -6.46446 8.02356 -5.95881 7.16631 -5.48173 6.47352 -4.96805
          5.8177 -4.43165 5.16945 -3.88615 4.52311 -3.33672 3.87886 -2.78346 3.23641 -2.22781 2.59342 -1.67133
          1.94651 -1.11568 1.29117 -0.567395 0.621914 0 9.39476 -6.46744 8.09525 -5.99801 7.24771 -5.49608
          6.5268 -4.98001 5.84717 -4.44182 5.19143 -3.89056 4.54234 -3.3391 3.89292 -2.78734 3.24629 -2.23278
          2.60287 -1.6756 1.95748 -1.11921 1.30549 -0.567744 0.65229 0 9.07327 -6.72467 8.16736 -6.11501
          7.30783 -5.57196 6.56924 -5.01738 5.88595 -4.46153 5.2155 -3.90874 4.55585 -3.35488 3.90682 -2.79681
          3.26232 -2.23924 2.61748 -1.68298 1.97101 -1.12772 1.32427 -0.572866 0.687412 0 9.07554 -6.67798
          8.18025 -6.1186 7.35119 -5.56474 6.60495 -5.0161 5.90358 -4.46961 5.23495 -3.91008 4.58016 -3.35525
          3.92475 -2.80269 3.27353 -2.24874 2.62987 -1.69037 1.98752 -1.13163 1.34558 -0.572423 0.71195 0
          8.88072 -6.8349 8.16136 -6.20851 7.37345 -5.62978 6.63061 -5.05366 5.92939 -4.48188 5.24778 -3.92186
          4.58278 -3.3697 3.93272 -2.80992 3.28932 -2.25274 2.64554 -1.69695 2.00088 -1.14048 1.36352 -0.578623
          0.741613 0 8.9369 -6.77657 8.1833 -6.18678 7.40525 -5.61459 6.66029 -5.0497 5.9481 -4.48897
          5.26521 -3.92407 4.59956 -3.3622 3.94103 -2.80661 3.29132 -2.257 2.65201 -1.69997 2.01516 -1.14021
          1.38492 -0.578362 0.766284 0 8.80118 -6.89184 8.13148 -6.26295 7.3974 -5.66953 6.66954 -5.08387
          5.96475 -4.505 5.27688 -3.93807 4.60492 -3.3781 3.94816 -2.81639 3.30086 -2.2561 2.658 -1.69771
          2.01941 -1.1419 1.39406 -0.582312 0.78853 0 8.86676 -6.82903 8.16681 -6.2241 7.42779 -5.64464
          6.69503 -5.07337 5.98196 -4.50601 5.29241 -3.93787 4.62023 -3.37323 3.95826 -2.81518 3.30629 -2.26116
          2.66527 -1.70379 2.03209 -1.14326 1.40837 -0.577004 0.801844 0 8.75213 -6.92281 8.10422 -6.29401
          7.39941 -5.69309 6.6886 -5.10373 5.98726 -4.52176 5.29819 -3.95101 4.62341 -3.3871 3.96326 -2.82397
          3.31378 -2.26236 2.67133 -1.70357 2.03666 -1.14509 1.41491 -0.579668 0.812502 0 8.83125 -6.85996
          8.15009 -6.24446 7.43469 -5.6589 6.71562 -5.08605 6.00479 -4.51636 5.3119 -3.94708 4.63593 -3.38149
          3.97205 -2.82202 3.31905 -2.26577 2.67746 -1.70771 2.04628 -1.14594 1.42591 -0.576806 0.821091 0
          8.74867 -6.94471 8.09075 -6.31447 7.39935 -5.71 6.69624 -5.11593 5.99742 -4.53097 5.30883 -3.9578
          4.63376 -3.39229 3.97261 -2.8286 3.32225 -2.26636 2.68033 -1.70696 2.04823 -1.14729 1.42947 -0.57992
          0.827623 0 8.80772 -6.87398 8.13875 -6.25523 7.43731 -5.66544 6.72554 -5.08978 6.01653 -4.51891
          5.32191 -3.94979 4.6441 -3.3846 3.97957 -2.82465 3.32606 -2.26719 2.68401 -1.70869 2.05423 -1.1473
          1.43709 -0.57863 0.83467 0 8.72155 -6.94991 8.08034 -6.32482 7.39666 -5.71908 6.6972 -5.12262
          5.99881 -4.53435 5.30983 -3.95893 4.63544 -3.39318 3.97503 -2.82952 3.32436 -2.26628 2.68235 -1.70618
          2.05233 -1.14761 1.43737 -0.582073 0.838486 0 8.79465 -6.87681 8.1344 -6.25807 7.43781 -5.66688
          6.72824 -5.08971 6.01906 -4.51724 5.32371 -3.9481 4.64637 -3.3842 3.98262 -2.82464 3.32876 -2.2662
          2.68605 -1.70726 2.05696 -1.1477 1.44236 -0.580907 0.842716 0
        </DataArray>
        <DataArray type="Float32" Name="rho" NumberOfComponents="1" format="ascii">
          1.23022 1.23005 1.23022 1.23005 1.23021 1.23021 1.23005 1.23005 1.23021 1.23021 1.23005 1.23005
          1.2302 1.2302 1.23006 1.23006 1.23019 1.23019 1.23007 1.23007 1.23018 1.23018 1.23007 1.23007
          1.23018 1.23018 1.23008 1.23008 1.23017 1.23017 1.23009 1.23009 1.23016 1.23016 1.23009 1.23009
          1.23015 1.23015 1.2301 1.2301 1.23014 1.23014 1.23011 1.23011 1.23014 1.23014 1.23011 1.23011
          1.23013 1.23013 1.23012 1.23012 1.23024 1.23004 1.23022 1.23005 1.23021 1.23005 1.2302 1.23006
          1.23019 1.23006 1.23018 1.23007 1.23018 1.23008 1.23017 1.23009 1.23016 1.23009 1.23015 1.2301
          1.23014 1.23011 1.23014 1.23011 1.23013 1.23012 1.23024 1.23004 1.23022 1.23005 1.23021 1.23005
          1.2302 1.23006 1.23019 1.23006 1.23018 1.23007 1.23018 1.23008 1.23017 1.23009 1.23016 1.23009
          1.23015 1.2301 1.23014 1.23011 1.23014 1.23011 1.23013 1.23012 1.23023 1.23004 1.23022 1.23004
          1.23021 1.23005 1.2302 1.23006 1.23019 1.23006 1.23018 1.23007 1.23018 1.23008 1.23017 1.23009
          1.23016 1.23009 1.23015 1.2301 1.23014 1.23011 1.23014 1.23011 1.23013 1.23012 1.23023 1.23004
          1.23022 1.23004 1.23021 1.23005 1.2302 1.23006 1.23019 1.23006 1.23018 1.23007 1.23018 1.23008
          1.23017 1.23009 1.23016 1.23009 1.23015 1.2301 1.23014 1.23011 1.23014 1.23011 1.23013 1.23012
          1.23023 1.23004 1.23022 1.23004 1.23021 1.23005 1.2302 1.23006 1.23019 1.23006 1.23018 1.23007
          1.23018 1.23008 1.23017 1.23009 1.23016 1.23009 1.23015 1.2301 1.23014 1.23011 1.23014 1.23011
          1.23013 1.23012 1.23023 1.23004 1.23022 1.23004 1.23021 1.23005 1.2302 1.23006 1.23019 1.23006
          1.23018 1.23007 1.23018 1.23008 1.23017 1.23009 1.23016 1.23009 1.23015 1.2301 1.23014 1.23011
          1.23014 1.23011 1.23013 1.23012 1.23023 1.23003 1.23022 1.23004 1.23021 1.23005 1.2302 1.23006
          1.23019 1.23006 1.23018 1.23007 1.23018 1.23008 1.23017 1.23008 1.23016 1.23009 1.23015 1.2301
          1.23014 1.23011 1.23014 1.23011 1.23013 1.23012 1.23023 1.23004 1.23022 1.23004 1.23021 1.23005
          1.2302 1.23006 1.23019 1.23006 1.23018 1.23007 1.23018 1.23008 1.23017 1.23008 1.23016 1.23009
          1.23015 1.2301 1.23014 1.23011 1.23014 1.23011 1.23013 1.23012 1.23023 1.23003 1.23022 1.23004
          1.23021 1.23005 1.2302 1.23006 1.23019 1.23006 1.23018 1.23007 1.23018 1.23008 1.23017 1.23008
          1.23016 1.23009 1.23015 1.2301 1.23014 1.23011 1.23014 1.23011 1.23013 1.23012 1.23023 1.23004
          1.23022 1.23004 1.23021 1.23005 1.2302 1.23006 1.23019 1.23006 1.23018 1.23007 1.23018 1.23008
          1.23017 1.23008 1.23016 1.23009 1.23015 1.2301 1.23014 1.23011 1.23014 1.23011 1.23013 1.23012
          1.23023 1.23003 1.23022 1.23004 1.23021 1.23005 1.2302 1.23006 1.23019 1.23006 1.23018 1.23007
          1.23018 1.23008 1.23017 1.23008 1.23016 1.23009 1.23015 1.2301 1.23014 1.23011 1.23014 1.23011
          1.23013 1.23012 1.23023 1.23003 1.23022 1.23004 1.23021 1.23005 1.2302 1.23006 1.23019 1.23006
          1.23019 1.23007 1.23018 1.23008 1.23017 1.23008 1.23016 1.23009 1.23015 1.2301 1.23014 1.23011
          1.23014 1.23011 1.23013 1.23012 1.23023 1.23003 1.23022 1.23004 1.23021 1.23005 1.2302 1.23006
          1.23019 1.23006 1.23018 1.23007 1.23018 1.23008 1.23017 1.23008 1.23016 1.23009 1.23015 1.2301
          1.23014 1.23011 1.23014 1.23011 1.23013 1.23012 1.23023 1.23003 1.23022 1.23004 1.23021 1.23005
          1.2302 1.23006 1.23019 1.23006 1.23019 1.23007 1.23018 1.23008 1.23017 1.23008 1.23016 1.23009
          1.23015 1.2301 1.23014 1.23011 1.23014 1.23011 1.23013 1.23012
        </DataArray>
        <DataArray type="Float32" Name="mu" NumberOfComponents="1" format="ascii">
          1.76803e-05 1.76803e-05 1.76803e-05 1.76803e-05 1.76803e-05 1.76803e-05 1.76803e-05 1.76803e-05 1.76803e-05 1.76803e-05 1.76803e-05 1.76803e-05
          1.76803e-05 1.76803e-05 1.76803e-05 1.76803e-05 1.76803e-05 1.76803e-05 1.76803e-05 1.76803e-05 1.76803e-05 1.76803e-05 1.76803e-05 1.76803e-05
          1.76803e-05 1.76803e-05 1.76803e-05 1.76803e-05 1.76803e-05 1.76803e-05 1.76803e-05 1.76803e-05 1.76803e-05 1.76803e-05 1.76803e-05 1.76803e-05
          1.76803e-05 1.76803e-05 1.76803e-05 1.76803e-05 1.76803e-05 1.76803e-05 1.76803e-05 1.76803e-05 1.76803e-05 1.76803e-05 1.76803e-05 1.76803e-05
          1.76803e-05 1.76803e-05 1.76803e-05 1.76803e-05 1.76803e-05 1.76803e-05 1.76803e-05 1.76803e-05 1.76803e-05 1.76803e-05 1.76803e-05 1.76803e-05
          1.76803e-05 1.76803e-05 1.76803e-05 1.76803e-05 1.76803e-05 1.76803e-05 1.76803e-05 1.76803e-05 1.76803e-05 1.76803e-05 1.76803e-05 1.76803e-05
          1.76803e-05 1.76803e-05 1.76803e-05 1.76803e-05 1.76803e-05 1.76803e-05 1.76803e-05 1.76803e-05 1.76803e-05 1.76803e-05 1.76803e-05 1.76803e-05
          1.76803e-05 1.76803e-05 1.76803e-05 1.76803e-05 1.76803e-05 1.76803e-05 1.76803e-05 1.76803e-05 1.76803e-05 1.76803e-05 1.76803e-05 1.76803e-05
          1.76803e-05 1.76803e-05 1.76803e-05 1.76803e-05 1.76803e-05 1.76803e-05 1.76803e-05 1.76803e-05 1.76803e-05 1.76803e-05 1.76803e-05 1.76803e-05
          1.76803e-05 1.76803e-05 1.76803e-05 1.76803e-05 1.76803e-05 1.76803e-05 1.76803e-05 1.76803e-05 1.76803e-05 1.76803e-05 1.76803e-05 1.76803e-05
          1.76803e-05 1.76803e-05 1.76803e-05 1.76803e-05 1.76803e-05 1.76803e-05 1.76803e-05 1.76803e-05 1.76803e-05 1.76803e-05 1.76803e-05 1.76803e-05
          1.76803e-05 1.76803e-05 1.76803e-05 1.76803e-05 1.76803e-05 1.76803e-05 1.76803e-05 1.76803e-05 1.76803e-05 1.76803e-05 1.76803e-05 1.76803e-05
          1.76803e-05 1.76803e-05 1.76803e-05 1.76803e-05 1.76803e-05 1.76803e-05 1.76803e-05 1.76803e-05 1.76803e-05 1.76803e-05 1.76803e-05 1.76803e-05
          1.76803e-05 1.76803e-05 1.76803e-05 1.76803e-05 1.76803e-05 1.76803e-05 1.76803e-05 1.76803e-05 1.76803e-05 1.76803e-05 1.76803e-05 1.76803e-05
          1.76803e-05 1.76803e-05 1.76803e-05 1.76803e-05 1.76803e-05 1.76803e-05 1.76803e-05 1.76803e-05 1.76803e-05 1.76803e-05 1.76803e-05 1.76803e-05
          1.76803e-05 1.76803e-05 1.76803e-05 1.76803e-05 1.76803e-05 1.76803e-05 1.76803e-05 1.76803e-05 1.76803e-05 1.76803e-05 1.76803e-05 1.76803e-05
          1.76803e-05 1.76803e-05 1.76803e-05 1.76803e-05 1.76803e-05 1.76803e-05 1.76803e-05 1.76803e-05 1.76803e-05 1.76803e-05 1.76803e-05 1.76803e-05
          1.76803e-05 1.76803e-05 1.76803e-05 1.76803e-05 1.76803e-05 1.76803e-05 1.76803e-05 1.76803e-05 1.76803e-05 1.76803e-05 1.76803e-05 1.76803e-05
          1.76803e-05 1.76803e-05 1.76803e-05 1.76803e-05 1.76803e-05 1.76803e-05 1.76803e-05 1.76803e-05 1.76803e-05 1.76803e-05 1.76803e-05 1.76803e-05
          1.76803e-05 1.76803e-05 1.76803e-05 1.76803e-05 1.76803e-05 1.76803e-05 1.76803e-05 1.76803e-05 1.76803e-05 1.76803e-05 1.76803e-05 1.76803e-05
          1.76803e-05 1.76803e-05 1.76803e-05 1.76803e-05 1.76803e-05 1.76803e-05 1.76803e-05 1.76803e-05 1.76803e-05 1.76803e-05 1.76803e-05 1.76803e-05
          1.76803e-05 1.76803e-05 1.76803e-05 1.76803e-05 1.76803e-05 1.76803e-05 1.76803e-05 1.76803e-05 1.76803e-05 1.76803e-05 1.76803e-05 1.76803e-05
          1.76803e-05 1.76803e-05 1.76803e-05 1.76803e-05 1.76803e-05 1.76803e-05 1.76803e-05 1.76803e-05 1.76803e-05 1.76803e-05 1.76803e-05 1.76803e-05
          1.76803e-05 1.76803e-05 1.76803e-05 1.76803e-05 1.76803e-05 1.76803e-05 1.76803e-05 1.76803e-05 1.76803e-05 1.76803e-05 1.76803e-05 1.76803e-05
          1.76803e-05 1.76803e-05 1.76803e-05 1.76803e-05 1.76803e-05 1.76803e-05 1.76803e-05 1.76803e-05 1.76803e-05 1.76803e-05 1.76803e-05 1.76803e-05
          1.76803e-05 1.76803e-05 1.76803e-05 1.76803e-05 1.76803e-05 1.76803e-05 1.76803e-05 1.76803e-05 1.76803e-05 1.76803e-05 1.76803e-05 1.76803e-05
          1.76803e-05 1.76803e-05 1.76803e-05 1.76803e-05 1.76803e-05 1.76803e-05 1.76803e-05 1.76803e-05 1.76803e-05 1.76803e-05 1.76803e-05 1.76803e-05
          1.76803e-05 1.76803e-05 1.76803e-05 1.76803e-05 1.76803e-05 1.76803e-05 1.76803e-05 1.76803e-05 1.76803e-05 1.76803e-05 1.76803e-05 1.76803e-05
          1.76803e-05 1.76803e-05 1.76803e-05 1.76803e-05 1.76803e-05 1.76803e-05 1.76803e-05 1.76803e-05 1.76803e-05 1.76803e-05 1.76803e-05 1.76803e-05
          1.76803e-05 1.76803e-05 1.76803e-05 1.76803e-05 1.76803e-05 1.76803e-05 1.76803e-05 1.76803e-05 1.76803e-05 1.76803e-05 1.76803e-05 1.76803e-05
          1.76803e-05 1.76803e-05 1.76803e-05 1.76803e-05 1.76803e-05 1.76803e-05 1.76803e-05 1.76803e-05 1.76803e-05 1.76803e-05 1.76803e-05 1.76803e-05
          1.76803e-05 1.76803e-05 1.76803e-05 1.76803e-05 1.76803e-05 1.76803e-05 1.76803e-05 1.76803e-05 1.76803e-05 1.76803e-05 1.76803e-05 1.76803e-05
          1.76803e-05 1.76803e-05 1.76803e-05 1.76803e-05 1.76803e-05 1.76803e-05 1.76803e-05 1.76803e-05 1.76803e-05 1.76803e-05 1.76803e-05 1.76803e-05
          1.76803e-05 1.76803e-05 1.76803e-05 1.76803e-05 1.76803e-05 1.76803e-05 1.76803e-05 1.76803e-05 1.76803e-05 1.76803e-05 1.76803e-05 1.76803e-05
          1.76803e-05 1.76803e-05 1.76803e-05 1.76803e-05 1.76803e-05 1.76803e-05 1.76803e-05 1.76803e-05
        </DataArray>
        <DataArray type="Float32" Name="v" NumberOfComponents="3" format="ascii">
          0 0 0 0 0 0 2.5 0 0 2.3606 0.105111 0
          0 0 0 2.21443 0.0261868 0 0 0 0 2.18679 0.0493551 0
          0 0 0 2.02898 0.0217567 0 0 0 0 2.06397 0.0282476 0
          0 0 0 1.91357 0.0152399 0 0 0 0 1.98168 0.0167167 0
          0 0 0 1.83686 0.00943365 0 0 0 0 1.92322 0.0104824 0
          0 0 0 1.78154 0.00686744 0 0 0 0 1.87914 0.00812038 0
          0 0 0 1.73947 0.0058951 0 0 0 0 1.84484 0.00668907 0
          0 0 0 1.70641 0.00459705 0 0 0 0 1.81752 0.00499791 0
          0 0 0 1.67982 0.00316719 0 0 0 0 1.79557 0.00368212 0
          0 0 0 1.65825 0.00224311 0 0 0 0 1.77845 0.00294956 0
          0 0 0 1.64165 0.00134829 0 0 0 0 1.76734 0.00210155 0
          0 0 0 1.63237 -0.00131066 0 0 0 0 1.76957 -0.000965012 0
          0 0 0 1.64922 -0.0327004 0 0.512448 -0.00905061 0 1.74786 -0.0454802 0
          2.5 0 0 2.67577 0.128216 0 2.56747 0.0560222 0 2.62146 0.0820775 0
          2.49572 0.0458592 0 2.53612 0.0519337 0 2.41148 0.0327085 0 2.45982 0.0351271 0
          2.33999 0.0240322 0 2.39776 0.0256046 0 2.2825 0.0184377 0 2.34803 0.0195834 0
          2.2365 0.0144594 0 2.30801 0.0154809 0 2.1991 0.0115667 0 2.27523 0.0125315 0
          2.16822 0.00929499 0 2.24824 0.0102721 0 2.14274 0.00720623 0 2.22655 0.00809584 0
          2.12269 0.00457836 0 2.21087 0.00515018 0 2.11 -0.000921105 0 2.20502 -0.00368055 0
          2.10581 -0.0252123 0 2.17463 -0.0301229 0 2.5 0 0 2.69509 0.0798849 0
          2.61694 0.0627745 0 2.72505 0.0869179 0 2.63314 0.0625306 0 2.70621 0.0702352 0
          2.60299 0.0505293 0 2.66313 0.0522534 0 2.55874 0.0380826 0 2.61771 0.0391276 0
          2.51572 0.0298964 0 2.57704 0.0311036 0 2.47819 0.0244359 0 2.54242 0.0254418 0
          2.44592 0.0198125 0 2.51264 0.0205488 0 2.41801 0.0156972 0 2.48711 0.0166099 0
          2.39414 0.0122695 0 2.46599 0.0132208 0 2.37485 0.00852218 0 2.44993 0.0087965 0
          2.36139 0.00130256 0 2.43982 -0.00224795 0 2.35047 -0.0176815 0 2.41625 -0.0207246 0
          2.5 0 0 2.64946 0.0592737 0 2.56917 0.05382 0 2.69691 0.0747139 0
          2.61746 0.0583905 0 2.72386 0.0669875 0 2.64044 0.0536125 0 2.72973 0.0565919 0
          2.63982 0.0455719 0 2.71608 0.0467711 0 2.62376 0.0378322 0 2.69344 0.0382822 0
          2.6025 0.0309556 0 2.67 0.0316942 0 2.58072 0.0257517 0 2.6478 0.0266 0
          2.56023 0.0214211 0 2.62774 0.0223641 0 2.5417 0.0172127 0 2.61033 0.0179275 0
          2.52593 0.0121992 0 2.59616 0.0120209 0 2.5137 0.00365338 0 2.58501 0.000363079 0
          2.50143 -0.0126926 0 2.56776 -0.0150049 0 2.5 0 0 2.63412 0.0349198 0
          2.55106 0.0443112 0 2.6726 0.0629614 0 2.59409 0.0532697 0 2.70167 0.0609513 0
          2.62233 0.0502647 0 2.72285 0.0538578 0 2.6414 0.0456392 0 2.73574 0.0470554 0
          2.65292 0.0409103 0 2.7397 0.0413314 0 2.65451 0.0357448 0 2.73383 0.0361163 0
          2.6485 0.030605 0 2.72258 0.0307371 0 2.63881 0.0254196 0 2.7102 0.0259441 0
          2.6279 0.0206676 0 2.6984 0.0211764 0 2.61764 0.0153512 0 2.68797 0.0148943 0
          2.6086 0.00648192 0 2.67838 0.00337939 0 2.59795 -0.00866354 0 2.66555 -0.0107886 0
          2.5 0 0 2.61589 0.0291276 0 2.52758 0.0363739 0 2.64763 0.0514099 0
          2.56865 0.0448705 0 2.67801 0.0527081 0 2.59941 0.0439763 0 2.7011 0.0480805 0
          2.62213 0.0404923 0 2.71974 0.0422538 0 2.63977 0.0368929 0 2.73532 0.0379964 0
          2.6543 0.0341815 0 2.7468 0.0343851 0 2.66581 0.0312532 0 2.75313 0.031013 0
          2.67121 0.0274745 0 2.75302 0.0275499 0 2.67156 0.0230465 0 2.74886 0.0228985 0
          2.66908 0.0173567 0 2.74347 0.0163889 0 2.66496 0.00825557 0 2.73675 0.00557282 0
          2.65706 -0.0061205 0 2.72706 -0.00797699 0 2.5 0 0 2.61454 0.017912 0
          2.5245 0.0290671 0 2.63923 0.0415278 0 2.55671 0.0392487 0 2.66417 0.0455523 0
          2.58449 0.0391131 0 2.68601 0.0427907 0 2.60742 0.0365179 0 2.70463 0.0388451 0
          2.62604 0.0335257 0 2.72077 0.0349573 0 2.64232 0.0308288 0 2.7357 0.0311768 0
          2.65663 0.028201 0 2.7493 0.0283642 0 2.66926 0.0258335 0 2.76037 0.025497 0
          2.68069 0.0228425 0 2.76823 0.0219779 0 2.68835 0.0180413 0 2.7722 0.0165552 0
          2.69154 0.00979536 0 2.77037 0.00715699 0 2.68824 -0.00354054 0 2.76084 -0.00533769 0
          2.5 0 0 2.60613 0.0160298 0 2.51316 0.0242998 0 2.62592 0.0340193 0
          2.54199 0.0326688 0 2.65039 0.0382513 0 2.56939 0.0332162 0 2.67222 0.0365504 0
          2.59274 0.0310851 0 2.69142 0.0331067 0 2.61303 0.0285897 0 2.7085 0.0301382 0
          2.63081 0.0266022 0 2.72392 0.0276517 0 2.64617 0.0245836 0 2.73782 0.0252747 0
          2.66009 0.0224698 0 2.75078 0.0223527 0 2.67253 0.0197525 0 2.76265 0.0193586 0
          2.68323 0.0157555 0 2.77241 0.0146427 0 2.69158 0.00934864 0 2.77705 0.00672784 0
          2.6941 -0.00114366 0 2.77024 -0.00244589 0 2.5 0 0 2.607 0.0103625 0
          2.51382 0.0189219 0 2.62422 0.026524 0 2.53826 0.0275625 0 2.64481 0.0316899 0
          2.56237 0.0285423 0 2.6647 0.0311374 0 2.58419 0.0270718 0 2.68277 0.0289062 0
          2.6034 0.0250244 0 2.69919 0.0263042 0 2.62091 0.0229689 0 2.7146 0.0237487 0
          2.63709 0.0210196 0 2.72888 0.0216576 0 2.65187 0.0192356 0 2.74194 0.0195356 0
          2.66477 0.0169343 0 2.75355 0.0169587 0 2.67614 0.0133978 0 2.76312 0.0125854 0
          2.68483 0.00795963 0 2.769 0.00565445 0 2.68787 0.000305188 0 2.76607 -0.000568075 0
          2.5 0 0 2.60117 0.00934021 0 2.50812 0.0155511 0 2.61555 0.0213695 0
          2.52854 0.0223248 0 2.63629 0.0257853 0 2.55208 0.0232617 0 2.65656 0.0254261 0
          2.57436 0.0219853 0 2.67521 0.0233818 0 2.59471 0.0202776 0 2.69214 0.0213931 0
          2.61294 0.0188092 0 2.70749 0.0197209 0 2.6291 0.0173853 0 2.72151 0.0180453 0
          2.64386 0.015812 0 2.73451 0.0160476 0 2.65731 0.0137921 0 2.74614 0.0137574 0
          2.6691 0.0108994 0 2.75556 0.010286 0 2.67778 0.00647699 0 2.76123 0.00497277 0
          2.68093 0.00073552 0 2.761 3.63416e-05 0 2.5 0 0 2.60459 0.00614863 0
          2.5101 0.0110832 0 2.61796 0.0162408 0 2.52896 0.0171412 0 2.63644 0.0199496 0
          2.55069 0.0185811 0 2.65495 0.0200357 0 2.57147 0.0179543 0 2.67215 0.0188339 0
          2.5903 0.0167106 0 2.68795 0.0172784 0 2.60759 0.0153098 0 2.70281 0.0157156 0
          2.62368 0.0139641 0 2.71668 0.0143229 0 2.63844 0.0127053 0 2.72932 0.0128994 0
          2.65154 0.0111328 0 2.74042 0.0110764 0 2.66284 0.00871721 0 2.74944 0.00820095 0
          2.67122 0.00507745 0 2.75505 0.00400267 0 2.675 0.000662909 0 2.75641 0.000106952 0
          2.5 0 0 2.60398 0.00471398 0 2.50705 0.0086321 0 2.61414 0.012049 0
          2.52395 0.012869 0 2.63093 0.0148305 0 2.54445 0.0139319 0 2.64942 0.014871 0
          2.56508 0.0133245 0 2.66722 0.0137782 0 2.58468 0.0123049 0 2.68373 0.0126323 0
          2.6026 0.011344 0 2.6988 0.0116783 0 2.61864 0.0104414 0 2.71254 0.0106742 0
          2.63323 0.00947134 0 2.7251 0.00945269 0 2.64652 0.00823196 0 2.73615 0.00801259 0
          2.65792 0.00640334 0 2.74495 0.00602044 0 2.66608 0.00368142 0 2.75029 0.00313741 0
          2.66973 0.000222217 0 2.75213 -0.000245275 0 2.5 0 0 2.60271 0.00263106 0
          2.50748 0.00545074 0 2.61389 0.0077028 0 2.52418 0.00847274 0 2.63071 0.00966133 0
          2.54425 0.0092815 0 2.64891 0.00974745 0 2.5643 0.00913833 0 2.66609 0.00909916 0
          2.58297 0.00859045 0 2.68184 0.00837696 0 2.60011 0.00782633 0 2.69653 0.00771643 0
          2.61589 0.00708223 0 2.71021 0.00702583 0 2.63029 0.00645375 0 2.72255 0.00624484 0
          2.64312 0.00568228 0 2.73321 0.00532298 0 2.65399 0.00436915 0 2.74175 0.00405344 0
          2.66181 0.00240162 0 2.74702 0.00219019 0 2.66574 -0.000165463 0 2.74887 -0.00054178 0
          2.5 0 0 2.59932 0.00141399 0 2.50579 0.00278058 0 2.60905 0.00389194 0
          2.52136 0.0042544 0 2.62528 0.00489454 0 2.54083 0.00467686 0 2.64337 0.00488328 0
          2.56062 0.0045935 0 2.66132 0.00440845 0 2.57934 0.00429428 0 2.67827 0.00403073 0
          2.59662 0.00389563 0 2.69373 0.00381719 0 2.61237 0.00353859 0 2.7077 0.00349556 0
          2.62664 0.0032467 0 2.72043 0.00299949 0 2.6394 0.00286046 0 2.73168 0.0024925 0
          2.65023 0.00211764 0 2.74047 0.00202638 0 2.65822 0.00108257 0 2.74553 0.00116582 0
          2.66219 -0.000510737 0 2.74573 -0.000757785 0 2.5 0 0 2.60115 0 0
          2.50665 0 0 2.61155 0 0 2.5227 0 0 2.62808 0 0
          2.54264 0 0 2.64642 0 0 2.56257 0 0 2.66423 0 0
          2.58062 0 0 2.6807 0 0 2.5971 0 0 2.69575 0 0
          2.61264 0 0 2.70961 0 0 2.62687 0 0 2.72224 0 0
          2.63909 0 0 2.73324 0 0 2.64908 0 0 2.74152 0 0
          2.65689 0 0 2.74611 0 0 2.66075 0 0 2.74437 -0.000309195 0
        </DataArray>
      </PointData>
      <CellData Scalars="mu_t">
        <DataArray type="Float32" Name="mu_t" NumberOfComponents="1" format="ascii">
          0.0124325 0.0115859 0.0110715 0.0105238 0.0101616 0.00982183 0.00957983 0.00935456 0.00918302 0.00902092 0.00889181 0.00876875
          0.00866843 0.00857183 0.00849204 0.00841445 0.00835043 0.00828754 0.00823764 0.00818927 0.00815692 0.00812989 0.00813641 0.00818541
          0.00664187 0.00742385 0.0157352 0.0185451 0.021216 0.0220935 0.0228216 0.0229586 0.0230773 0.0229895 0.022935 0.0227995
          0.022704 0.0225677 0.0224634 0.0223333 0.0222305 0.0221104 0.0220167 0.0219081 0.0218258 0.0217176 0.0216367 0.021447
          0.020954 0.0206964 0.00125517 0.00446806 0.00994043 0.0156515 0.0199704 0.0234832 0.02564 0.0274085 0.0284889 0.0294287
          0.0300174 0.0305671 0.0309172 0.0312505 0.0314453 0.0316378 0.0317331 0.0318378 0.0318751 0.0319239 0.0318989 0.031849
          0.0315729 0.0311358 0.0315758 0.00579513 0.0118612 0.00963892 0.00556353 0.00118006 0.00699448 0.0132116 0.0187533 0.0227881
          0.0262104 0.0284988 0.0305655 0.0319863 0.0333173 0.0342785 0.0352211 0.035916 0.0365935 0.0370648 0.0375126 0.0377526
          0.0379071 0.0377749 0.0376046 0.0384074 0.00321598 0.00701323 0.00889512 0.00999714 0.00955179 0.00844987 0.00524093 0.00111278
          0.00445171 0.0102351 0.0158148 0.0206058 0.0242883 0.0275957 0.0298947 0.0321592 0.0337688 0.0353672 0.0365419 0.0376968
          0.0384831 0.039153 0.0394794 0.039818 0.0407448 0.00570702 0.0130601 0.01517 0.0157828 0.0153746 0.014582 0.0139822
          0.0128407 0.0110417 0.00912501 0.00548534 0.00143408 0.003999 0.00948356 0.0149851 0.0197088 0.0235498 0.0270732 0.0294654
          0.0319014 0.0334783 0.0350192 0.0359201 0.0367791 0.0377602 0.000591263 0.00193514 0.00501564 0.00889018 0.0112662 0.0125706
          0.0131203 0.0130281 0.0130331 0.0126079 0.012367 0.0116005 0.0100934 0.00886869 0.00568925 0.00252893 0.00236032 0.00720732
          0.0124633 0.0168936 0.0209844 0.0241784 0.0263165 0.0283319 0.028402 0.00489324 0.0114912 0.0143429 0.0163107 0.0165859
          0.0168066 0.0168089 0.0165677 0.0162341 0.0152573 0.0147077 0.0138341 0.0135516 0.0129406 0.0127633 0.0120128 0.0109178
          0.0103332 0.00799619 0.00622584 0.00285589 0.000149707 0.00390987 0.00729353 0.00888051 0.000647712 0.00113604 0.000833867 0.00406594
          0.00696393 0.00942153 0.0108673 0.012009 0.0128528 0.0136572 0.0141507 0.0143542 0.0143588 0.0137502 0.013475 0.012833
          0.0127528 0.0124047 0.0125985 0.0120939 0.0122379 0.0119908 0.0110638 0.0106764 0.00778057 0.00544139 0.0107577 0.0134059
          0.0171597 0.0170235 0.017561 0.0172063 0.0167689 0.0162342 0.0151763 0.0146991 0.0140295 0.0140811 0.0140916 0.0143284
          0.0143504 0.014414 0.0139037 0.0138856 0.0134919 0.0136318 0.0136378 0.013823 0.0137178 0.0111986 0.00390523 0.00615896
          0.00500151 0.00322702 0.000655194 0.00139985 0.00341078 0.00513283 0.00678384 0.00851821 0.00980462 0.0108672 0.0114364 0.0115211
          0.0116848 0.0116803 0.0120842 0.0124819 0.0130962 0.0136711 0.0141188 0.0144498 0.0145358 0.0138151 0.0119991 0.000838025
          0.00500444 0.00938774 0.0120752 0.0143833 0.0160699 0.016113 0.0163111 0.0154769 0.0144218 0.0134641 0.0126155 0.0123205
          0.0123812 0.0125558 0.0127852 0.0129071 0.012651 0.0127062 0.012566 0.012872 0.0131724 0.0135302 0.0137104 0.0130582
          0.00205714 0.001371 0.000412212 0.00021513 0.000191984 0.000690914 0.00114475 0.00207572 0.00307909 0.00458578 0.00580924 0.00705896
          0.00767115 0.00810687 0.00822039 0.0085263 0.00886533 0.00960476 0.0102439 0.0110921 0.0115092 0.0120661 0.012185 0.0117395
          0.0117194 0.00637956 0.0095569 0.0123037 0.0144477 0.0155413 0.0166595 0.0168768 0.0173765 0.0159228 0.0158213 0.0135562
          0.0133093 0.0118721 0.0119182 0.0113695 0.0116167 0.0108841 0.0110166 0.00989289 0.00995993 0.00949056 0.00917299 0.00957103
          0.00948838 0.012603 0.00398855 0.0058455 0.00729994 0.00834333 0.00896929 0.00998666 0.0105443 0.0108649 0.0105561 0.00910184
          0.00804953 0.00631512 0.00545455 0.00500273 0.00474835 0.00465495 0.00444872 0.00326534 0.00269916 0.00190611 0.00131262 0.00161116
          0.00186643 0.00203928 0.00608586
        </DataArray>