<?xml version="1.0"?>
<VTKFile type="UnstructuredGrid" version="0.1" byte_order="LittleEndian">
  <UnstructuredGrid>
    <Piece NumberOfCells="375" NumberOfPoints="416">
      <PointData Scalars="P" Vectors="v">
        <DataArray type="Float32" Name="P" NumberOfComponents="1" format="ascii">
          100008 99994.4 100008 99994.4 100008 100008 99994.2 99994.2 100007 100007 99994.6 99994.6
          100006 100006 99995 99995.1 100006 100006 99995.6 99995.6 100005 100005 99996.1 99996.1
          100005 100005 99996.7 99996.7 100004 100004 99997.2 99997.2 100003 100003 99997.8 99997.8
          100003 100003 99998.3 99998.3 100002 100002 99998.9 99998.9 100001 100001 99999.4 99999.4
          100001 100001 100000 100000 100010 99993.5 100008 99994 100007 99994.5 100006 99995
          100006 99995.6 100005 99996.1 100005 99996.7 100004 99997.2 100003 99997.8 100003 99998.3
          100002 99998.9 100001 99999.4 100001 100000 100009 99993.5 100008 99994 100007 99994.5
          100007 99995 100006 99995.6 100005 99996.1 100005 99996.7 100004 99997.2 100003 99997.8
          100003 99998.3 100002 99998.9 100001 99999.4 100001 100000 100009 99993.3 100008 99993.9
          100007 99994.4 100007 99995 100006 99995.5 100005 99996.1 100005 99996.6 100004 99997.2
          100003 99997.8 100003 99998.3 100002 99998.9 100001 99999.4 100001 100000 100009 99993.3
          100008 99993.9 100007 99994.4 100007 99995 100006 99995.5 100005 99996.1 100005 99996.6
          100004 99997.2 100003 99997.8 100003 99998.3 100002 99998.9 100001 99999.4 100001 100000
          100009 99993.2 100008 99993.8 100007 99994.4 100007 99994.9 100006 99995.5 100005 99996.1
          100005 99996.6 100004 99997.2 100003 99997.8 100003 99998.3 100002 99998.9 100001 99999.4
          100001 100000 100009 99993.2 100008 99993.8 100007 99994.4 100007 99995 100006 99995.5
          100005 99996.1 100005 99996.6 100004 99997.2 100003 99997.7 100003 99998.3 100002 99998.9
          100001 99999.4 100001 100000 100009 99993.1 100008 99993.7 100007 99994.3 100007 99994.9
          100006 99995.5 100005 99996.1 100005 99996.6 100004 99997.2 100003 99997.7 100003 99998.3
          100002 99998.9 100001 99999.4 100001 100000 100009 99993.2 100008 99993.8 100007 99994.4
          100007 99994.9 100006 99995.5 100005 99996.1 100005 99996.6 100004 99997.2 100003 99997.7
          100003 99998.3 100002 99998.9 100001 99999.4 100001 100000 100009 99993.1 100008 99993.7
          100007 99994.3 100007 99994.9 100006 99995.5 100005 99996 100005 99996.6 100004 99997.2
          100003 99997.7 100003 99998.3 100002 99998.9 100001 99999.4 100001 100000 100009 99993.1
          100008 99993.8 100007 99994.3 100007 99994.9 100006 99995.5 100005 99996.1 100005 99996.6
          100004 99997.2 100003 99997.7 100003 99998.3 100002 99998.9 100001 99999.4 100001 100000
          100009 99993.1 100008 99993.7 100007 99994.3 100007 99994.9 100006 99995.5 100005 99996
          100005 99996.6 100004 99997.2 100003 99997.7 100003 99998.3 100002 99998.9 100001 99999.4
          100001 100000 100009 99993.1 100008 99993.7 100007 99994.3 100007 99994.9 100006 99995.5
          100005 99996 100005 99996.6 100004 99997.2 100003 99997.7 100003 99998.3 100002 99998.9
          100001 99999.4 100001 100000 100009 99993.1 100008 99993.7 100007 99994.3 100007 99994.9
          100006 99995.5 100005 99996 100005 99996.6 100004 99997.2 100003 99997.7 100003 99998.3
          100002 99998.9 100001 99999.4 100001 100000 100009 99993.1 100008 99993.7 100007 99994.3
          100007 99994.9 100006 99995.5 100005 99996.1 100005 99996.6 100004 99997.2 100003 99997.7
          100003 99998.3 100002 99998.9 100001 99999.4 100001 100000
        </DataArray>
        <DataArray type="Float32" Name="delP" NumberOfComponents="1" format="ascii">
          7.99548 -5.64979 8.02925 -5.61602 7.59981 7.60944 -5.77319 -5.75678 7.03753 7.04405 -5.42798 -5.41918
          6.41956 6.4238 -4.95149 -4.94658 5.78741 5.78985 -4.42478 -4.42186 5.15253 5.15423 -3.88099 -3.87878
          4.51257 4.514 -3.33313 -3.33135 3.86978 3.87087 -2.78156 -2.78026 3.22813 3.22884 -2.22617 -2.22524
          2.5864 2.58689 -1.66881 -1.66808 1.93944 1.93973 -1.11109 -1.11053 1.27924 1.27871 -0.556178 -0.55527
          0.583652 0.568192 0 0 9.66331 -6.46304 8.0246 -5.95793 7.16698 -5.4811 6.47403 -4.96753
          5.81812 -4.43123 5.16978 -3.88582 4.52336 -3.33645 3.87905 -2.78324 3.23654 -2.22765 2.59347 -1.67122
          1.94647 -1.11563 1.29104 -0.567393 0.621732 0 9.39626 -6.46605 8.09638 -5.99709 7.24849 -5.49541
          6.52735 -4.9795 5.84762 -4.44139 5.1918 -3.89019 4.54263 -3.33883 3.89311 -2.78714 3.24642 -2.23262
          2.60294 -1.67548 1.95747 -1.11915 1.30538 -0.567737 0.652084 0 9.07436 -6.72361 8.16835 -6.11418
          7.30857 -5.57135 6.56983 -5.01685 5.88644 -4.46112 5.21586 -3.90843 4.55615 -3.35461 3.90705 -2.79659
          3.26248 -2.23909 2.61753 -1.68289 1.97098 -1.12769 1.32417 -0.572863 0.687244 0 9.0767 -6.67683
          8.1813 -6.11772 7.352 -5.56405 6.60556 -5.0156 5.90409 -4.46918 5.23538 -3.90972 4.58052 -3.355
          3.92497 -2.80251 3.2737 -2.24859 2.62997 -1.69025 1.98755 -1.13157 1.3455 -0.572408 0.711767 0
          8.88161 -6.83399 8.16226 -6.20774 7.3742 -5.62917 6.63123 -5.05313 5.9299 -4.48145 5.24817 -3.92156
          4.58313 -3.36946 3.93299 -2.80971 3.28953 -2.25262 2.64561 -1.69689 2.00087 -1.14049 1.36346 -0.578626
          0.741453 0 8.93791 -6.77554 8.18429 -6.18594 7.40607 -5.61391 6.66094 -5.04918 5.94863 -4.48854
          5.26565 -3.92371 4.59991 -3.36192 3.94128 -2.80644 3.29153 -2.25689 2.65215 -1.69986 2.01525 -1.14019
          1.38491 -0.578356 0.766129 0 8.80197 -6.89102 8.1323 -6.26224 7.39814 -5.66893 6.67018 -5.08336
          5.96528 -4.50458 5.2773 -3.93775 4.60526 -3.37784 3.94843 -2.81617 3.30106 -2.25594 2.65809 -1.69765
          2.01945 -1.14198 1.39407 -0.582342 0.788423 0 8.86768 -6.82808 8.16775 -6.22329 7.42863 -5.64399
          6.69572 -5.07285 5.98252 -4.50558 5.29287 -3.93751 4.62059 -3.37295 3.95852 -2.815 3.3065 -2.26103
          2.66541 -1.70369 2.03218 -1.14322 1.40838 -0.576992 0.80176 0 8.75287 -6.92204 8.10499 -6.29334
          7.40014 -5.69252 6.68925 -5.10323 5.98781 -4.52135 5.29864 -3.95069 4.62377 -3.38684 3.96354 -2.82375
          3.31398 -2.26221 2.67144 -1.70351 2.03671 -1.14512 1.41491 -0.579689 0.812447 0 8.83213 -6.85905
          8.15099 -6.24367 7.43553 -5.65825 6.71634 -5.08553 6.00538 -4.51592 5.31238 -3.94672 4.63631 -3.38121
          3.97233 -2.82183 3.31926 -2.26563 2.67761 -1.70761 2.04637 -1.14588 1.42593 -0.576786 0.821042 0
          8.74938 -6.94398 8.09149 -6.31382 7.40006 -5.70943 6.69688 -5.11543 5.99797 -4.53056 5.30929 -3.95747
          4.63412 -3.39203 3.9729 -2.82839 3.32245 -2.26621 2.68045 -1.7069 2.04829 -1.1473 1.42947 -0.579934
          0.827588 0 8.80857 -6.8731 8.13964 -6.25445 7.43814 -5.66478 6.72627 -5.08924 6.01713 -4.51847
          5.3224 -3.94943 4.64449 -3.38432 3.97986 -2.82445 3.32627 -2.26705 2.68416 -1.7086 2.05433 -1.14724
          1.43711 -0.578607 0.834638 0 8.72224 -6.94919 8.08107 -6.32419 7.39736 -5.71853 6.69784 -5.12214
          5.99935 -4.53394 5.31028 -3.95861 4.6358 -3.39292 3.97531 -2.8293 3.32455 -2.26612 2.68247 -1.70613
          2.05241 -1.14762 1.43739 -0.582088 0.83846 0 8.79549 -6.87594 8.13527 -6.25729 7.43864 -5.66622
          6.72897 -5.08917 6.01966 -4.5168 5.3242 -3.94774 4.64677 -3.38393 3.98291 -2.82443 3.32896 -2.26604
          2.6862 -1.70718 2.05708 -1.14765 1.44238 -0.58088 0.842692 0
        </DataArray>
        <DataArray type="Float32" Name="rho" NumberOfComponents="1" format="ascii">
          1.23022 1.23005 1.23022 1.23005 1.23021 1.23021 1.23005 1.23005 1.23021 1.23021 1.23005 1.23005
          1.2302 1.2302 1.23006 1.23006 1.23019 1.23019 1.23007 1.23007 1.23018 1.23018 1.23007 1.23007
          1.23018 1.23018 1.23008 1.23008 1.23017 1.23017 1.23009 1.23009 1.23016 1.23016 1.23009 1.23009
          1.23015 1.23015 1.2301 1.2301 1.23014 1.23014 1.23011 1.23011 1.23014 1.23014 1.23011 1.23011
          1.23013 1.23013 1.23012 1.23012 1.23024 1.23004 1.23022 1.23005 1.23021 1.23005 1.2302 1.23006
          1.23019 1.23006 1.23018 1.23007 1.23018 1.23008 1.23017 1.23009 1.23016 1.23009 1.23015 1.2301
          1.23014 1.23011 1.23014 1.23011 1.23013 1.23012 1.23024 1.23004 1.23022 1.23005 1.23021 1.23005
          1.2302 1.23006 1.23019 1.23006 1.23018 1.23007 1.23018 1.23008 1.23017 1.23009 1.23016 1.23009
          1.23015 1.2301 1.23014 1.23011 1.23014 1.23011 1.23013 1.23012 1.23023 1.23004 1.23022 1.23004
          1.23021 1.23005 1.2302 1.23006 1.23019 1.23006 1.23018 1.23007 1.23018 1.23008 1.23017 1.23009
          1.23016 1.23009 1.23015 1.2301 1.23014 1.23011 1.23014 1.23011 1.23013 1.23012 1.23023 1.23004
          1.23022 1.23004 1.23021 1.23005 1.2302 1.23006 1.23019 1.23006 1.23018 1.23007 1.23018 1.23008
          1.23017 1.23009 1.23016 1.23009 1.23015 1.2301 1.23014 1.23011 1.23014 1.23011 1.23013 1.23012
          1.23023 1.23004 1.23022 1.23004 1.23021 1.23005 1.2302 1.23006 1.23019 1.23006 1.23018 1.23007
          1.23018 1.23008 1.23017 1.23009 1.23016 1.23009 1.23015 1.2301 1.23014 1.23011 1.23014 1.23011
          1.23013 1.23012 1.23023 1.23004 1.23022 1.23004 1.23021 1.23005 1.2302 1.23006 1.23019 1.23006
          1.23018 1.23007 1.23018 1.23008 1.23017 1.23009 1.23016 1.23009 1.23015 1.2301 1.23014 1.23011
          1.23014 1.23011 1.23013 1.23012 1.23023 1.23003 1.23022 1.23004 1.23021 1.23005 1.2302 1.23006
          1.23019 1.23006 1.23018 1.23007 1.23018 1.23008 1.23017 1.23008 1.23016 1.23009 1.23015 1.2301
          1.23014 1.23011 1.23014 1.23011 1.23013 1.23012 1.23023 1.23004 1.23022 1.23004 1.23021 1.23005
          1.2302 1.23006 1.23019 1.23006 1.23018 1.23007 1.23018 1.23008 1.23017 1.23008 1.23016 1.23009
          1.23015 1.2301 1.23014 1.23011 1.23014 1.23011 1.23013 1.23012 1.23023 1.23003 1.23022 1.23004
          1.23021 1.23005 1.2302 1.23006 1.23019 1.23006 1.23018 1.23007 1.23018 1.23008 1.23017 1.23008
          1.23016 1.23009 1.23015 1.2301 1.23014 1.23011 1.23014 1.23011 1.23013 1.23012 1.23023 1.23004
          1.23022 1.23004 1.23021 1.23005 1.2302 1.23006 1.23019 1.23006 1.23018 1.23007 1.23018 1.23008
          1.23017 1.23008 1.23016 1.23009 1.23015 1.2301 1.23014 1.23011 1.23014 1.23011 1.23013 1.23012
          1.23023 1.23003 1.23022 1.23004 1.23021 1.23005 1.2302 1.23006 1.23019 1.23006 1.23018 1.23007
          1.23018 1.23008 1.23017 1.23008 1.23016 1.23009 1.23015 1.2301 1.23014 1.23011 1.23014 1.23011
          1.23013 1.23012 1.23023 1.23003 1.23022 1.23004 1.23021 1.23005 1.2302 1.23006 1.23019 1.23006
          1.23019 1.23007 1.23018 1.23008 1.23017 1.23008 1.23016 1.23009 1.23015 1.2301 1.23014 1.23011
          1.23014 1.23011 1.23013 1.23012 1.23023 1.23003 1.23022 1.23004 1.23021 1.23005 1.2302 1.23006
          1.23019 1.23006 1.23018 1.23007 1.23018 1.23008 1.23017 1.23008 1.23016 1.23009 1.23015 1.2301
          1.23014 1.23011 1.23014 1.23011 1.23013 1.23012 1.23023 1.23003 1.23022 1.23004 1.23021 1.23005
          1.2302 1.23006 1.23019 1.23006 1.23019 1.23007 1.23018 1.23008 1.23017 1.23008 1.23016 1.23009
          1.23015 1.2301 1.23014 1.23011 1.23014 1.23011 1.23013 1.23012
        </DataArray>
        <DataArray type="Float32" Name="mu" NumberOfComponents="1" format="ascii">
          1.75183e-05 1.75183e-05 1.75183e-05 1.75183e-05 1.75183e-05 1.75183e-05 1.75183e-05 1.75183e-05 1.75183e-05 1.75183e-05 1.75183e-05 1.75183e-05
          1.75183e-05 1.75183e-05 1.75183e-05 1.75183e-05 1.75183e-05 1.75183e-05 1.75183e-05 1.75183e-05 1.75183e-05 1.75183e-05 1.75183e-05 1.75183e-05
          1.75183e-05 1.75183e-05 1.75183e-05 1.75183e-05 1.75183e-05 1.75183e-05 1.75183e-05 1.75183e-05 1.75183e-05 1.75183e-05 1.75183e-05 1.75183e-05
          1.75183e-05 1.75183e-05 1.75183e-05 1.75183e-05 1.75183e-05 1.75183e-05 1.75183e-05 1.75183e-05 1.75183e-05 1.75183e-05 1.75183e-05 1.75183e-05
          1.75183e-05 1.75183e-05 1.75183e-05 1.75183e-05 1.75183e-05 1.75183e-05 1.75183e-05 1.75183e-05 1.75183e-05 1.75183e-05 1.75183e-05 1.75183e-05
          1.75183e-05 1.75183e-05 1.75183e-05 1.75183e-05 1.75183e-05 1.75183e-05 1.75183e-05 1.75183e-05 1.75183e-05 1.75183e-05 1.75183e-05 1.75183e-05
          1.75183e-05 1.75183e-05 1.75183e-05 1.75183e-05 1.75183e-05 1.75183e-05 1.75183e-05 1.75183e-05 1.75183e-05 1.75183e-05 1.75183e-05 1.75183e-05
          1.75183e-05 1.75183e-05 1.75183e-05 1.75183e-05 1.75183e-05 1.75183e-05 1.75183e-05 1.75183e-05 1.75183e-05 1.75183e-05 1.75183e-05 1.75183e-05
          1.75183e-05 1.75183e-05 1.75183e-05 1.75183e-05 1.75183e-05 1.75183e-05 1.75183e-05 1.75183e-05 1.75183e-05 1.75183e-05 1.75183e-05 1.75183e-05
          1.75183e-05 1.75183e-05 1.75183e-05 1.75183e-05 1.75183e-05 1.75183e-05 1.75183e-05 1.75183e-05 1.75183e-05 1.75183e-05 1.75183e-05 1.75183e-05
          1.75183e-05 1.75183e-05 1.75183e-05 1.75183e-05 1.75183e-05 1.75183e-05 1.75183e-05 1.75183e-05 1.75183e-05 1.75183e-05 1.75183e-05 1.75183e-05
          1.75183e-05 1.75183e-05 1.75183e-05 1.75183e-05 1.75183e-05 1.75183e-05 1.75183e-05 1.75183e-05 1.75183e-05 1.75183e-05 1.75183e-05 1.75183e-05
          1.75183e-05 1.75183e-05 1.75183e-05 1.75183e-05 1.75183e-05 1.75183e-05 1.75183e-05 1.75183e-05 1.75183e-05 1.75183e-05 1.75183e-05 1.75183e-05
          1.75183e-05 1.75183e-05 1.75183e-05 1.75183e-05 1.75183e-05 1.75183e-05 1.75183e-05 1.75183e-05 1.75183e-05 1.75183e-05 1.75183e-05 1.75183e-05
          1.75183e-05 1.75183e-05 1.75183e-05 1.75183e-05 1.75183e-05 1.75183e-05 1.75183e-05 1.75183e-05 1.75183e-05 1.75183e-05 1.75183e-05 1.75183e-05
          1.75183e-05 1.75183e-05 1.75183e-05 1.75183e-05 1.75183e-05 1.75183e-05 1.75183e-05 1.75183e-05 1.75183e-05 1.75183e-05 1.75183e-05 1.75183e-05
          1.75183e-05 1.75183e-05 1.75183e-05 1.75183e-05 1.75183e-05 1.75183e-05 1.75183e-05 1.75183e-05 1.75183e-05 1.75183e-05 1.75183e-05 1.75183e-05
          1.75183e-05 1.75183e-05 1.75183e-05 1.75183e-05 1.75183e-05 1.75183e-05 1.75183e-05 1.75183e-05 1.75183e-05 1.75183e-05 1.75183e-05 1.75183e-05
          1.75183e-05 1.75183e-05 1.75183e-05 1.75183e-05 1.75183e-05 1.75183e-05 1.75183e-05 1.75183e-05 1.75183e-05 1.75183e-05 1.75183e-05 1.75183e-05
          1.75183e-05 1.75183e-05 1.75183e-05 1.75183e-05 1.75183e-05 1.75183e-05 1.75183e-05 1.75183e-05 1.75183e-05 1.75183e-05 1.75183e-05 1.75183e-05
          1.75183e-05 1.75183e-05 1.75183e-05 1.75183e-05 1.75183e-05 1.75183e-05 1.75183e-05 1.75183e-05 1.75183e-05 1.75183e-05 1.75183e-05 1.75183e-05
          1.75183e-05 1.75183e-05 1.75183e-05 1.75183e-05 1.75183e-05 1.75183e-05 1.75183e-05 1.75183e-05 1.75183e-05 1.75183e-05 1.75183e-05 1.75183e-05
          1.75183e-05 1.75183e-05 1.75183e-05 1.75183e-05 1.75183e-05 1.75183e-05 1.75183e-05 1.75183e-05 1.75183e-05 1.75183e-05 1.75183e-05 1.75183e-05
          1.75183e-05 1.75183e-05 1.75183e-05 1.75183e-05 1.75183e-05 1.75183e-05 1.75183e-05 1.75183e-05 1.75183e-05 1.75183e-05 1.75183e-05 1.75183e-05
          1.75183e-05 1.75183e-05 1.75183e-05 1.75183e-05 1.75183e-05 1.75183e-05 1.75183e-05 1.75183e-05 1.75183e-05 1.75183e-05 1.75183e-05 1.75183e-05
          1.75183e-05 1.75183e-05 1.75183e-05 1.75183e-05 1.75183e-05 1.75183e-05 1.75183e-05 1.75183e-05 1.75183e-05 1.75183e-05 1.75183e-05 1.75183e-05
          1.75183e-05 1.75183e-05 1.75183e-05 1.75183e-05 1.75183e-05 1.75183e-05 1.75183e-05 1.75183e-05 1.75183e-05 1.75183e-05 1.75183e-05 1.75183e-05
          1.75183e-05 1.75183e-05 1.75183e-05 1.75183e-05 1.75183e-05 1.75183e-05 1.75183e-05 1.75183e-05 1.75183e-05 1.75183e-05 1.75183e-05 1.75183e-05
          1.75183e-05 1.75183e-05 1.75183e-05 1.75183e-05 1.75183e-05 1.75183e-05 1.75183e-05 1.75183e-05 1.75183e-05 1.75183e-05 1.75183e-05 1.75183e-05
          1.75183e-05 1.75183e-05 1.75183e-05 1.75183e-05 1.75183e-05 1.75183e-05 1.75183e-05 1.75183e-05 1.75183e-05 1.75183e-05 1.75183e-05 1.75183e-05
          1.75183e-05 1.75183e-05 1.75183e-05 1.75183e-05 1.75183e-05 1.75183e-05 1.75183e-05 1.75183e-05 1.75183e-05 1.75183e-05 1.75183e-05 1.75183e-05
          1.75183e-05 1.75183e-05 1.75183e-05 1.75183e-05 1.75183e-05 1.75183e-05 1.75183e-05 1.75183e-05 1.75183e-05 1.75183e-05 1.75183e-05 1.75183e-05
          1.75183e-05 1.75183e-05 1.75183e-05 1.75183e-05 1.75183e-05 1.75183e-05 1.75183e-05 1.75183e-05 1.75183e-05 1.75183e-05 1.75183e-05 1.75183e-05
          1.75183e-05 1.75183e-05 1.75183e-05 1.75183e-05 1.75183e-05 1.75183e-05 1.75183e-05 1.75183e-05 1.75183e-05 1.75183e-05 1.75183e-05 1.75183e-05
          1.75183e-05 1.75183e-05 1.75183e-05 1.75183e-05 1.75183e-05 1.75183e-05 1.75183e-05 1.75183e-05
        </DataArray>
        <DataArray type="Float32" Name="v" NumberOfComponents="3" format="ascii">
          0 0 0 0 0 0 2.5 0 0 2.36048 0.105196 0
          0 0 0 2.21414 0.0262673 0 0 0 0 2.18635 0.0494144 0
          0 0 0 2.02843 0.021798 0 0 0 0 2.06335 0.0282764 0
          0 0 0 1.91289 0.0152549 0 0 0 0 1.98097 0.0167263 0
          0 0 0 1.8361 0.00943935 0 0 0 0 1.92245 0.0104908 0
          0 0 0 1.78073 0.00687588 0 0 0 0 1.87833 0.00812998 0
          0 0 0 1.73863 0.00590024 0 0 0 0 1.84401 0.00669203 0
          0 0 0 1.70555 0.00459622 0 0 0 0 1.81667 0.00499692 0
          0 0 0 1.67895 0.00316607 0 0 0 0 1.79472 0.00368384 0
          0 0 0 1.65737 0.00224615 0 0 0 0 1.77759 0.00295451 0
          0 0 0 1.64076 0.0013527 0 0 0 0 1.76648 0.00210623 0
          0 0 0 1.63148 -0.00130989 0 0 0 0 1.76871 -0.000966566 0
          0 0 0 1.64834 -0.0327176 0 0.5126 -0.00907377 0 1.74701 -0.0455033 0
          2.5 0 0 2.67577 0.12834 0 2.56747 0.0561493 0 2.62139 0.0821828 0
          2.4956 0.0459336 0 2.53592 0.0519924 0 2.41123 0.0327505 0 2.45951 0.0351635 0
          2.33965 0.024057 0 2.39738 0.0256275 0 2.28209 0.0184537 0 2.34759 0.0195982 0
          2.23604 0.0144683 0 2.30755 0.0154905 0 2.19861 0.0115732 0 2.27474 0.0125393 0
          2.16771 0.00929967 0 2.24773 0.0102778 0 2.14221 0.0072097 0 2.22603 0.00809997 0
          2.12216 0.00457997 0 2.21034 0.00515208 0 2.10946 -0.000922713 0 2.20448 -0.00368573 0
          2.10526 -0.0252282 0 2.17408 -0.0301423 0 2.5 0 0 2.69513 0.0799784 0
          2.61704 0.0628963 0 2.72514 0.0870452 0 2.63322 0.0626378 0 2.70624 0.0703268 0
          2.60299 0.0505971 0 2.66306 0.0523093 0 2.55864 0.038123 0 2.61757 0.0391669 0
          2.51557 0.0299291 0 2.57684 0.031135 0 2.47798 0.0244568 0 2.54218 0.0254602 0
          2.44568 0.0198241 0 2.51237 0.0205602 0 2.41774 0.0157045 0 2.48682 0.0166199 0
          2.39385 0.0122785 0 2.46569 0.0132314 0 2.37454 0.00852989 0 2.44962 0.00880455 0
          2.36108 0.00130428 0 2.4395 -0.00225032 0 2.35015 -0.017689 0 2.41591 -0.0207345 0
          2.5 0 0 2.64948 0.0593476 0 2.56924 0.0539241 0 2.69702 0.0748276 0
          2.6176 0.0584984 0 2.724 0.0670884 0 2.64058 0.0536995 0 2.72984 0.0566707 0
          2.63991 0.0456326 0 2.71612 0.0468259 0 2.62379 0.0378749 0 2.69341 0.0383208 0
          2.60248 0.0309827 0 2.66994 0.0317222 0 2.58065 0.0257744 0 2.6477 0.0266233 0
          2.56014 0.0214367 0 2.62762 0.02238 0 2.54158 0.017224 0 2.61019 0.0179387 0
          2.5258 0.0122053 0 2.596 0.0120279 0 2.51355 0.00365475 0 2.58484 0.000362005 0
          2.50127 -0.0126964 0 2.56758 -0.0150095 0 2.5 0 0 2.63413 0.0349703 0
          2.55112 0.0443924 0 2.67269 0.0630587 0 2.59422 0.0533659 0 2.70181 0.0610444 0
          2.62249 0.0503499 0 2.72302 0.0539382 0 2.64158 0.0457141 0 2.7359 0.0471234 0
          2.65309 0.04097 0 2.73983 0.0413877 0 2.65463 0.0357863 0 2.7339 0.036155 0
          2.64857 0.0306345 0 2.72261 0.0307653 0 2.63885 0.0254383 0 2.71021 0.0259661 0
          2.62792 0.0206866 0 2.69838 0.0211956 0 2.61764 0.015365 0 2.68794 0.0149099 0
          2.60858 0.00648839 0 2.67833 0.00338321 0 2.59792 -0.00866151 0 2.66549 -0.0107877 0
          2.5 0 0 2.61589 0.0291686 0 2.52761 0.0364401 0 2.64769 0.0514907 0
          2.56875 0.0449524 0 2.67812 0.0527919 0 2.59956 0.0440523 0 2.70125 0.0481518 0
          2.62231 0.0405593 0 2.71992 0.0423173 0 2.63997 0.036952 0 2.73552 0.0380521 0
          2.65451 0.0342355 0 2.747 0.0344331 0 2.66601 0.0312955 0 2.75329 0.0310547 0
          2.67138 0.0275038 0 2.75314 0.0275799 0 2.67169 0.0230694 0 2.74894 0.0229194 0
          2.66919 0.0173689 0 2.74353 0.0164057 0 2.66504 0.0082626 0 2.7368 0.00557898 0
          2.65713 -0.00611678 0 2.7271 -0.00797365 0 2.5 0 0 2.61454 0.0179408 0
          2.52453 0.0291178 0 2.63928 0.0415935 0 2.5568 0.0393177 0 2.66427 0.045624 0
          2.58462 0.0391803 0 2.68614 0.0428573 0 2.60758 0.0365799 0 2.7048 0.0389056 0
          2.62622 0.0335795 0 2.72096 0.0350061 0 2.64252 0.0308773 0 2.73591 0.0312213 0
          2.65685 0.0282435 0 2.74953 0.0284038 0 2.6695 0.0258747 0 2.76059 0.0255334 0
          2.68093 0.0228755 0 2.76844 0.0220089 0 2.68856 0.0180633 0 2.77237 0.0165838 0
          2.69172 0.00980917 0 2.77051 0.00716936 0 2.68841 -0.0035356 0 2.76098 -0.00533321 0
          2.5 0 0 2.60612 0.016054 0 2.51318 0.0243422 0 2.62595 0.0340735 0
          2.54206 0.0327263 0 2.65047 0.0383126 0 2.5695 0.0332731 0 2.67234 0.0366064 0
          2.59288 0.0311368 0 2.69157 0.0331576 0 2.6132 0.0286367 0 2.70867 0.030184 0
          2.63101 0.0266456 0 2.72411 0.0276938 0 2.64639 0.0246213 0 2.73804 0.0253079 0
          2.66033 0.0225052 0 2.75101 0.0223844 0 2.67278 0.0197831 0 2.7629 0.0193894 0
          2.68349 0.015785 0 2.77266 0.0146657 0 2.69186 0.00936902 0 2.7773 0.0067444 0
          2.69439 -0.00114389 0 2.7705 -0.00244933 0 2.5 0 0 2.60699 0.01038 0
          2.51384 0.018954 0 2.62425 0.0265663 0 2.53832 0.0276092 0 2.64487 0.0317403 0
          2.56247 0.0285907 0 2.6648 0.0311866 0 2.58431 0.0271175 0 2.6829 0.0289514 0
          2.60356 0.025065 0 2.69935 0.0263427 0 2.6211 0.0230051 0 2.71479 0.0237836 0
          2.6373 0.0210526 0 2.72908 0.0216892 0 2.65209 0.0192671 0 2.74216 0.0195666 0
          2.66501 0.0169618 0 2.7538 0.0169864 0 2.6764 0.0134236 0 2.76338 0.0126004 0
          2.6851 0.0079757 0 2.76927 0.00566733 0 2.68815 0.000307146 0 2.76633 -0.000567703 0
          2.5 0 0 2.60116 0.0093545 0 2.50813 0.0155777 0 2.61557 0.0214037 0
          2.52859 0.022363 0 2.63634 0.025827 0 2.55216 0.0233009 0 2.65665 0.0254652 0
          2.57448 0.0220215 0 2.67533 0.0234175 0 2.59486 0.0203108 0 2.69229 0.0214261 0
          2.61311 0.0188399 0 2.70766 0.0197511 0 2.6293 0.0174126 0 2.72171 0.0180707 0
          2.64408 0.0158369 0 2.73472 0.0160714 0 2.65755 0.0138146 0 2.74638 0.0137805 0
          2.66936 0.0109209 0 2.75581 0.0103025 0 2.67805 0.00649164 0 2.7615 0.00498401 0
          2.68121 0.000739527 0 2.76126 3.91857e-05 0 2.5 0 0 2.60459 0.00615892 0
          2.51011 0.0111024 0 2.61798 0.0162666 0 2.529 0.0171705 0 2.63649 0.0199804 0
          2.55077 0.0186125 0 2.65504 0.0200672 0 2.57158 0.0179845 0 2.67226 0.0188634 0
          2.59044 0.0167376 0 2.68809 0.0173044 0 2.60776 0.0153337 0 2.70297 0.0157389 0
          2.62387 0.0139861 0 2.71687 0.0143444 0 2.63865 0.0127262 0 2.72953 0.0129202 0
          2.65177 0.0111516 0 2.74064 0.0110953 0 2.66308 0.00873311 0 2.74969 0.00821284 0
          2.67148 0.00508782 0 2.7553 0.00401089 0 2.67527 0.000667213 0 2.75666 0.000110601 0
          2.5 0 0 2.60397 0.00472161 0 2.50706 0.00864672 0 2.61416 0.0120685 0
          2.52399 0.0128914 0 2.63098 0.0148535 0 2.54452 0.0139554 0 2.64949 0.0148939 0
          2.56518 0.0133463 0 2.66733 0.0137992 0 2.58481 0.0123246 0 2.68386 0.012652 0
          2.60275 0.011362 0 2.69895 0.0116962 0 2.61882 0.0104578 0 2.71272 0.0106894 0
          2.63344 0.00948634 0 2.7253 0.00946658 0 2.64675 0.0082455 0 2.73637 0.00802681 0
          2.65816 0.00641475 0 2.74519 0.00603115 0 2.66633 0.00369002 0 2.75054 0.00314438 0
          2.66999 0.00022575 0 2.75238 -0.000242245 0 2.5 0 0 2.6027 0.00263572 0
          2.50749 0.00545994 0 2.6139 0.00771528 0 2.52422 0.00848689 0 2.63075 0.00967649 0
          2.54432 0.00929696 0 2.64898 0.00976238 0 2.5644 0.00915369 0 2.66619 0.00911312 0
          2.5831 0.00860405 0 2.68197 0.00838986 0 2.60027 0.00783819 0 2.69668 0.00772795 0
          2.61606 0.00709353 0 2.71038 0.00703587 0 2.63049 0.00646489 0 2.72274 0.00625445 0
          2.64334 0.00569193 0 2.73342 0.00533343 0 2.65422 0.00437553 0 2.74198 0.00406001 0
          2.66206 0.00240648 0 2.74726 0.00219449 0 2.666 -0.000163178 0 2.74912 -0.000539813 0
          2.5 0 0 2.59931 0.00141614 0 2.5058 0.00278525 0 2.60906 0.0038983 0
          2.52139 0.00426149 0 2.62532 0.00490284 0 2.5409 0.00468474 0 2.64344 0.00489043 0
          2.56071 0.00460123 0 2.66142 0.00441483 0 2.57946 0.004301 0 2.6784 0.0040373 0
          2.59676 0.00390155 0 2.69388 0.00382326 0 2.61254 0.0035444 0 2.70787 0.0034999 0
          2.62683 0.00325238 0 2.72062 0.00300303 0 2.63961 0.0028647 0 2.7319 0.00249875 0
          2.65046 0.00211987 0 2.7407 0.00202978 0 2.65847 0.00108572 0 2.74577 0.00116813 0
          2.66245 -0.000509812 0 2.74597 -0.000756966 0 2.5 0 0 2.60115 0 0
          2.50665 0 0 2.61156 0 0 2.52273 0 0 2.62812 0 0
          2.5427 0 0 2.64649 0 0 2.56267 0 0 2.66433 0 0
          2.58075 0 0 2.68082 0 0 2.59725 0 0 2.69591 0 0
          2.61281 0 0 2.70978 0 0 2.62706 0 0 2.72244 0 0
          2.63929 0 0 2.73345 0 0 2.64931 0 0 2.74174 0 0
          2.65713 0 0 2.74634 0 0 2.661 0 0 2.74461 -0.000309272 0
        </DataArray>
      </PointData>
      <CellData Scalars="mu_t">
        <DataArray type="Float32" Name="mu_t" NumberOfComponents="1" format="ascii">
          0.0124504 0.0116027 0.0110872 0.0105385 0.0101756 0.00983526 0.00959285 0.00936724 0.00919544 0.0090331 0.00890382 0.00878059
          0.00868015 0.00858343 0.00850356 0.00842587 0.00836177 0.00829881 0.00824886 0.00820043 0.00816805 0.00814099 0.00814753 0.00819661
          0.00665147 0.00742696 0.0157457 0.0185618 0.021236 0.0221148 0.0228432 0.02298 0.0230985 0.0230103 0.0229557 0.0228198
          0.0227241 0.0225874 0.0224829 0.0223525 0.0222496 0.0221293 0.0220355 0.0219269 0.0218445 0.0217362 0.0216552 0.0214654
          0.0209719 0.0207145 0.00125763 0.00447649 0.00995667 0.0156754 0.0199985 0.0235139 0.0256717 0.0274406 0.0285211 0.0294609
          0.0300494 0.0305989 0.0309488 0.0312817 0.031476 0.0316681 0.0317631 0.0318675 0.0319046 0.0319532 0.0319281 0.031878
          0.0316016 0.031164 0.0316039 0.00579701 0.0118657 0.00963985 0.00555448 0.00119276 0.00702816 0.0132532 0.0187989 0.0228333
          0.0262556 0.0285436 0.0306098 0.0320303 0.0333609 0.0343218 0.0352643 0.035959 0.0366361 0.0371069 0.0375542 0.0377937
          0.0379475 0.0378148 0.0376442 0.0384478 0.00321818 0.00701852 0.00890253 0.0100051 0.00955555 0.0084462 0.00522417 0.00108
          0.00449883 0.0102921 0.0158763 0.0206689 0.0243477 0.0276536 0.0299515 0.032215 0.0338241 0.0354217 0.0365959 0.0377505
          0.0385369 0.0392061 0.0395322 0.0398705 0.0407978 0.00571065 0.0130704 0.015185 0.0157987 0.01539 0.0145957 0.0139939
          0.0128498 0.0110401 0.0091117 0.00545532 0.00138478 0.00406412 0.00955912 0.0150649 0.0197905 0.0236246 0.027145 0.029535
          0.0319695 0.0335454 0.0350841 0.0359843 0.0368432 0.0378266 0.000592143 0.00193879 0.00502449 0.00890413 0.011283 0.012587
          0.0131359 0.0130428 0.0130474 0.0126195 0.0123761 0.0116085 0.0100876 0.00885035 0.00565226 0.00246993 0.00243797 0.0072988
          0.0125608 0.0169903 0.0210719 0.0242667 0.026398 0.0284103 0.028487 0.00489595 0.0115008 0.0143589 0.0163301 0.0166073
          0.0168295 0.0168317 0.0165878 0.016252 0.0152722 0.0147213 0.0138474 0.0135655 0.0129519 0.0127725 0.0120234 0.0109125
          0.0103173 0.00796263 0.00617243 0.00277985 0.000254723 0.00403398 0.00743099 0.00901844 0.000648436 0.00113633 0.000835888 0.00407387
          0.00697672 0.00943757 0.0108856 0.0120294 0.0128753 0.0136809 0.0141732 0.0143726 0.014375 0.013763 0.0134864 0.0128444
          0.0127662 0.0124164 0.0126088 0.0120987 0.0122306 0.0119948 0.0110599 0.0106662 0.00778316 0.00544288 0.010765 0.0134194
          0.0171798 0.0170467 0.0175842 0.0172296 0.0167898 0.0162536 0.0151939 0.0147173 0.0140496 0.0141031 0.0141153 0.0143508
          0.0143683 0.0144297 0.0139147 0.0138944 0.0134987 0.0136388 0.0136489 0.0138374 0.0137343 0.011209 0.00390576 0.00615955
          0.00500126 0.00322374 0.000648208 0.00140888 0.00342367 0.00515099 0.00680612 0.00854416 0.00983074 0.0108906 0.0114577 0.0115399
          0.0117037 0.0117007 0.0121069 0.0125072 0.0131215 0.0136962 0.0141422 0.0144654 0.0145487 0.013827 0.0120054 0.000839235
          0.00500953 0.00939956 0.0120917 0.0144031 0.0160976 0.0161401 0.0163353 0.0154978 0.014439 0.013481 0.0126341 0.0123416
          0.0124046 0.0125792 0.0128045 0.0129244 0.0126639 0.0127182 0.0125791 0.0128875 0.0131925 0.0135531 0.0137344 0.0130788
          0.00205712 0.00137078 0.000413235 0.00021342 0.000194018 0.000687629 0.00114339 0.00207803 0.00308644 0.00459755 0.0058232 0.00707263
          0.00768372 0.00811862 0.00823318 0.00854242 0.00888523 0.00962854 0.0102686 0.0111193 0.0115349 0.0120837 0.0122001 0.0117513
          0.011729 0.00638272 0.0095636 0.0123147 0.0144628 0.0155616 0.0166798 0.016898 0.017399 0.0159399 0.0158379 0.0135702
          0.013324 0.0118887 0.0119366 0.0113858 0.0116327 0.0108928 0.0110239 0.0098966 0.0099563 0.00949581 0.00918512 0.00958789
          0.00950827 0.0126246 0.0039909 0.00584697 0.00730307 0.00834882 0.00897751 0.0100027 0.0105629 0.0108807 0.0105696 0.00910884
          0.00805425 0.00632117 0.00546169 0.00501384 0.00475997 0.00465994 0.00444984 0.00325221 0.00267874 0.00190015 0.00132214 0.00161896
          0.00187195 0.00204236 0.00609298
        </DataArray>