MAPUNITS
'METRES'
/

SPECGRID
2  1  2  1  F
/

COORD
0 0 0   0 0 2
1 0 0   1 0 2
2 0 0   2 0 2
0 1 0   0 1 2
1 1 0   1 1 2
2 1 0   2 1 2
/

ZCORN
0 0 0 0 0 0 0 0
1 1 0.8 1.2 1 1 1.2 1.2
1 1 0.8 1.2 1 1 1.2 1.2
2 2 2.2 2 2 2 1.9 2
/

ACTNUM
1 1
1 1
/

PORO
0.1 0.1
0.3 0.3
/

PERMX
100 100
500 500
/
