<?xml version="1.0"?>
<VTKFile type="UnstructuredGrid" version="0.1" byte_order="LittleEndian">
  <UnstructuredGrid>
    <Piece NumberOfPoints="496" NumberOfCells="450">
      <PointData Scalars="wetting phase pressure">
<DataArray type="Float32" Name="wetting phase pressure" NumberOfComponents="1" format="ascii">
200000 200000 199999 199999 200000 199999 200000 199999 200000 199999 200000 199999 
200000 199999 200000 199999 200000 199999 200000 199999 200000 199999 200000 199999 
200000 199999 200000 199999 200000 199999 200000 199999 200000 199999 200000 199998 
200000 199998 200000 199997 200000 199997 200000 199997 200000 199997 200000 199997 
200000 199997 200000 199997 200000 199997 200000 199997 200000 199997 200000 199997 
200000 199997 199998 199998 199998 199998 199998 199998 199998 199998 199998 199998 
199998 199998 199998 199997 199997 199997 199996 199993 199992 199992 199991 199991 
199991 199991 199990 199990 199990 199990 199990 199990 199990 199997 199997 199997 
199997 199997 199997 199997 199997 199996 199996 199996 199996 199996 199996 199996 
199995 199992 199986 199985 199984 199984 199983 199983 199982 199982 199982 199982 
199981 199981 199981 199981 199995 199995 199995 199995 199995 199995 199995 199995 
199995 199995 199995 199995 199994 199994 199994 199994 199989 199984 199983 199983 
199982 199981 199981 199980 199980 199979 199979 199979 199979 199979 199978 199994 
199994 199994 199994 199994 199994 199994 199994 199994 199993 199993 199993 199993 
199993 199992 199992 199986 199983 199982 199982 199981 199980 199980 199979 199978 
199978 199978 199977 199977 199977 199977 199992 199992 199992 199992 199992 199992 
199992 199992 199992 199992 199992 199991 199991 199991 199990 199990 199984 199982 
199981 199980 199980 199979 199978 199978 199977 199977 199976 199976 199976 199976 
199976 199991 199991 199991 199991 199991 199991 199991 199990 199990 199990 199990 
199990 199989 199989 199989 199988 199982 199981 199980 199979 199978 199977 199977 
199976 199976 199975 199975 199975 199974 199974 199974 199989 199989 199989 199989 
199989 199989 199989 199989 199989 199988 199988 199988 199988 199987 199987 199986 
199980 199979 199978 199978 199977 199976 199975 199975 199974 199974 199973 199973 
199973 199973 199973 199988 199988 199988 199987 199987 199987 199987 199987 199987 
199987 199986 199986 199986 199985 199985 199984 199979 199978 199977 199976 199975 
199975 199974 199973 199973 199972 199972 199971 199971 199971 199971 199986 199986 
199986 199986 199986 199986 199985 199985 199985 199985 199985 199984 199984 199983 
199983 199982 199978 199977 199976 199975 199974 199973 199972 199971 199971 199970 
199970 199970 199969 199969 199969 199984 199984 199984 199984 199984 199984 199984 
199983 199983 199983 199983 199982 199982 199981 199981 199979 199977 199976 199975 
199974 199972 199971 199970 199970 199969 199968 199968 199968 199967 199967 199967 
199982 199982 199982 199982 199982 199982 199981 199981 199981 199981 199981 199980 
199980 199979 199979 199979 199977 199975 199973 199972 199971 199970 199969 199968 
199967 199967 199966 199966 199965 199965 199965 199981 199981 199981 199981 199980 
199980 199980 199980 199980 199980 199979 199979 199979 199979 199978 199978 199976 
199974 199972 199970 199969 199968 199967 199966 199965 199964 199964 199964 199963 
199963 199963 199980 199980 199980 199980 199980 199980 199980 199980 199980 199979 
199979 199979 199979 199978 199978 199978 199975 199972 199970 199968 199967 199966 
199965 199964 199963 199962 199962 199961 199961 199961 199961 199980 199980 199980 
199980 199980 199980 199980 199980 199979 199979 199979 199979 199978 199978 199978 
199977 199973 199970 199968 199966 199965 199963 199962 199961 199961 199960 199960 
199959 199959 199959 199959 
</DataArray>
<DataArray type="Float32" Name="wetting phase saturation" NumberOfComponents="1" format="ascii">
1 1 0.915689 0.915711 1 0.915776 1 0.915888 1 0.916049 1 0.916265 
1 0.916545 1 0.9169 1 0.917346 1 0.917906 1 0.918613 1 0.919512 
1 0.920661 1 0.922098 1 0.923124 1 0.884587 1 0.772697 1 0.780399 
1 0.793673 1 0.800098 1 0.804008 1 0.807144 1 0.809829 1 0.812144 
1 0.814118 1 0.815764 1 0.817095 1 0.818118 1 0.818844 1 0.819277 
1 0.819421 0.892414 0.892441 0.892522 0.892659 0.892858 0.893124 0.893468 0.893903 0.894449 0.895132 
0.895993 0.897087 0.898495 0.900325 0.902345 0.856601 0.704573 0.609722 0.616394 0.642787 0.661624 0.676318 
0.688169 0.697783 0.705542 0.71172 0.716524 0.720112 0.722598 0.724062 0.724547 0.875385 0.875415 0.875506 
0.875661 0.875884 0.876182 0.876566 0.87705 0.877655 0.878411 0.87936 0.880565 0.882121 0.88418 0.886718 
0.838731 0.639241 0.131663 0.0725727 0.0960634 0.121906 0.148555 0.175013 0.20037 0.22381 0.244643 0.262322 
0.276436 0.286701 0.292934 0.295028 0.86122 0.861253 0.861352 0.861519 0.86176 0.862081 0.862492 0.863009 
0.863652 0.864452 0.865451 0.866714 0.86834 0.870485 0.873196 0.824174 0.556342 0.0233135 9.58174e-07 3.17902e-06 
9.21538e-06 2.29364e-05 4.98788e-05 9.6194e-05 0.00016649 0.000261056 0.000373619 0.000490918 0.00059483 0.00066669 0.00069243 0.848566 
0.848602 0.848707 0.848884 0.849139 0.849477 0.849909 0.850448 0.851115 0.851939 0.852961 0.854244 0.85588 
0.858009 0.860685 0.809712 0.455761 0.00580842 1.84743e-11 2.33147e-15 1.9984e-15 9.99201e-16 2.88658e-15 7.77156e-16 3.55271e-15 
1.55431e-15 2.44249e-15 4.21885e-15 3.88578e-15 5.9952e-15 7.99361e-15 0.83659 0.836627 0.836739 0.836927 0.837196 0.83755 
0.837998 0.838555 0.839236 0.84007 0.841095 0.842369 0.843975 0.846031 0.848572 0.793321 0.345092 0.00106783 
2.18714e-14 9.99201e-16 1.44329e-15 2.33147e-15 1.33227e-15 1.66533e-15 1.44329e-15 1.22125e-15 2.9976e-15 1.77636e-15 1.55431e-15 1.33227e-15 
3.44169e-15 0.824528 0.824569 0.82469 0.824892 0.825177 0.825552 0.826021 0.826594 0.827287 0.828122 0.829134 
0.830374 0.83192 0.833876 0.836255 0.772673 0.236455 0.00013501 2.10942e-15 2.44249e-15 1.77636e-15 1.44329e-15 1.66533e-15 
2.55351e-15 1.55431e-15 2.9976e-15 2.10942e-15 1.77636e-15 1.66533e-15 2.10942e-15 1.33227e-15 0.811321 0.811368 0.811504 0.81173 
0.812047 0.812456 0.812959 0.813563 0.814274 0.815108 0.816091 0.817266 0.818709 0.820532 0.822736 0.743225 
0.13801 9.48785e-06 1.9984e-15 1.77636e-15 1.88738e-15 1.88738e-15 2.9976e-15 3.10862e-15 2.44249e-15 2.33147e-15 1.77636e-15 5.55112e-16 
2.55351e-15 1.44329e-15 9.99201e-16 0.794851 0.79491 0.79508 0.795359 0.795744 0.796231 0.796814 0.797488 0.798249 
0.799095 0.800031 0.801077 0.802292 0.803813 0.805694 0.691837 0.0579961 2.0278e-07 2.55351e-15 1.22125e-15 7.77156e-16 
2.33147e-15 1.33227e-15 2.22045e-15 1.66533e-15 1.22125e-15 2.44249e-15 2.22045e-15 2.77556e-15 1.77636e-15 2.9976e-15 0.769261 0.769354 
0.769621 0.770053 0.770635 0.771348 0.772166 0.773058 0.773988 0.774911 0.775773 0.776509 0.777051 0.777369 
0.777413 0.554315 0.00955216 1.45724e-10 2.55351e-15 2.66454e-15 3.33067e-15 3.66374e-15 2.66454e-15 2.9976e-15 2.10942e-15 2.55351e-15 
1.44329e-15 7.77156e-16 1.88738e-15 1.55431e-15 2.22045e-15 0.709925 0.71017 0.710869 0.711979 0.713437 0.715154 0.717021 
0.718903 0.720637 0.722014 0.722745 0.722376 0.720048 0.713701 0.695127 0.172723 3.33242e-05 2.77556e-15 3.21965e-15 
7.77156e-16 3.21965e-15 3.21965e-15 2.10942e-15 3.55271e-15 3.9968e-15 4.44089e-16 1.77636e-15 1.77636e-15 1.9984e-15 2.33147e-15 2.88658e-15 
0.440834 0.442043 0.445521 0.451046 0.458269 0.466693 0.475662 0.484342 0.491679 0.49629 0.496193 0.488116 
0.465445 0.410761 0.263752 0.000493652 4.66294e-15 2.55351e-15 3.9968e-15 3.21965e-15 4.44089e-15 3.55271e-15 4.996e-15 2.77556e-15 
3.44169e-15 5.55112e-16 2.88658e-15 1.22125e-15 2.33147e-15 2.44249e-15 2.22045e-15 0.0163064 0.0165703 0.0173547 0.0186687 0.0205159 
0.0228646 0.0256044 0.0284861 0.031049 0.0325524 0.0319522 0.0280266 0.0199246 0.0088356 0.000897449 3.67484e-14 2.9976e-15 
1.22125e-15 3.66374e-15 3.66374e-15 3.21965e-15 2.77556e-15 3.55271e-15 3.10862e-15 2.88658e-15 3.55271e-15 3.10862e-15 3.77476e-15 2.33147e-15 
2.9976e-15 1.11022e-15 7.16831e-09 7.64745e-09 9.21559e-09 1.23701e-08 1.80982e-08 2.80152e-08 4.41828e-08 6.7767e-08 9.53863e-08 1.14117e-07 
1.03722e-07 5.93105e-08 1.46097e-08 5.80207e-10 7.68274e-14 1.88738e-15 4.66294e-15 3.21965e-15 4.10783e-15 3.66374e-15 2.66454e-15 3.21965e-15 
3.33067e-15 3.88578e-15 2.88658e-15 2.77556e-15 2.55351e-15 3.33067e-15 3.10862e-15 2.9976e-15 5.55112e-16 1.44329e-15 7.77156e-16 1.11022e-15 
9.99201e-16 4.44089e-16 2.22045e-16 5.55112e-16 1.66533e-15 1.33227e-15 2.22045e-16 9.99201e-16 6.66134e-16 1.77636e-15 4.44089e-16 2.9976e-15 
2.33147e-15 3.77476e-15 3.10862e-15 4.32987e-15 3.33067e-15 3.66374e-15 2.9976e-15 3.88578e-15 3.66374e-15 2.88658e-15 4.32987e-15 3.33067e-15 
2.44249e-15 3.77476e-15 3.10862e-15 3.66374e-15 
</DataArray>
<DataArray type="Float32" Name="nonwetting phase saturation" NumberOfComponents="1" format="ascii">
0 0 0.0843109 0.0842892 0 0.0842237 0 0.0841121 0 0.083951 0 0.0837346 
0 0.0834549 0 0.0831002 0 0.0826543 0 0.0820942 0 0.0813873 0 0.0804882 
0 0.0793391 0 0.0779024 0 0.0768755 0 0.115413 0 0.227303 0 0.219601 
0 0.206327 0 0.199902 0 0.195992 0 0.192856 0 0.190171 0 0.187856 
0 0.185882 0 0.184236 0 0.182905 0 0.181882 0 0.181156 0 0.180723 
0 0.180579 0.107586 0.107559 0.107478 0.107341 0.107142 0.106876 0.106532 0.106097 0.105551 0.104868 
0.104007 0.102913 0.101505 0.0996747 0.097655 0.143399 0.295427 0.390278 0.383606 0.357213 0.338376 0.323682 
0.311831 0.302217 0.294458 0.28828 0.283476 0.279888 0.277402 0.275938 0.275453 0.124615 0.124585 0.124494 
0.124339 0.124116 0.123818 0.123434 0.12295 0.122345 0.121589 0.12064 0.119435 0.117879 0.11582 0.113282 
0.161269 0.360759 0.868337 0.927427 0.903937 0.878094 0.851445 0.824987 0.79963 0.77619 0.755357 0.737678 
0.723564 0.713299 0.707066 0.704972 0.13878 0.138747 0.138648 0.138481 0.13824 0.137919 0.137508 0.136991 
0.136348 0.135548 0.134549 0.133286 0.13166 0.129515 0.126804 0.175826 0.443658 0.976687 0.999999 0.999997 
0.999991 0.999977 0.99995 0.999904 0.999834 0.999739 0.999626 0.999509 0.999405 0.999333 0.999308 0.151434 
0.151398 0.151293 0.151116 0.150861 0.150523 0.150091 0.149552 0.148885 0.148061 0.147039 0.145756 0.14412 
0.141991 0.139315 0.190289 0.544239 0.994192 1 1 1 1 1 1 1 
1 1 1 1 1 1 0.16341 0.163373 0.163261 0.163073 0.162804 0.16245 
0.162002 0.161446 0.160764 0.15993 0.158905 0.157631 0.156025 0.153969 0.151428 0.206679 0.654908 0.998932 
1 1 1 1 1 1 1 1 1 1 1 1 
1 0.175472 0.175431 0.17531 0.175108 0.174822 0.174448 0.173979 0.173406 0.172713 0.171878 0.170866 
0.169626 0.16808 0.166124 0.163745 0.227327 0.763545 0.999865 1 1 1 1 1 
1 1 1 1 1 1 1 1 0.188679 0.188632 0.188496 0.18827 
0.187953 0.187544 0.187041 0.186437 0.185726 0.184892 0.183909 0.182734 0.181291 0.179468 0.177264 0.256775 
0.86199 0.999991 1 1 1 1 1 1 1 1 1 1 
1 1 1 0.205149 0.20509 0.20492 0.204641 0.204256 0.203769 0.203186 0.202512 0.201751 
0.200905 0.199969 0.198923 0.197708 0.196187 0.194306 0.308163 0.942004 1 1 1 1 
1 1 1 1 1 1 1 1 1 1 0.230739 0.230646 
0.230379 0.229947 0.229365 0.228652 0.227834 0.226942 0.226012 0.225089 0.224227 0.223491 0.222949 0.222631 
0.222587 0.445685 0.990448 1 1 1 1 1 1 1 1 1 
1 1 1 1 1 0.290075 0.28983 0.289131 0.288021 0.286563 0.284846 0.282979 
0.281097 0.279363 0.277986 0.277255 0.277624 0.279952 0.286299 0.304873 0.827277 0.999967 1 1 
1 1 1 1 1 1 1 1 1 1 1 1 
0.559166 0.557957 0.554479 0.548954 0.541731 0.533307 0.524338 0.515658 0.508321 0.50371 0.503806 0.511884 
0.534555 0.589239 0.736248 0.999506 1 1 1 1 1 1 1 1 
1 1 1 1 1 1 1 0.983694 0.98343 0.982645 0.981331 0.979484 
0.977135 0.974396 0.971514 0.968951 0.967448 0.968048 0.971973 0.980075 0.991164 0.999103 1 1 
1 1 1 1 1 1 1 1 1 1 1 1 
1 1 1 1 1 1 1 1 1 1 1 1 
1 1 1 1 1 1 1 1 1 1 1 1 
1 1 1 1 1 1 1 1 1 1 1 1 
1 1 1 1 1 1 1 1 1 1 1 1 
1 1 1 1 1 1 1 1 1 1 1 1 
1 1 1 1 
</DataArray>
      </PointData>
      <CellData>
      </CellData>
      <Points>
<DataArray type="Float32" Name="Coordinates" NumberOfComponents="3" format="ascii">
0 0 0 20 0 0 0 20 0 20 20 0 
40 0 0 40 20 0 60 0 0 60 20 0 
80 0 0 80 20 0 100 0 0 100 20 0 
120 0 0 120 20 0 140 0 0 140 20 0 
160 0 0 160 20 0 180 0 0 180 20 0 
200 0 0 200 20 0 220 0 0 220 20 0 
240 0 0 240 20 0 260 0 0 260 20 0 
280 0 0 280 20 0 300 0 0 300 20 0 
320 0 0 320 20 0 340 0 0 340 20 0 
360 0 0 360 20 0 380 0 0 380 20 0 
400 0 0 400 20 0 420 0 0 420 20 0 
440 0 0 440 20 0 460 0 0 460 20 0 
480 0 0 480 20 0 500 0 0 500 20 0 
520 0 0 520 20 0 540 0 0 540 20 0 
560 0 0 560 20 0 580 0 0 580 20 0 
600 0 0 600 20 0 0 40 0 20 40 0 
40 40 0 60 40 0 80 40 0 100 40 0 
120 40 0 140 40 0 160 40 0 180 40 0 
200 40 0 220 40 0 240 40 0 260 40 0 
280 40 0 300 40 0 320 40 0 340 40 0 
360 40 0 380 40 0 400 40 0 420 40 0 
440 40 0 460 40 0 480 40 0 500 40 0 
520 40 0 540 40 0 560 40 0 580 40 0 
600 40 0 0 60 0 20 60 0 40 60 0 
60 60 0 80 60 0 100 60 0 120 60 0 
140 60 0 160 60 0 180 60 0 200 60 0 
220 60 0 240 60 0 260 60 0 280 60 0 
300 60 0 320 60 0 340 60 0 360 60 0 
380 60 0 400 60 0 420 60 0 440 60 0 
460 60 0 480 60 0 500 60 0 520 60 0 
540 60 0 560 60 0 580 60 0 600 60 0 
0 80 0 20 80 0 40 80 0 60 80 0 
80 80 0 100 80 0 120 80 0 140 80 0 
160 80 0 180 80 0 200 80 0 220 80 0 
240 80 0 260 80 0 280 80 0 300 80 0 
320 80 0 340 80 0 360 80 0 380 80 0 
400 80 0 420 80 0 440 80 0 460 80 0 
480 80 0 500 80 0 520 80 0 540 80 0 
560 80 0 580 80 0 600 80 0 0 100 0 
20 100 0 40 100 0 60 100 0 80 100 0 
100 100 0 120 100 0 140 100 0 160 100 0 
180 100 0 200 100 0 220 100 0 240 100 0 
260 100 0 280 100 0 300 100 0 320 100 0 
340 100 0 360 100 0 380 100 0 400 100 0 
420 100 0 440 100 0 460 100 0 480 100 0 
500 100 0 520 100 0 540 100 0 560 100 0 
580 100 0 600 100 0 0 120 0 20 120 0 
40 120 0 60 120 0 80 120 0 100 120 0 
120 120 0 140 120 0 160 120 0 180 120 0 
200 120 0 220 120 0 240 120 0 260 120 0 
280 120 0 300 120 0 320 120 0 340 120 0 
360 120 0 380 120 0 400 120 0 420 120 0 
440 120 0 460 120 0 480 120 0 500 120 0 
520 120 0 540 120 0 560 120 0 580 120 0 
600 120 0 0 140 0 20 140 0 40 140 0 
60 140 0 80 140 0 100 140 0 120 140 0 
140 140 0 160 140 0 180 140 0 200 140 0 
220 140 0 240 140 0 260 140 0 280 140 0 
300 140 0 320 140 0 340 140 0 360 140 0 
380 140 0 400 140 0 420 140 0 440 140 0 
460 140 0 480 140 0 500 140 0 520 140 0 
540 140 0 560 140 0 580 140 0 600 140 0 
0 160 0 20 160 0 40 160 0 60 160 0 
80 160 0 100 160 0 120 160 0 140 160 0 
160 160 0 180 160 0 200 160 0 220 160 0 
240 160 0 260 160 0 280 160 0 300 160 0 
320 160 0 340 160 0 360 160 0 380 160 0 
400 160 0 420 160 0 440 160 0 460 160 0 
480 160 0 500 160 0 520 160 0 540 160 0 
560 160 0 580 160 0 600 160 0 0 180 0 
20 180 0 40 180 0 60 180 0 80 180 0 
100 180 0 120 180 0 140 180 0 160 180 0 
180 180 0 200 180 0 220 180 0 240 180 0 
260 180 0 280 180 0 300 180 0 320 180 0 
340 180 0 360 180 0 380 180 0 400 180 0 
420 180 0 440 180 0 460 180 0 480 180 0 
500 180 0 520 180 0 540 180 0 560 180 0 
580 180 0 600 180 0 0 200 0 20 200 0 
40 200 0 60 200 0 80 200 0 100 200 0 
120 200 0 140 200 0 160 200 0 180 200 0 
200 200 0 220 200 0 240 200 0 260 200 0 
280 200 0 300 200 0 320 200 0 340 200 0 
360 200 0 380 200 0 400 200 0 420 200 0 
440 200 0 460 200 0 480 200 0 500 200 0 
520 200 0 540 200 0 560 200 0 580 200 0 
600 200 0 0 220 0 20 220 0 40 220 0 
60 220 0 80 220 0 100 220 0 120 220 0 
140 220 0 160 220 0 180 220 0 200 220 0 
220 220 0 240 220 0 260 220 0 280 220 0 
300 220 0 320 220 0 340 220 0 360 220 0 
380 220 0 400 220 0 420 220 0 440 220 0 
460 220 0 480 220 0 500 220 0 520 220 0 
540 220 0 560 220 0 580 220 0 600 220 0 
0 240 0 20 240 0 40 240 0 60 240 0 
80 240 0 100 240 0 120 240 0 140 240 0 
160 240 0 180 240 0 200 240 0 220 240 0 
240 240 0 260 240 0 280 240 0 300 240 0 
320 240 0 340 240 0 360 240 0 380 240 0 
400 240 0 420 240 0 440 240 0 460 240 0 
480 240 0 500 240 0 520 240 0 540 240 0 
560 240 0 580 240 0 600 240 0 0 260 0 
20 260 0 40 260 0 60 260 0 80 260 0 
100 260 0 120 260 0 140 260 0 160 260 0 
180 260 0 200 260 0 220 260 0 240 260 0 
260 260 0 280 260 0 300 260 0 320 260 0 
340 260 0 360 260 0 380 260 0 400 260 0 
420 260 0 440 260 0 460 260 0 480 260 0 
500 260 0 520 260 0 540 260 0 560 260 0 
580 260 0 600 260 0 0 280 0 20 280 0 
40 280 0 60 280 0 80 280 0 100 280 0 
120 280 0 140 280 0 160 280 0 180 280 0 
200 280 0 220 280 0 240 280 0 260 280 0 
280 280 0 300 280 0 320 280 0 340 280 0 
360 280 0 380 280 0 400 280 0 420 280 0 
440 280 0 460 280 0 480 280 0 500 280 0 
520 280 0 540 280 0 560 280 0 580 280 0 
600 280 0 0 300 0 20 300 0 40 300 0 
60 300 0 80 300 0 100 300 0 120 300 0 
140 300 0 160 300 0 180 300 0 200 300 0 
220 300 0 240 300 0 260 300 0 280 300 0 
300 300 0 320 300 0 340 300 0 360 300 0 
380 300 0 400 300 0 420 300 0 440 300 0 
460 300 0 480 300 0 500 300 0 520 300 0 
540 300 0 560 300 0 580 300 0 600 300 0 
</DataArray>
      </Points>
      <Cells>
<DataArray type="Int32" Name="connectivity" NumberOfComponents="1" format="ascii">
0 1 3 2 1 4 5 3 4 6 7 5 
6 8 9 7 8 10 11 9 10 12 13 11 
12 14 15 13 14 16 17 15 16 18 19 17 
18 20 21 19 20 22 23 21 22 24 25 23 
24 26 27 25 26 28 29 27 28 30 31 29 
30 32 33 31 32 34 35 33 34 36 37 35 
36 38 39 37 38 40 41 39 40 42 43 41 
42 44 45 43 44 46 47 45 46 48 49 47 
48 50 51 49 50 52 53 51 52 54 55 53 
54 56 57 55 56 58 59 57 58 60 61 59 
2 3 63 62 3 5 64 63 5 7 65 64 
7 9 66 65 9 11 67 66 11 13 68 67 
13 15 69 68 15 17 70 69 17 19 71 70 
19 21 72 71 21 23 73 72 23 25 74 73 
25 27 75 74 27 29 76 75 29 31 77 76 
31 33 78 77 33 35 79 78 35 37 80 79 
37 39 81 80 39 41 82 81 41 43 83 82 
43 45 84 83 45 47 85 84 47 49 86 85 
49 51 87 86 51 53 88 87 53 55 89 88 
55 57 90 89 57 59 91 90 59 61 92 91 
62 63 94 93 63 64 95 94 64 65 96 95 
65 66 97 96 66 67 98 97 67 68 99 98 
68 69 100 99 69 70 101 100 70 71 102 101 
71 72 103 102 72 73 104 103 73 74 105 104 
74 75 106 105 75 76 107 106 76 77 108 107 
77 78 109 108 78 79 110 109 79 80 111 110 
80 81 112 111 81 82 113 112 82 83 114 113 
83 84 115 114 84 85 116 115 85 86 117 116 
86 87 118 117 87 88 119 118 88 89 120 119 
89 90 121 120 90 91 122 121 91 92 123 122 
93 94 125 124 94 95 126 125 95 96 127 126 
96 97 128 127 97 98 129 128 98 99 130 129 
99 100 131 130 100 101 132 131 101 102 133 132 
102 103 134 133 103 104 135 134 104 105 136 135 
105 106 137 136 106 107 138 137 107 108 139 138 
108 109 140 139 109 110 141 140 110 111 142 141 
111 112 143 142 112 113 144 143 113 114 145 144 
114 115 146 145 115 116 147 146 116 117 148 147 
117 118 149 148 118 119 150 149 119 120 151 150 
120 121 152 151 121 122 153 152 122 123 154 153 
124 125 156 155 125 126 157 156 126 127 158 157 
127 128 159 158 128 129 160 159 129 130 161 160 
130 131 162 161 131 132 163 162 132 133 164 163 
133 134 165 164 134 135 166 165 135 136 167 166 
136 137 168 167 137 138 169 168 138 139 170 169 
139 140 171 170 140 141 172 171 141 142 173 172 
142 143 174 173 143 144 175 174 144 145 176 175 
145 146 177 176 146 147 178 177 147 148 179 178 
148 149 180 179 149 150 181 180 150 151 182 181 
151 152 183 182 152 153 184 183 153 154 185 184 
155 156 187 186 156 157 188 187 157 158 189 188 
158 159 190 189 159 160 191 190 160 161 192 191 
161 162 193 192 162 163 194 193 163 164 195 194 
164 165 196 195 165 166 197 196 166 167 198 197 
167 168 199 198 168 169 200 199 169 170 201 200 
170 171 202 201 171 172 203 202 172 173 204 203 
173 174 205 204 174 175 206 205 175 176 207 206 
176 177 208 207 177 178 209 208 178 179 210 209 
179 180 211 210 180 181 212 211 181 182 213 212 
182 183 214 213 183 184 215 214 184 185 216 215 
186 187 218 217 187 188 219 218 188 189 220 219 
189 190 221 220 190 191 222 221 191 192 223 222 
192 193 224 223 193 194 225 224 194 195 226 225 
195 196 227 226 196 197 228 227 197 198 229 228 
198 199 230 229 199 200 231 230 200 201 232 231 
201 202 233 232 202 203 234 233 203 204 235 234 
204 205 236 235 205 206 237 236 206 207 238 237 
207 208 239 238 208 209 240 239 209 210 241 240 
210 211 242 241 211 212 243 242 212 213 244 243 
213 214 245 244 214 215 246 245 215 216 247 246 
217 218 249 248 218 219 250 249 219 220 251 250 
220 221 252 251 221 222 253 252 222 223 254 253 
223 224 255 254 224 225 256 255 225 226 257 256 
226 227 258 257 227 228 259 258 228 229 260 259 
229 230 261 260 230 231 262 261 231 232 263 262 
232 233 264 263 233 234 265 264 234 235 266 265 
235 236 267 266 236 237 268 267 237 238 269 268 
238 239 270 269 239 240 271 270 240 241 272 271 
241 242 273 272 242 243 274 273 243 244 275 274 
244 245 276 275 245 246 277 276 246 247 278 277 
248 249 280 279 249 250 281 280 250 251 282 281 
251 252 283 282 252 253 284 283 253 254 285 284 
254 255 286 285 255 256 287 286 256 257 288 287 
257 258 289 288 258 259 290 289 259 260 291 290 
260 261 292 291 261 262 293 292 262 263 294 293 
263 264 295 294 264 265 296 295 265 266 297 296 
266 267 298 297 267 268 299 298 268 269 300 299 
269 270 301 300 270 271 302 301 271 272 303 302 
272 273 304 303 273 274 305 304 274 275 306 305 
275 276 307 306 276 277 308 307 277 278 309 308 
279 280 311 310 280 281 312 311 281 282 313 312 
282 283 314 313 283 284 315 314 284 285 316 315 
285 286 317 316 286 287 318 317 287 288 319 318 
288 289 320 319 289 290 321 320 290 291 322 321 
291 292 323 322 292 293 324 323 293 294 325 324 
294 295 326 325 295 296 327 326 296 297 328 327 
297 298 329 328 298 299 330 329 299 300 331 330 
300 301 332 331 301 302 333 332 302 303 334 333 
303 304 335 334 304 305 336 335 305 306 337 336 
306 307 338 337 307 308 339 338 308 309 340 339 
310 311 342 341 311 312 343 342 312 313 344 343 
313 314 345 344 314 315 346 345 315 316 347 346 
316 317 348 347 317 318 349 348 318 319 350 349 
319 320 351 350 320 321 352 351 321 322 353 352 
322 323 354 353 323 324 355 354 324 325 356 355 
325 326 357 356 326 327 358 357 327 328 359 358 
328 329 360 359 329 330 361 360 330 331 362 361 
331 332 363 362 332 333 364 363 333 334 365 364 
334 335 366 365 335 336 367 366 336 337 368 367 
337 338 369 368 338 339 370 369 339 340 371 370 
341 342 373 372 342 343 374 373 343 344 375 374 
344 345 376 375 345 346 377 376 346 347 378 377 
347 348 379 378 348 349 380 379 349 350 381 380 
350 351 382 381 351 352 383 382 352 353 384 383 
353 354 385 384 354 355 386 385 355 356 387 386 
356 357 388 387 357 358 389 388 358 359 390 389 
359 360 391 390 360 361 392 391 361 362 393 392 
362 363 394 393 363 364 395 394 364 365 396 395 
365 366 397 396 366 367 398 397 367 368 399 398 
368 369 400 399 369 370 401 400 370 371 402 401 
372 373 404 403 373 374 405 404 374 375 406 405 
375 376 407 406 376 377 408 407 377 378 409 408 
378 379 410 409 379 380 411 410 380 381 412 411 
381 382 413 412 382 383 414 413 383 384 415 414 
384 385 416 415 385 386 417 416 386 387 418 417 
387 388 419 418 388 389 420 419 389 390 421 420 
390 391 422 421 391 392 423 422 392 393 424 423 
393 394 425 424 394 395 426 425 395 396 427 426 
396 397 428 427 397 398 429 428 398 399 430 429 
399 400 431 430 400 401 432 431 401 402 433 432 
403 404 435 434 404 405 436 435 405 406 437 436 
406 407 438 437 407 408 439 438 408 409 440 439 
409 410 441 440 410 411 442 441 411 412 443 442 
412 413 444 443 413 414 445 444 414 415 446 445 
415 416 447 446 416 417 448 447 417 418 449 448 
418 419 450 449 419 420 451 450 420 421 452 451 
421 422 453 452 422 423 454 453 423 424 455 454 
424 425 456 455 425 426 457 456 426 427 458 457 
427 428 459 458 428 429 460 459 429 430 461 460 
430 431 462 461 431 432 463 462 432 433 464 463 
434 435 466 465 435 436 467 466 436 437 468 467 
437 438 469 468 438 439 470 469 439 440 471 470 
440 441 472 471 441 442 473 472 442 443 474 473 
443 444 475 474 444 445 476 475 445 446 477 476 
446 447 478 477 447 448 479 478 448 449 480 479 
449 450 481 480 450 451 482 481 451 452 483 482 
452 453 484 483 453 454 485 484 454 455 486 485 
455 456 487 486 456 457 488 487 457 458 489 488 
458 459 490 489 459 460 491 490 460 461 492 491 
461 462 493 492 462 463 494 493 463 464 495 494 
</DataArray>
<DataArray type="Int32" Name="offsets" NumberOfComponents="1" format="ascii">
4 8 12 16 20 24 28 32 36 40 44 48 
52 56 60 64 68 72 76 80 84 88 92 96 
100 104 108 112 116 120 124 128 132 136 140 144 
148 152 156 160 164 168 172 176 180 184 188 192 
196 200 204 208 212 216 220 224 228 232 236 240 
244 248 252 256 260 264 268 272 276 280 284 288 
292 296 300 304 308 312 316 320 324 328 332 336 
340 344 348 352 356 360 364 368 372 376 380 384 
388 392 396 400 404 408 412 416 420 424 428 432 
436 440 444 448 452 456 460 464 468 472 476 480 
484 488 492 496 500 504 508 512 516 520 524 528 
532 536 540 544 548 552 556 560 564 568 572 576 
580 584 588 592 596 600 604 608 612 616 620 624 
628 632 636 640 644 648 652 656 660 664 668 672 
676 680 684 688 692 696 700 704 708 712 716 720 
724 728 732 736 740 744 748 752 756 760 764 768 
772 776 780 784 788 792 796 800 804 808 812 816 
820 824 828 832 836 840 844 848 852 856 860 864 
868 872 876 880 884 888 892 896 900 904 908 912 
916 920 924 928 932 936 940 944 948 952 956 960 
964 968 972 976 980 984 988 992 996 1000 1004 1008 
1012 1016 1020 1024 1028 1032 1036 1040 1044 1048 1052 1056 
1060 1064 1068 1072 1076 1080 1084 1088 1092 1096 1100 1104 
1108 1112 1116 1120 1124 1128 1132 1136 1140 1144 1148 1152 
1156 1160 1164 1168 1172 1176 1180 1184 1188 1192 1196 1200 
1204 1208 1212 1216 1220 1224 1228 1232 1236 1240 1244 1248 
1252 1256 1260 1264 1268 1272 1276 1280 1284 1288 1292 1296 
1300 1304 1308 1312 1316 1320 1324 1328 1332 1336 1340 1344 
1348 1352 1356 1360 1364 1368 1372 1376 1380 1384 1388 1392 
1396 1400 1404 1408 1412 1416 1420 1424 1428 1432 1436 1440 
1444 1448 1452 1456 1460 1464 1468 1472 1476 1480 1484 1488 
1492 1496 1500 1504 1508 1512 1516 1520 1524 1528 1532 1536 
1540 1544 1548 1552 1556 1560 1564 1568 1572 1576 1580 1584 
1588 1592 1596 1600 1604 1608 1612 1616 1620 1624 1628 1632 
1636 1640 1644 1648 1652 1656 1660 1664 1668 1672 1676 1680 
1684 1688 1692 1696 1700 1704 1708 1712 1716 1720 1724 1728 
1732 1736 1740 1744 1748 1752 1756 1760 1764 1768 1772 1776 
1780 1784 1788 1792 1796 1800 
</DataArray>
<DataArray type="UInt8" Name="types" NumberOfComponents="1" format="ascii">
9 9 9 9 9 9 9 9 9 9 9 9 
9 9 9 9 9 9 9 9 9 9 9 9 
9 9 9 9 9 9 9 9 9 9 9 9 
9 9 9 9 9 9 9 9 9 9 9 9 
9 9 9 9 9 9 9 9 9 9 9 9 
9 9 9 9 9 9 9 9 9 9 9 9 
9 9 9 9 9 9 9 9 9 9 9 9 
9 9 9 9 9 9 9 9 9 9 9 9 
9 9 9 9 9 9 9 9 9 9 9 9 
9 9 9 9 9 9 9 9 9 9 9 9 
9 9 9 9 9 9 9 9 9 9 9 9 
9 9 9 9 9 9 9 9 9 9 9 9 
9 9 9 9 9 9 9 9 9 9 9 9 
9 9 9 9 9 9 9 9 9 9 9 9 
9 9 9 9 9 9 9 9 9 9 9 9 
9 9 9 9 9 9 9 9 9 9 9 9 
9 9 9 9 9 9 9 9 9 9 9 9 
9 9 9 9 9 9 9 9 9 9 9 9 
9 9 9 9 9 9 9 9 9 9 9 9 
9 9 9 9 9 9 9 9 9 9 9 9 
9 9 9 9 9 9 9 9 9 9 9 9 
9 9 9 9 9 9 9 9 9 9 9 9 
9 9 9 9 9 9 9 9 9 9 9 9 
9 9 9 9 9 9 9 9 9 9 9 9 
9 9 9 9 9 9 9 9 9 9 9 9 
9 9 9 9 9 9 9 9 9 9 9 9 
9 9 9 9 9 9 9 9 9 9 9 9 
9 9 9 9 9 9 9 9 9 9 9 9 
9 9 9 9 9 9 9 9 9 9 9 9 
9 9 9 9 9 9 9 9 9 9 9 9 
9 9 9 9 9 9 9 9 9 9 9 9 
9 9 9 9 9 9 9 9 9 9 9 9 
9 9 9 9 9 9 9 9 9 9 9 9 
9 9 9 9 9 9 9 9 9 9 9 9 
9 9 9 9 9 9 9 9 9 9 9 9 
9 9 9 9 9 9 9 9 9 9 9 9 
9 9 9 9 9 9 9 9 9 9 9 9 
9 9 9 9 9 9 
</DataArray>
      </Cells>
    </Piece>
  </UnstructuredGrid>
</VTKFile>
