<?xml version="1.0"?>
<VTKFile type="UnstructuredGrid" version="0.1" byte_order="LittleEndian">
  <UnstructuredGrid>
    <Piece NumberOfCells="384" NumberOfPoints="425">
      <PointData Scalars="Sg">
        <DataArray type="Float32" Name="Sg" NumberOfComponents="1" format="ascii">
          0 0 0 0 0 0 0 0 0 0 0 0
          0 0 0 0 0 0 0 0 0 0 0 0
          0 0 0 0 0 0 0 0 0 0 0 0
          0 0 0 0 0 0 0 0 0 0 0 0
          0 0 0 0 0 0 0 0 0 0 0 0
          0 0 0 0 0 0 0 0 0 0 0 0
          0 0 0 0 0 0 0 0 0 0 0 0
          0 0 0 0 0 0 0 0 0 0 0 0
          0 0 0.000939169 0.0852736 0 0 0 0 0 0 0 0
          0 0 0 0 0 0 0 0 0 0 0 0
          0 0 0 0.00147979 0.0878159 0 0 0 0 0 0 0
          0 0 0 0 0 0 0 0 0 0 0 0
          0 0 0 0 0.00120621 0.0880733 0 0 0 0 0 0
          0 0 0 0 0 0 0 0 0 0 0 0
          0 0 0 0 0 0 0.00664206 0 0 0 0 0
          0 0 0 0 0 0 0 0 0 0 0 0
          0 0 0 0 0 0 0 0 0 0 0 0
          0 0 0 0 0 0 0 0 0 0 0 0
          0 0 0 0 0 0 0 0 0 0 0 0
          0 0 0 0 0 0 0 0 0 0 0 0
          0 0 0 0 0 0 0 0 0 0 0 0
          0 0 0 0 0 0 0 0 0 0 0 0
          0 0 0 0 0 0 0 0 0 0 0 0
          0 0 0 0 0 0 0 0 0 0 0 0
          0 0 0 0 0 0 0 0 0 0 0 0
          0 0 0 0 0 0 0 0 0 0 0 0
          0 0 0 0 0 0 0 0 0 0 0 0
          0 0 0 0 0 0 0 0 0 0 0 0
          0 0 0 0 0 0 0 0 0 0 0 0
          0 0 0 0 0 0 0 0 0 0 0 0
          0 0 0 0 0 0 0 0 0 0 0 0
          0 0 0 0 0 0 0 0 0 0 0 0
          0 0 0 0 0 0 0 0 0 0 0 0
          0 0 0 0 0 0 0 0 0 0 0 0
          0 0 0 0 0 0 0 0 0 0 0 0
          0 0 0 0 0
        </DataArray>
        <DataArray type="Float32" Name="Sl" NumberOfComponents="1" format="ascii">
          1 1 1 1 1 1 1 1 1 1 1 1
          1 1 1 1 1 1 1 1 1 1 1 1
          1 1 1 1 1 1 1 1 1 1 1 1
          1 1 1 1 1 1 1 1 1 1 1 1
          1 1 1 1 1 1 1 1 1 1 1 1
          1 1 1 1 1 1 1 1 1 1 1 1
          1 1 1 1 1 1 1 1 1 1 1 1
          1 1 1 1 1 1 1 1 1 1 1 1
          1 1 0.999061 0.914726 1 1 1 1 1 1 1 1
          1 1 1 1 1 1 1 1 1 1 1 1
          1 1 1 0.99852 0.912184 1 1 1 1 1 1 1
          1 1 1 1 1 1 1 1 1 1 1 1
          1 1 1 1 0.998794 0.911927 1 1 1 1 1 1
          1 1 1 1 1 1 1 1 1 1 1 1
          1 1 1 1 1 1 0.993358 1 1 1 1 1
          1 1 1 1 1 1 1 1 1 1 1 1
          1 1 1 1 1 1 1 1 1 1 1 1
          1 1 1 1 1 1 1 1 1 1 1 1
          1 1 1 1 1 1 1 1 1 1 1 1
          1 1 1 1 1 1 1 1 1 1 1 1
          1 1 1 1 1 1 1 1 1 1 1 1
          1 1 1 1 1 1 1 1 1 1 1 1
          1 1 1 1 1 1 1 1 1 1 1 1
          1 1 1 1 1 1 1 1 1 1 1 1
          1 1 1 1 1 1 1 1 1 1 1 1
          1 1 1 1 1 1 1 1 1 1 1 1
          1 1 1 1 1 1 1 1 1 1 1 1
          1 1 1 1 1 1 1 1 1 1 1 1
          1 1 1 1 1 1 1 1 1 1 1 1
          1 1 1 1 1 1 1 1 1 1 1 1
          1 1 1 1 1 1 1 1 1 1 1 1
          1 1 1 1 1 1 1 1 1 1 1 1
          1 1 1 1 1 1 1 1 1 1 1 1
          1 1 1 1 1 1 1 1 1 1 1 1
          1 1 1 1 1 1 1 1 1 1 1 1
          1 1 1 1 1
        </DataArray>
        <DataArray type="Float32" Name="pg" NumberOfComponents="1" format="ascii">
          2.6391e+07 2.63934e+07 2.63667e+07 2.63689e+07 2.63955e+07 2.63709e+07 2.63975e+07 2.6373e+07 2.63995e+07 2.63749e+07 2.64015e+07 2.63769e+07
          2.64034e+07 2.63788e+07 2.64053e+07 2.63807e+07 2.64072e+07 2.63826e+07 2.64092e+07 2.63845e+07 2.64111e+07 2.63864e+07 2.6413e+07 2.63883e+07
          2.64149e+07 2.63902e+07 2.64168e+07 2.63921e+07 2.64187e+07 2.63941e+07 2.64206e+07 2.6396e+07 2.64225e+07 2.63979e+07 2.64244e+07 2.63998e+07
          2.64263e+07 2.64017e+07 2.64283e+07 2.64037e+07 2.64301e+07 2.64056e+07 2.64319e+07 2.64074e+07 2.64334e+07 2.64091e+07 2.64345e+07 2.64103e+07
          2.64349e+07 2.64107e+07 2.63424e+07 2.63444e+07 2.63464e+07 2.63484e+07 2.63504e+07 2.63523e+07 2.63542e+07 2.63561e+07 2.6358e+07 2.63599e+07
          2.63618e+07 2.63637e+07 2.63656e+07 2.63675e+07 2.63694e+07 2.63713e+07 2.63733e+07 2.63752e+07 2.63771e+07 2.63791e+07 2.63811e+07 2.6383e+07
          2.6385e+07 2.63869e+07 2.63874e+07 2.6318e+07 2.632e+07 2.6322e+07 2.63239e+07 2.63258e+07 2.63277e+07 2.63297e+07 2.63316e+07 2.63334e+07
          2.63353e+07 2.63372e+07 2.63391e+07 2.6341e+07 2.63429e+07 2.63448e+07 2.63467e+07 2.63486e+07 2.63506e+07 2.63525e+07 2.63545e+07 2.63565e+07
          2.63587e+07 2.6361e+07 2.63638e+07 2.63702e+07 2.62937e+07 2.62956e+07 2.62975e+07 2.62994e+07 2.63013e+07 2.63032e+07 2.63051e+07 2.6307e+07
          2.63089e+07 2.63107e+07 2.63126e+07 2.63145e+07 2.63164e+07 2.63183e+07 2.63202e+07 2.63221e+07 2.6324e+07 2.63259e+07 2.63279e+07 2.63299e+07
          2.63319e+07 2.63342e+07 2.63367e+07 2.634e+07 2.63474e+07 2.62694e+07 2.62712e+07 2.62731e+07 2.62749e+07 2.62768e+07 2.62786e+07 2.62805e+07
          2.62824e+07 2.62843e+07 2.62861e+07 2.6288e+07 2.62899e+07 2.62918e+07 2.62937e+07 2.62955e+07 2.62974e+07 2.62993e+07 2.63013e+07 2.63032e+07
          2.63052e+07 2.63072e+07 2.63093e+07 2.63117e+07 2.63147e+07 2.63216e+07 2.6245e+07 2.62468e+07 2.62486e+07 2.62504e+07 2.62522e+07 2.62541e+07
          2.62559e+07 2.62578e+07 2.62597e+07 2.62615e+07 2.62634e+07 2.62653e+07 2.62672e+07 2.6269e+07 2.62709e+07 2.62728e+07 2.62747e+07 2.62766e+07
          2.62785e+07 2.62804e+07 2.62823e+07 2.62843e+07 2.62864e+07 2.62885e+07 2.62897e+07 2.62207e+07 2.62224e+07 2.62241e+07 2.62259e+07 2.62277e+07
          2.62295e+07 2.62314e+07 2.62332e+07 2.62351e+07 2.62369e+07 2.62388e+07 2.62407e+07 2.62425e+07 2.62444e+07 2.62463e+07 2.62481e+07 2.625e+07
          2.62519e+07 2.62538e+07 2.62556e+07 2.62574e+07 2.62592e+07 2.62609e+07 2.62622e+07 2.62627e+07 2.61964e+07 2.61979e+07 2.61996e+07 2.62014e+07
          2.62031e+07 2.6205e+07 2.62068e+07 2.62086e+07 2.62105e+07 2.62123e+07 2.62142e+07 2.6216e+07 2.62179e+07 2.62198e+07 2.62216e+07 2.62235e+07
          2.62253e+07 2.62272e+07 2.6229e+07 2.62308e+07 2.62326e+07 2.62342e+07 2.62357e+07 2.62367e+07 2.6237e+07 2.6172e+07 2.61736e+07 2.61752e+07
          2.61769e+07 2.61787e+07 2.61804e+07 2.61822e+07 2.61841e+07 2.61859e+07 2.61877e+07 2.61895e+07 2.61914e+07 2.61932e+07 2.6195e+07 2.61968e+07
          2.61986e+07 2.62004e+07 2.62022e+07 2.6204e+07 2.62057e+07 2.62073e+07 2.62087e+07 2.62099e+07 2.62107e+07 2.6211e+07 2.61477e+07 2.61493e+07
          2.61509e+07 2.61526e+07 2.61543e+07 2.6156e+07 2.61577e+07 2.61595e+07 2.61613e+07 2.61631e+07 2.61649e+07 2.61666e+07 2.61684e+07 2.61702e+07
          2.61719e+07 2.61736e+07 2.61753e+07 2.6177e+07 2.61786e+07 2.61801e+07 2.61815e+07 2.61827e+07 2.61836e+07 2.61842e+07 2.61845e+07 2.61234e+07
          2.61249e+07 2.61265e+07 2.61282e+07 2.61298e+07 2.61315e+07 2.61332e+07 2.6135e+07 2.61367e+07 2.61384e+07 2.61402e+07 2.61419e+07 2.61436e+07
          2.61453e+07 2.6147e+07 2.61487e+07 2.61503e+07 2.61518e+07 2.61533e+07 2.61546e+07 2.61558e+07 2.61569e+07 2.61577e+07 2.61582e+07 2.61583e+07
          2.6099e+07 2.61006e+07 2.61021e+07 2.61037e+07 2.61054e+07 2.6107e+07 2.61087e+07 2.61104e+07 2.61121e+07 2.61138e+07 2.61155e+07 2.61172e+07
          2.61189e+07 2.61206e+07 2.61222e+07 2.61238e+07 2.61253e+07 2.61267e+07 2.61281e+07 2.61293e+07 2.61304e+07 2.61313e+07 2.6132e+07 2.61324e+07
          2.61326e+07 2.60747e+07 2.60762e+07 2.60777e+07 2.60793e+07 2.60809e+07 2.60825e+07 2.60842e+07 2.60858e+07 2.60875e+07 2.60892e+07 2.60909e+07
          2.60925e+07 2.60942e+07 2.60958e+07 2.60974e+07 2.60989e+07 2.61004e+07 2.61017e+07 2.6103e+07 2.61042e+07 2.61052e+07 2.6106e+07 2.61066e+07
          2.6107e+07 2.61071e+07 2.60504e+07 2.60518e+07 2.60533e+07 2.60548e+07 2.60564e+07 2.6058e+07 2.60596e+07 2.60612e+07 2.60629e+07 2.60646e+07
          2.60662e+07 2.60679e+07 2.60695e+07 2.60711e+07 2.60726e+07 2.60741e+07 2.60755e+07 2.60769e+07 2.60781e+07 2.60792e+07 2.60801e+07 2.60809e+07
          2.60815e+07 2.60818e+07 2.60819e+07 2.6026e+07 2.60274e+07 2.60288e+07 2.60303e+07 2.60318e+07 2.60334e+07 2.6035e+07 2.60367e+07 2.60383e+07
          2.60399e+07 2.60416e+07 2.60432e+07 2.60448e+07 2.60464e+07 2.60479e+07 2.60494e+07 2.60508e+07 2.60521e+07 2.60533e+07 2.60543e+07 2.60553e+07
          2.6056e+07 2.60565e+07 2.60569e+07 2.6057e+07 2.60017e+07 2.60028e+07 2.60042e+07 2.60057e+07 2.60072e+07 2.60088e+07 2.60104e+07 2.60121e+07
          2.60137e+07 2.60153e+07 2.6017e+07 2.60186e+07 2.60202e+07 2.60218e+07 2.60233e+07 2.60247e+07 2.60261e+07 2.60274e+07 2.60286e+07 2.60297e+07
          2.60306e+07 2.60313e+07 2.60318e+07 2.60322e+07 2.60323e+07
        </DataArray>
        <DataArray type="Float32" Name="pl" NumberOfComponents="1" format="ascii">
          2.6381e+07 2.63834e+07 2.63567e+07 2.63589e+07 2.63855e+07 2.63609e+07 2.63875e+07 2.6363e+07 2.63895e+07 2.63649e+07 2.63915e+07 2.63669e+07
          2.63934e+07 2.63688e+07 2.63953e+07 2.63707e+07 2.63972e+07 2.63726e+07 2.63992e+07 2.63745e+07 2.64011e+07 2.63764e+07 2.6403e+07 2.63783e+07
          2.64049e+07 2.63802e+07 2.64068e+07 2.63821e+07 2.64087e+07 2.63841e+07 2.64106e+07 2.6386e+07 2.64125e+07 2.63879e+07 2.64144e+07 2.63898e+07
          2.64163e+07 2.63917e+07 2.64183e+07 2.63937e+07 2.64201e+07 2.63956e+07 2.64219e+07 2.63974e+07 2.64234e+07 2.63991e+07 2.64245e+07 2.64003e+07
          2.64249e+07 2.64007e+07 2.63324e+07 2.63344e+07 2.63364e+07 2.63384e+07 2.63404e+07 2.63423e+07 2.63442e+07 2.63461e+07 2.6348e+07 2.63499e+07
          2.63518e+07 2.63537e+07 2.63556e+07 2.63575e+07 2.63594e+07 2.63613e+07 2.63633e+07 2.63652e+07 2.63671e+07 2.63691e+07 2.63711e+07 2.6373e+07
          2.6375e+07 2.63769e+07 2.63774e+07 2.6308e+07 2.631e+07 2.6312e+07 2.63139e+07 2.63158e+07 2.63177e+07 2.63197e+07 2.63216e+07 2.63234e+07
          2.63253e+07 2.63272e+07 2.63291e+07 2.6331e+07 2.63329e+07 2.63348e+07 2.63367e+07 2.63386e+07 2.63406e+07 2.63425e+07 2.63445e+07 2.63465e+07
          2.63487e+07 2.6351e+07 2.63538e+07 2.63596e+07 2.62837e+07 2.62856e+07 2.62875e+07 2.62894e+07 2.62913e+07 2.62932e+07 2.62951e+07 2.6297e+07
          2.62989e+07 2.63007e+07 2.63026e+07 2.63045e+07 2.63064e+07 2.63083e+07 2.63102e+07 2.63121e+07 2.6314e+07 2.63159e+07 2.63179e+07 2.63199e+07
          2.63219e+07 2.63242e+07 2.63267e+07 2.633e+07 2.63368e+07 2.62594e+07 2.62612e+07 2.62631e+07 2.62649e+07 2.62668e+07 2.62686e+07 2.62705e+07
          2.62724e+07 2.62743e+07 2.62761e+07 2.6278e+07 2.62799e+07 2.62818e+07 2.62837e+07 2.62855e+07 2.62874e+07 2.62893e+07 2.62913e+07 2.62932e+07
          2.62952e+07 2.62972e+07 2.62993e+07 2.63017e+07 2.63046e+07 2.6311e+07 2.6235e+07 2.62368e+07 2.62386e+07 2.62404e+07 2.62422e+07 2.62441e+07
          2.62459e+07 2.62478e+07 2.62497e+07 2.62515e+07 2.62534e+07 2.62553e+07 2.62572e+07 2.6259e+07 2.62609e+07 2.62628e+07 2.62647e+07 2.62666e+07
          2.62685e+07 2.62704e+07 2.62723e+07 2.62743e+07 2.62764e+07 2.62785e+07 2.62797e+07 2.62107e+07 2.62124e+07 2.62141e+07 2.62159e+07 2.62177e+07
          2.62195e+07 2.62214e+07 2.62232e+07 2.62251e+07 2.62269e+07 2.62288e+07 2.62307e+07 2.62325e+07 2.62344e+07 2.62363e+07 2.62381e+07 2.624e+07
          2.62419e+07 2.62438e+07 2.62456e+07 2.62474e+07 2.62492e+07 2.62509e+07 2.62522e+07 2.62527e+07 2.61864e+07 2.61879e+07 2.61896e+07 2.61914e+07
          2.61931e+07 2.6195e+07 2.61968e+07 2.61986e+07 2.62005e+07 2.62023e+07 2.62042e+07 2.6206e+07 2.62079e+07 2.62098e+07 2.62116e+07 2.62135e+07
          2.62153e+07 2.62172e+07 2.6219e+07 2.62208e+07 2.62226e+07 2.62242e+07 2.62257e+07 2.62267e+07 2.6227e+07 2.6162e+07 2.61636e+07 2.61652e+07
          2.61669e+07 2.61687e+07 2.61704e+07 2.61722e+07 2.61741e+07 2.61759e+07 2.61777e+07 2.61795e+07 2.61814e+07 2.61832e+07 2.6185e+07 2.61868e+07
          2.61886e+07 2.61904e+07 2.61922e+07 2.6194e+07 2.61957e+07 2.61973e+07 2.61987e+07 2.61999e+07 2.62007e+07 2.6201e+07 2.61377e+07 2.61393e+07
          2.61409e+07 2.61426e+07 2.61443e+07 2.6146e+07 2.61477e+07 2.61495e+07 2.61513e+07 2.61531e+07 2.61549e+07 2.61566e+07 2.61584e+07 2.61602e+07
          2.61619e+07 2.61636e+07 2.61653e+07 2.6167e+07 2.61686e+07 2.61701e+07 2.61715e+07 2.61727e+07 2.61736e+07 2.61742e+07 2.61745e+07 2.61134e+07
          2.61149e+07 2.61165e+07 2.61182e+07 2.61198e+07 2.61215e+07 2.61232e+07 2.6125e+07 2.61267e+07 2.61284e+07 2.61302e+07 2.61319e+07 2.61336e+07
          2.61353e+07 2.6137e+07 2.61387e+07 2.61403e+07 2.61418e+07 2.61433e+07 2.61446e+07 2.61458e+07 2.61469e+07 2.61477e+07 2.61482e+07 2.61483e+07
          2.6089e+07 2.60906e+07 2.60921e+07 2.60937e+07 2.60954e+07 2.6097e+07 2.60987e+07 2.61004e+07 2.61021e+07 2.61038e+07 2.61055e+07 2.61072e+07
          2.61089e+07 2.61106e+07 2.61122e+07 2.61138e+07 2.61153e+07 2.61167e+07 2.61181e+07 2.61193e+07 2.61204e+07 2.61213e+07 2.6122e+07 2.61224e+07
          2.61226e+07 2.60647e+07 2.60662e+07 2.60677e+07 2.60693e+07 2.60709e+07 2.60725e+07 2.60742e+07 2.60758e+07 2.60775e+07 2.60792e+07 2.60809e+07
          2.60825e+07 2.60842e+07 2.60858e+07 2.60874e+07 2.60889e+07 2.60904e+07 2.60917e+07 2.6093e+07 2.60942e+07 2.60952e+07 2.6096e+07 2.60966e+07
          2.6097e+07 2.60971e+07 2.60404e+07 2.60418e+07 2.60433e+07 2.60448e+07 2.60464e+07 2.6048e+07 2.60496e+07 2.60512e+07 2.60529e+07 2.60546e+07
          2.60562e+07 2.60579e+07 2.60595e+07 2.60611e+07 2.60626e+07 2.60641e+07 2.60655e+07 2.60669e+07 2.60681e+07 2.60692e+07 2.60701e+07 2.60709e+07
          2.60715e+07 2.60718e+07 2.60719e+07 2.6016e+07 2.60174e+07 2.60188e+07 2.60203e+07 2.60218e+07 2.60234e+07 2.6025e+07 2.60267e+07 2.60283e+07
          2.60299e+07 2.60316e+07 2.60332e+07 2.60348e+07 2.60364e+07 2.60379e+07 2.60394e+07 2.60408e+07 2.60421e+07 2.60433e+07 2.60443e+07 2.60453e+07
          2.6046e+07 2.60465e+07 2.60469e+07 2.6047e+07 2.59917e+07 2.59928e+07 2.59942e+07 2.59957e+07 2.59972e+07 2.59988e+07 2.60004e+07 2.60021e+07
          2.60037e+07 2.60053e+07 2.6007e+07 2.60086e+07 2.60102e+07 2.60118e+07 2.60133e+07 2.60147e+07 2.60161e+07 2.60174e+07 2.60186e+07 2.60197e+07
          2.60206e+07 2.60213e+07 2.60218e+07 2.60222e+07 2.60223e+07
        </DataArray>
        <DataArray type="Float32" Name="pc" NumberOfComponents="1" format="ascii">
          10000 10000 10000 10000 10000 10000 10000 10000 10000 10000 10000 10000
          10000 10000 10000 10000 10000 10000 10000 10000 10000 10000 10000 10000
          10000 10000 10000 10000 10000 10000 10000 10000 10000 10000 10000 10000
          10000 10000 10000 10000 10000 10000 10000 10000 10000 10000 10000 10000
          10000 10000 10000 10000 10000 10000 10000 10000 10000 10000 10000 10000
          10000 10000 10000 10000 10000 10000 10000 10000 10000 10000 10000 10000
          10000 10000 10000 10000 10000 10000 10000 10000 10000 10000 10000 10000
          10000 10000 10000 10000 10000 10000 10000 10000 10000 10000 10000 10000
          10000 10000 10005.9 10579.7 10000 10000 10000 10000 10000 10000 10000 10000
          10000 10000 10000 10000 10000 10000 10000 10000 10000 10000 10000 10000
          10000 10000 10000 10009.3 10598.6 10000 10000 10000 10000 10000 10000 10000
          10000 10000 10000 10000 10000 10000 10000 10000 10000 10000 10000 10000
          10000 10000 10000 10000 10007.5 10600.5 10000 10000 10000 10000 10000 10000
          10000 10000 10000 10000 10000 10000 10000 10000 10000 10000 10000 10000
          10000 10000 10000 10000 10000 10000 10041.8 10000 10000 10000 10000 10000
          10000 10000 10000 10000 10000 10000 10000 10000 10000 10000 10000 10000
          10000 10000 10000 10000 10000 10000 10000 10000 10000 10000 10000 10000
          10000 10000 10000 10000 10000 10000 10000 10000 10000 10000 10000 10000
          10000 10000 10000 10000 10000 10000 10000 10000 10000 10000 10000 10000
          10000 10000 10000 10000 10000 10000 10000 10000 10000 10000 10000 10000
          10000 10000 10000 10000 10000 10000 10000 10000 10000 10000 10000 10000
          10000 10000 10000 10000 10000 10000 10000 10000 10000 10000 10000 10000
          10000 10000 10000 10000 10000 10000 10000 10000 10000 10000 10000 10000
          10000 10000 10000 10000 10000 10000 10000 10000 10000 10000 10000 10000
          10000 10000 10000 10000 10000 10000 10000 10000 10000 10000 10000 10000
          10000 10000 10000 10000 10000 10000 10000 10000 10000 10000 10000 10000
          10000 10000 10000 10000 10000 10000 10000 10000 10000 10000 10000 10000
          10000 10000 10000 10000 10000 10000 10000 10000 10000 10000 10000 10000
          10000 10000 10000 10000 10000 10000 10000 10000 10000 10000 10000 10000
          10000 10000 10000 10000 10000 10000 10000 10000 10000 10000 10000 10000
          10000 10000 10000 10000 10000 10000 10000 10000 10000 10000 10000 10000
          10000 10000 10000 10000 10000 10000 10000 10000 10000 10000 10000 10000
          10000 10000 10000 10000 10000 10000 10000 10000 10000 10000 10000 10000
          10000 10000 10000 10000 10000 10000 10000 10000 10000 10000 10000 10000
          10000 10000 10000 10000 10000 10000 10000 10000 10000 10000 10000 10000
          10000 10000 10000 10000 10000
        </DataArray>
        <DataArray type="Float32" Name="rhoL" NumberOfComponents="1" format="ascii">
          1003.43 1003.43 1003.42 1003.42 1003.43 1003.42 1003.43 1003.42 1003.43 1003.42 1003.43 1003.42
          1003.43 1003.42 1003.43 1003.42 1003.43 1003.42 1003.44 1003.42 1003.44 1003.43 1003.44 1003.43
          1003.44 1003.43 1003.44 1003.43 1003.44 1003.43 1003.44 1003.43 1003.44 1003.43 1003.44 1003.43
          1003.44 1003.43 1003.44 1003.43 1003.44 1003.43 1003.44 1003.43 1003.45 1003.44 1003.45 1003.44
          1003.45 1003.44 1003.41 1003.41 1003.41 1003.41 1003.41 1003.41 1003.41 1003.41 1003.41 1003.41
          1003.42 1003.42 1003.42 1003.42 1003.42 1003.42 1003.42 1003.42 1003.42 1003.42 1003.42 1003.42
          1003.43 1003.43 1003.43 1003.4 1003.4 1003.4 1003.4 1003.4 1003.4 1003.4 1003.4 1003.4
          1003.4 1003.41 1003.41 1003.41 1003.41 1003.41 1003.41 1003.41 1003.41 1003.41 1003.41 1003.41
          1003.41 1003.42 1003.42 1003.42 1003.39 1003.39 1003.39 1003.39 1003.39 1003.39 1003.39 1003.39
          1003.39 1003.39 1003.4 1003.4 1003.4 1003.4 1003.4 1003.4 1003.4 1003.4 1003.4 1003.4
          1003.4 1003.4 1003.41 1003.41 1003.41 1003.38 1003.38 1003.38 1003.38 1003.38 1003.38 1003.38
          1003.38 1003.38 1003.38 1003.38 1003.39 1003.39 1003.39 1003.39 1003.39 1003.39 1003.39 1003.39
          1003.39 1003.39 1003.39 1003.39 1003.4 1003.4 1003.37 1003.37 1003.37 1003.37 1003.37 1003.37
          1003.37 1003.37 1003.37 1003.37 1003.37 1003.38 1003.38 1003.38 1003.38 1003.38 1003.38 1003.38
          1003.38 1003.38 1003.38 1003.38 1003.38 1003.39 1003.39 1003.36 1003.36 1003.36 1003.36 1003.36
          1003.36 1003.36 1003.36 1003.36 1003.36 1003.36 1003.37 1003.37 1003.37 1003.37 1003.37 1003.37
          1003.37 1003.37 1003.37 1003.37 1003.37 1003.37 1003.37 1003.37 1003.35 1003.35 1003.35 1003.35
          1003.35 1003.35 1003.35 1003.35 1003.35 1003.35 1003.35 1003.35 1003.36 1003.36 1003.36 1003.36
          1003.36 1003.36 1003.36 1003.36 1003.36 1003.36 1003.36 1003.36 1003.36 1003.34 1003.34 1003.34
          1003.34 1003.34 1003.34 1003.34 1003.34 1003.34 1003.34 1003.34 1003.34 1003.35 1003.35 1003.35
          1003.35 1003.35 1003.35 1003.35 1003.35 1003.35 1003.35 1003.35 1003.35 1003.35 1003.33 1003.33
          1003.33 1003.33 1003.33 1003.33 1003.33 1003.33 1003.33 1003.33 1003.33 1003.33 1003.34 1003.34
          1003.34 1003.34 1003.34 1003.34 1003.34 1003.34 1003.34 1003.34 1003.34 1003.34 1003.34 1003.32
          1003.32 1003.32 1003.32 1003.32 1003.32 1003.32 1003.32 1003.32 1003.32 1003.32 1003.32 1003.32
          1003.33 1003.33 1003.33 1003.33 1003.33 1003.33 1003.33 1003.33 1003.33 1003.33 1003.33 1003.33
          1003.31 1003.31 1003.31 1003.31 1003.31 1003.31 1003.31 1003.31 1003.31 1003.31 1003.31 1003.31
          1003.31 1003.32 1003.32 1003.32 1003.32 1003.32 1003.32 1003.32 1003.32 1003.32 1003.32 1003.32
          1003.32 1003.3 1003.3 1003.3 1003.3 1003.3 1003.3 1003.3 1003.3 1003.3 1003.3 1003.3
          1003.3 1003.3 1003.3 1003.31 1003.31 1003.31 1003.31 1003.31 1003.31 1003.31 1003.31 1003.31
          1003.31 1003.31 1003.29 1003.29 1003.29 1003.29 1003.29 1003.29 1003.29 1003.29 1003.29 1003.29
          1003.29 1003.29 1003.29 1003.29 1003.3 1003.3 1003.3 1003.3 1003.3 1003.3 1003.3 1003.3
          1003.3 1003.3 1003.3 1003.28 1003.28 1003.28 1003.28 1003.28 1003.28 1003.28 1003.28 1003.28
          1003.28 1003.28 1003.28 1003.28 1003.28 1003.29 1003.29 1003.29 1003.29 1003.29 1003.29 1003.29
          1003.29 1003.29 1003.29 1003.29 1003.27 1003.27 1003.27 1003.27 1003.27 1003.27 1003.27 1003.27
          1003.27 1003.27 1003.27 1003.27 1003.27 1003.27 1003.27 1003.28 1003.28 1003.28 1003.28 1003.28
          1003.28 1003.28 1003.28 1003.28 1003.28
        </DataArray>
        <DataArray type="Float32" Name="rhoG" NumberOfComponents="1" format="ascii">
          283.916 283.941 283.654 283.677 283.964 283.7 283.986 283.721 284.007 283.743 284.028 283.764
          284.049 283.784 284.07 283.805 284.09 283.826 284.111 283.846 284.131 283.866 284.152 283.887
          284.172 283.907 284.193 283.928 284.213 283.948 284.234 283.969 284.254 283.989 284.275 284.01
          284.296 284.031 284.316 284.052 284.336 284.072 284.356 284.092 284.372 284.11 284.384 284.123
          284.388 284.128 283.392 283.414 283.436 283.457 283.478 283.499 283.52 283.54 283.561 283.581
          283.602 283.622 283.642 283.663 283.683 283.704 283.725 283.745 283.766 283.787 283.809 283.83
          283.851 283.872 283.877 283.13 283.152 283.173 283.194 283.214 283.235 283.255 283.276 283.296
          283.317 283.337 283.357 283.378 283.398 283.418 283.439 283.46 283.48 283.501 283.523 283.545
          283.568 283.593 283.624 283.693 282.869 282.889 282.91 282.93 282.95 282.971 282.991 283.011
          283.032 283.052 283.072 283.092 283.113 283.133 283.153 283.174 283.195 283.215 283.236 283.258
          283.28 283.304 283.331 283.368 283.448 282.607 282.627 282.647 282.666 282.687 282.707 282.727
          282.747 282.767 282.787 282.807 282.828 282.848 282.868 282.888 282.909 282.929 282.95 282.971
          282.992 283.014 283.037 283.063 283.096 283.171 282.345 282.364 282.383 282.403 282.423 282.442
          282.462 282.482 282.502 282.523 282.543 282.563 282.583 282.603 282.623 282.644 282.664 282.684
          282.705 282.725 282.746 282.768 282.789 282.812 282.827 282.083 282.101 282.12 282.139 282.159
          282.178 282.198 282.218 282.238 282.258 282.278 282.298 282.318 282.338 282.358 282.378 282.398
          282.419 282.439 282.459 282.478 282.498 282.515 282.529 282.535 281.821 281.838 281.856 281.875
          281.894 281.914 281.933 281.953 281.973 281.993 282.013 282.033 282.053 282.073 282.093 282.113
          282.133 282.153 282.173 282.192 282.211 282.229 282.244 282.255 282.259 281.559 281.576 281.594
          281.612 281.631 281.65 281.669 281.689 281.708 281.728 281.748 281.768 281.787 281.807 281.826
          281.846 281.865 281.884 281.903 281.921 281.939 281.954 281.967 281.976 281.979 281.298 281.315
          281.332 281.35 281.368 281.387 281.406 281.425 281.444 281.463 281.482 281.501 281.521 281.54
          281.558 281.577 281.595 281.613 281.63 281.646 281.661 281.674 281.684 281.691 281.693 281.036
          281.053 281.07 281.088 281.105 281.124 281.142 281.161 281.179 281.198 281.217 281.236 281.254
          281.272 281.291 281.308 281.325 281.342 281.358 281.372 281.385 281.396 281.405 281.41 281.412
          280.774 280.791 280.808 280.825 280.842 280.86 280.878 280.896 280.915 280.933 280.951 280.97
          280.988 281.006 281.023 281.04 281.057 281.072 281.087 281.1 281.112 281.122 281.129 281.133
          281.135 280.512 280.528 280.545 280.562 280.579 280.596 280.614 280.632 280.65 280.668 280.686
          280.704 280.722 280.739 280.756 280.773 280.788 280.803 280.817 280.829 280.84 280.849 280.856
          280.86 280.861 280.25 280.266 280.282 280.298 280.315 280.332 280.35 280.368 280.385 280.403
          280.421 280.439 280.456 280.473 280.49 280.506 280.521 280.536 280.549 280.561 280.571 280.579
          280.585 280.589 280.59 279.989 280.003 280.018 280.034 280.051 280.068 280.085 280.103 280.121
          280.138 280.156 280.174 280.191 280.208 280.224 280.24 280.255 280.269 280.282 280.293 280.303
          280.311 280.317 280.32 280.322 279.727 279.739 279.754 279.77 279.786 279.803 279.821 279.838
          279.856 279.874 279.891 279.909 279.926 279.943 279.959 279.975 279.99 280.004 280.016 280.028
          280.037 280.045 280.051 280.055 280.056
        </DataArray>
        <DataArray type="Float32" Name="mobL" NumberOfComponents="1" format="ascii">
          1523.32 1523.32 1523.33 1523.33 1523.32 1523.33 1523.32 1523.33 1523.32 1523.33 1523.32 1523.33
          1523.32 1523.33 1523.32 1523.33 1523.32 1523.33 1523.32 1523.32 1523.31 1523.32 1523.31 1523.32
          1523.31 1523.32 1523.31 1523.32 1523.31 1523.32 1523.31 1523.32 1523.31 1523.32 1523.31 1523.32
          1523.31 1523.32 1523.31 1523.32 1523.31 1523.32 1523.31 1523.32 1523.31 1523.32 1523.31 1523.32
          1523.31 1523.31 1523.34 1523.34 1523.34 1523.34 1523.34 1523.34 1523.34 1523.34 1523.33 1523.33
          1523.33 1523.33 1523.33 1523.33 1523.33 1523.33 1523.33 1523.33 1523.33 1523.33 1523.33 1523.33
          1523.32 1523.32 1523.32 1523.35 1523.35 1523.35 1523.35 1523.35 1523.35 1523.34 1523.34 1523.34
          1523.34 1523.34 1523.34 1523.34 1523.34 1523.34 1523.34 1523.34 1523.34 1523.34 1523.34 1523.33
          1523.33 1523.33 1516.19 970.495 1523.36 1523.36 1523.36 1523.36 1523.36 1523.35 1523.35 1523.35
          1523.35 1523.35 1523.35 1523.35 1523.35 1523.35 1523.35 1523.35 1523.35 1523.35 1523.35 1523.34
          1523.34 1523.34 1523.34 1512.1 956.765 1523.37 1523.37 1523.37 1523.36 1523.36 1523.36 1523.36
          1523.36 1523.36 1523.36 1523.36 1523.36 1523.36 1523.36 1523.36 1523.36 1523.36 1523.36 1523.35
          1523.35 1523.35 1523.35 1523.35 1514.18 955.389 1523.38 1523.38 1523.37 1523.37 1523.37 1523.37
          1523.37 1523.37 1523.37 1523.37 1523.37 1523.37 1523.37 1523.37 1523.37 1523.37 1523.37 1523.36
          1523.36 1523.36 1523.36 1523.36 1523.36 1523.36 1473.39 1523.39 1523.38 1523.38 1523.38 1523.38
          1523.38 1523.38 1523.38 1523.38 1523.38 1523.38 1523.38 1523.38 1523.38 1523.38 1523.37 1523.37
          1523.37 1523.37 1523.37 1523.37 1523.37 1523.37 1523.37 1523.37 1523.39 1523.39 1523.39 1523.39
          1523.39 1523.39 1523.39 1523.39 1523.39 1523.39 1523.39 1523.39 1523.39 1523.39 1523.38 1523.38
          1523.38 1523.38 1523.38 1523.38 1523.38 1523.38 1523.38 1523.38 1523.38 1523.4 1523.4 1523.4
          1523.4 1523.4 1523.4 1523.4 1523.4 1523.4 1523.4 1523.4 1523.4 1523.4 1523.39 1523.39
          1523.39 1523.39 1523.39 1523.39 1523.39 1523.39 1523.39 1523.39 1523.39 1523.39 1523.41 1523.41
          1523.41 1523.41 1523.41 1523.41 1523.41 1523.41 1523.41 1523.41 1523.41 1523.4 1523.4 1523.4
          1523.4 1523.4 1523.4 1523.4 1523.4 1523.4 1523.4 1523.4 1523.4 1523.4 1523.4 1523.42
          1523.42 1523.42 1523.42 1523.42 1523.42 1523.42 1523.42 1523.42 1523.42 1523.41 1523.41 1523.41
          1523.41 1523.41 1523.41 1523.41 1523.41 1523.41 1523.41 1523.41 1523.41 1523.41 1523.41 1523.41
          1523.43 1523.43 1523.43 1523.43 1523.43 1523.43 1523.43 1523.43 1523.43 1523.42 1523.42 1523.42
          1523.42 1523.42 1523.42 1523.42 1523.42 1523.42 1523.42 1523.42 1523.42 1523.42 1523.42 1523.42
          1523.42 1523.44 1523.44 1523.44 1523.44 1523.44 1523.44 1523.44 1523.43 1523.43 1523.43 1523.43
          1523.43 1523.43 1523.43 1523.43 1523.43 1523.43 1523.43 1523.43 1523.43 1523.43 1523.43 1523.43
          1523.43 1523.43 1523.45 1523.45 1523.45 1523.45 1523.45 1523.44 1523.44 1523.44 1523.44 1523.44
          1523.44 1523.44 1523.44 1523.44 1523.44 1523.44 1523.44 1523.44 1523.44 1523.44 1523.44 1523.44
          1523.44 1523.44 1523.44 1523.46 1523.46 1523.46 1523.46 1523.45 1523.45 1523.45 1523.45 1523.45
          1523.45 1523.45 1523.45 1523.45 1523.45 1523.45 1523.45 1523.45 1523.45 1523.45 1523.45 1523.45
          1523.45 1523.45 1523.45 1523.45 1523.47 1523.47 1523.46 1523.46 1523.46 1523.46 1523.46 1523.46
          1523.46 1523.46 1523.46 1523.46 1523.46 1523.46 1523.46 1523.46 1523.46 1523.46 1523.46 1523.46
          1523.45 1523.45 1523.45 1523.45 1523.45
        </DataArray>
        <DataArray type="Float32" Name="mobG" NumberOfComponents="1" format="ascii">
          0 0 0 0 0 0 0 0 0 0 0 0
          0 0 0 0 0 0 0 0 0 0 0 0
          0 0 0 0 0 0 0 0 0 0 0 0
          0 0 0 0 0 0 0 0 0 0 0 0
          0 0 0 0 0 0 0 0 0 0 0 0
          0 0 0 0 0 0 0 0 0 0 0 0
          0 0 0 0 0 0 0 0 0 0 0 0
          0 0 0 0 0 0 0 0 0 0 0 0
          0 0 0.000176764 125.336 0 0 0 0 0 0 0 0
          0 0 0 0 0 0 0 0 0 0 0 0
          0 0 0 0.000691216 136.654 0 0 0 0 0 0 0
          0 0 0 0 0 0 0 0 0 0 0 0
          0 0 0 0 0.000374422 137.836 0 0 0 0 0 0
          0 0 0 0 0 0 0 0 0 0 0 0
          0 0 0 0 0 0 0.0623046 0 0 0 0 0
          0 0 0 0 0 0 0 0 0 0 0 0
          0 0 0 0 0 0 0 0 0 0 0 0
          0 0 0 0 0 0 0 0 0 0 0 0
          0 0 0 0 0 0 0 0 0 0 0 0
          0 0 0 0 0 0 0 0 0 0 0 0
          0 0 0 0 0 0 0 0 0 0 0 0
          0 0 0 0 0 0 0 0 0 0 0 0
          0 0 0 0 0 0 0 0 0 0 0 0
          0 0 0 0 0 0 0 0 0 0 0 0
          0 0 0 0 0 0 0 0 0 0 0 0
          0 0 0 0 0 0 0 0 0 0 0 0
          0 0 0 0 0 0 0 0 0 0 0 0
          0 0 0 0 0 0 0 0 0 0 0 0
          0 0 0 0 0 0 0 0 0 0 0 0
          0 0 0 0 0 0 0 0 0 0 0 0
          0 0 0 0 0 0 0 0 0 0 0 0
          0 0 0 0 0 0 0 0 0 0 0 0
          0 0 0 0 0 0 0 0 0 0 0 0
          0 0 0 0 0 0 0 0 0 0 0 0
          0 0 0 0 0 0 0 0 0 0 0 0
          0 0 0 0 0
        </DataArray>
        <DataArray type="Float32" Name="X_l^H2O" NumberOfComponents="1" format="ascii">