<?xml version="1.0"?>
<VTKFile type="UnstructuredGrid" version="0.1" byte_order="LittleEndian">
  <UnstructuredGrid>
    <Piece NumberOfCells="384" NumberOfPoints="425">
      <PointData Scalars="Sg">
        <DataArray type="Float32" Name="Sg" NumberOfComponents="1" format="ascii">
          0 0 0 0 0 0 0 0 0 0 0 0
          0 0 0 0 0 0 0 0 0 0 0 0
          0 0 0 0 0 0 0 0 0 0 0 0
          0 0 0 0 0 0 0 0 0 0 0 0
          0 0 0 0 0 0 0 0 0 0 0 0
          0 0 0 0 0 0 0 0 0 0 0 0
          0 0 0 0 0 0 0 0 0 0 0 0
          0 0 0 0 0 0 0 0 0 0 0 0
          0 0 0 0.0820591 0 0 0 0 0 0 0 0
          0 0 0 0 0 0 0 0 0 0 0 0
          0 0 0 0 0.0842578 0 0 0 0 0 0 0
          0 0 0 0 0 0 0 0 0 0 0 0
          0 0 0 0 0 0.0844656 0 0 0 0 0 0
          0 0 0 0 0 0 0 0 0 0 0 0
          0 0 0 0 0 0 0.000475789 0 0 0 0 0
          0 0 0 0 0 0 0 0 0 0 0 0
          0 0 0 0 0 0 0 0 0 0 0 0
          0 0 0 0 0 0 0 0 0 0 0 0
          0 0 0 0 0 0 0 0 0 0 0 0
          0 0 0 0 0 0 0 0 0 0 0 0
          0 0 0 0 0 0 0 0 0 0 0 0
          0 0 0 0 0 0 0 0 0 0 0 0
          0 0 0 0 0 0 0 0 0 0 0 0
          0 0 0 0 0 0 0 0 0 0 0 0
          0 0 0 0 0 0 0 0 0 0 0 0
          0 0 0 0 0 0 0 0 0 0 0 0
          0 0 0 0 0 0 0 0 0 0 0 0
          0 0 0 0 0 0 0 0 0 0 0 0
          0 0 0 0 0 0 0 0 0 0 0 0
          0 0 0 0 0 0 0 0 0 0 0 0
          0 0 0 0 0 0 0 0 0 0 0 0
          0 0 0 0 0 0 0 0 0 0 0 0
          0 0 0 0 0 0 0 0 0 0 0 0
          0 0 0 0 0 0 0 0 0 0 0 0
          0 0 0 0 0 0 0 0 0 0 0 0
          0 0 0 0 0
        </DataArray>
        <DataArray type="Float32" Name="Sl" NumberOfComponents="1" format="ascii">
          1 1 1 1 1 1 1 1 1 1 1 1
          1 1 1 1 1 1 1 1 1 1 1 1
          1 1 1 1 1 1 1 1 1 1 1 1
          1 1 1 1 1 1 1 1 1 1 1 1
          1 1 1 1 1 1 1 1 1 1 1 1
          1 1 1 1 1 1 1 1 1 1 1 1
          1 1 1 1 1 1 1 1 1 1 1 1
          1 1 1 1 1 1 1 1 1 1 1 1
          1 1 1 0.917941 1 1 1 1 1 1 1 1
          1 1 1 1 1 1 1 1 1 1 1 1
          1 1 1 1 0.915742 1 1 1 1 1 1 1
          1 1 1 1 1 1 1 1 1 1 1 1
          1 1 1 1 1 0.915534 1 1 1 1 1 1
          1 1 1 1 1 1 1 1 1 1 1 1
          1 1 1 1 1 1 0.999524 1 1 1 1 1
          1 1 1 1 1 1 1 1 1 1 1 1
          1 1 1 1 1 1 1 1 1 1 1 1
          1 1 1 1 1 1 1 1 1 1 1 1
          1 1 1 1 1 1 1 1 1 1 1 1
          1 1 1 1 1 1 1 1 1 1 1 1
          1 1 1 1 1 1 1 1 1 1 1 1
          1 1 1 1 1 1 1 1 1 1 1 1
          1 1 1 1 1 1 1 1 1 1 1 1
          1 1 1 1 1 1 1 1 1 1 1 1
          1 1 1 1 1 1 1 1 1 1 1 1
          1 1 1 1 1 1 1 1 1 1 1 1
          1 1 1 1 1 1 1 1 1 1 1 1
          1 1 1 1 1 1 1 1 1 1 1 1
          1 1 1 1 1 1 1 1 1 1 1 1
          1 1 1 1 1 1 1 1 1 1 1 1
          1 1 1 1 1 1 1 1 1 1 1 1
          1 1 1 1 1 1 1 1 1 1 1 1
          1 1 1 1 1 1 1 1 1 1 1 1
          1 1 1 1 1 1 1 1 1 1 1 1
          1 1 1 1 1 1 1 1 1 1 1 1
          1 1 1 1 1
        </DataArray>
        <DataArray type="Float32" Name="pg" NumberOfComponents="1" format="ascii">
          2.63908e+07 2.6393e+07 2.63664e+07 2.63684e+07 2.63949e+07 2.63704e+07 2.63968e+07 2.63722e+07 2.63987e+07 2.63741e+07 2.64005e+07 2.63759e+07
          2.64023e+07 2.63777e+07 2.6404e+07 2.63794e+07 2.64058e+07 2.63812e+07 2.64075e+07 2.63829e+07 2.64093e+07 2.63847e+07 2.6411e+07 2.63864e+07
          2.64128e+07 2.63882e+07 2.64145e+07 2.63899e+07 2.64163e+07 2.63917e+07 2.6418e+07 2.63934e+07 2.64198e+07 2.63952e+07 2.64216e+07 2.6397e+07
          2.64233e+07 2.63987e+07 2.64251e+07 2.64005e+07 2.64268e+07 2.64023e+07 2.64285e+07 2.6404e+07 2.64299e+07 2.64055e+07 2.64309e+07 2.64066e+07
          2.64313e+07 2.64071e+07 2.63421e+07 2.6344e+07 2.63459e+07 2.63477e+07 2.63495e+07 2.63513e+07 2.63531e+07 2.63548e+07 2.63566e+07 2.63583e+07
          2.63601e+07 2.63618e+07 2.63636e+07 2.63653e+07 2.6367e+07 2.63688e+07 2.63706e+07 2.63723e+07 2.63741e+07 2.63759e+07 2.63777e+07 2.63796e+07
          2.63814e+07 2.63832e+07 2.63837e+07 2.63178e+07 2.63196e+07 2.63214e+07 2.63232e+07 2.6325e+07 2.63267e+07 2.63285e+07 2.63302e+07 2.6332e+07
          2.63337e+07 2.63355e+07 2.63372e+07 2.63389e+07 2.63407e+07 2.63424e+07 2.63442e+07 2.63459e+07 2.63477e+07 2.63495e+07 2.63513e+07 2.63532e+07
          2.63552e+07 2.63573e+07 2.63598e+07 2.63663e+07 2.62934e+07 2.62952e+07 2.62969e+07 2.62987e+07 2.63004e+07 2.63022e+07 2.63039e+07 2.63057e+07
          2.63074e+07 2.63091e+07 2.63109e+07 2.63126e+07 2.63143e+07 2.63161e+07 2.63178e+07 2.63195e+07 2.63213e+07 2.63231e+07 2.63248e+07 2.63267e+07
          2.63286e+07 2.63306e+07 2.63329e+07 2.63359e+07 2.63433e+07 2.62691e+07 2.62708e+07 2.62725e+07 2.62742e+07 2.62759e+07 2.62776e+07 2.62794e+07
          2.62811e+07 2.62828e+07 2.62845e+07 2.62862e+07 2.6288e+07 2.62897e+07 2.62914e+07 2.62932e+07 2.62949e+07 2.62966e+07 2.62984e+07 2.63002e+07
          2.6302e+07 2.63038e+07 2.63058e+07 2.63079e+07 2.63105e+07 2.63174e+07 2.62448e+07 2.62464e+07 2.6248e+07 2.62497e+07 2.62514e+07 2.62531e+07
          2.62548e+07 2.62565e+07 2.62582e+07 2.62599e+07 2.62616e+07 2.62634e+07 2.62651e+07 2.62668e+07 2.62685e+07 2.62702e+07 2.6272e+07 2.62737e+07
          2.62754e+07 2.62772e+07 2.6279e+07 2.62807e+07 2.62826e+07 2.62845e+07 2.62852e+07 2.62204e+07 2.6222e+07 2.62236e+07 2.62252e+07 2.62268e+07
          2.62285e+07 2.62302e+07 2.62319e+07 2.62336e+07 2.62353e+07 2.6237e+07 2.62387e+07 2.62405e+07 2.62422e+07 2.62439e+07 2.62456e+07 2.62473e+07
          2.6249e+07 2.62507e+07 2.62524e+07 2.62541e+07 2.62557e+07 2.62572e+07 2.62583e+07 2.62587e+07 2.61961e+07 2.61975e+07 2.61991e+07 2.62007e+07
          2.62023e+07 2.6204e+07 2.62056e+07 2.62073e+07 2.6209e+07 2.62107e+07 2.62124e+07 2.62141e+07 2.62158e+07 2.62175e+07 2.62192e+07 2.6221e+07
          2.62227e+07 2.62243e+07 2.6226e+07 2.62277e+07 2.62292e+07 2.62307e+07 2.6232e+07 2.62329e+07 2.62332e+07 2.61718e+07 2.61731e+07 2.61746e+07
          2.61762e+07 2.61778e+07 2.61794e+07 2.61811e+07 2.61828e+07 2.61844e+07 2.61861e+07 2.61878e+07 2.61895e+07 2.61912e+07 2.61928e+07 2.61945e+07
          2.61962e+07 2.61978e+07 2.61994e+07 2.6201e+07 2.62025e+07 2.6204e+07 2.62053e+07 2.62064e+07 2.62071e+07 2.62074e+07 2.61474e+07 2.61489e+07
          2.61503e+07 2.61519e+07 2.61534e+07 2.6155e+07 2.61566e+07 2.61582e+07 2.61599e+07 2.61615e+07 2.61631e+07 2.61648e+07 2.61664e+07 2.6168e+07
          2.61696e+07 2.61712e+07 2.61728e+07 2.61743e+07 2.61757e+07 2.61771e+07 2.61783e+07 2.61794e+07 2.61803e+07 2.61808e+07 2.6181e+07 2.61231e+07
          2.61245e+07 2.6126e+07 2.61275e+07 2.6129e+07 2.61305e+07 2.61321e+07 2.61337e+07 2.61353e+07 2.61369e+07 2.61385e+07 2.61401e+07 2.61417e+07
          2.61432e+07 2.61448e+07 2.61463e+07 2.61478e+07 2.61492e+07 2.61505e+07 2.61517e+07 2.61528e+07 2.61538e+07 2.61545e+07 2.61549e+07 2.61551e+07
          2.60988e+07 2.61002e+07 2.61016e+07 2.61031e+07 2.61045e+07 2.61061e+07 2.61076e+07 2.61091e+07 2.61107e+07 2.61123e+07 2.61138e+07 2.61154e+07
          2.6117e+07 2.61185e+07 2.612e+07 2.61214e+07 2.61228e+07 2.61241e+07 2.61254e+07 2.61265e+07 2.61275e+07 2.61283e+07 2.6129e+07 2.61293e+07
          2.61295e+07 2.60744e+07 2.60758e+07 2.60772e+07 2.60786e+07 2.60801e+07 2.60816e+07 2.60831e+07 2.60846e+07 2.60861e+07 2.60877e+07 2.60892e+07
          2.60907e+07 2.60923e+07 2.60937e+07 2.60952e+07 2.60966e+07 2.60979e+07 2.60992e+07 2.61004e+07 2.61014e+07 2.61023e+07 2.61031e+07 2.61036e+07
          2.6104e+07 2.61041e+07 2.60501e+07 2.60514e+07 2.60527e+07 2.60541e+07 2.60556e+07 2.6057e+07 2.60585e+07 2.606e+07 2.60615e+07 2.60631e+07
          2.60646e+07 2.60661e+07 2.60676e+07 2.6069e+07 2.60705e+07 2.60718e+07 2.60731e+07 2.60744e+07 2.60755e+07 2.60765e+07 2.60773e+07 2.6078e+07
          2.60786e+07 2.60789e+07 2.6079e+07 2.60258e+07 2.6027e+07 2.60283e+07 2.60296e+07 2.6031e+07 2.60325e+07 2.60339e+07 2.60354e+07 2.60369e+07
          2.60384e+07 2.604e+07 2.60415e+07 2.60429e+07 2.60444e+07 2.60458e+07 2.60471e+07 2.60484e+07 2.60496e+07 2.60507e+07 2.60517e+07 2.60525e+07
          2.60532e+07 2.60537e+07 2.6054e+07 2.60541e+07 2.60014e+07 2.60024e+07 2.60037e+07 2.6005e+07 2.60064e+07 2.60079e+07 2.60093e+07 2.60108e+07
          2.60123e+07 2.60138e+07 2.60153e+07 2.60168e+07 2.60183e+07 2.60197e+07 2.60211e+07 2.60225e+07 2.60238e+07 2.60249e+07 2.6026e+07 2.6027e+07
          2.60278e+07 2.60285e+07 2.6029e+07 2.60293e+07 2.60294e+07
        </DataArray>
        <DataArray type="Float32" Name="pl" NumberOfComponents="1" format="ascii">
          2.63808e+07 2.6383e+07 2.63564e+07 2.63584e+07 2.63849e+07 2.63604e+07 2.63868e+07 2.63622e+07 2.63887e+07 2.63641e+07 2.63905e+07 2.63659e+07
          2.63923e+07 2.63677e+07 2.6394e+07 2.63694e+07 2.63958e+07 2.63712e+07 2.63975e+07 2.63729e+07 2.63993e+07 2.63747e+07 2.6401e+07 2.63764e+07
          2.64028e+07 2.63782e+07 2.64045e+07 2.63799e+07 2.64063e+07 2.63817e+07 2.6408e+07 2.63834e+07 2.64098e+07 2.63852e+07 2.64116e+07 2.6387e+07
          2.64133e+07 2.63887e+07 2.64151e+07 2.63905e+07 2.64168e+07 2.63923e+07 2.64185e+07 2.6394e+07 2.64199e+07 2.63955e+07 2.64209e+07 2.63966e+07
          2.64213e+07 2.63971e+07 2.63321e+07 2.6334e+07 2.63359e+07 2.63377e+07 2.63395e+07 2.63413e+07 2.63431e+07 2.63448e+07 2.63466e+07 2.63483e+07
          2.63501e+07 2.63518e+07 2.63536e+07 2.63553e+07 2.6357e+07 2.63588e+07 2.63606e+07 2.63623e+07 2.63641e+07 2.63659e+07 2.63677e+07 2.63696e+07
          2.63714e+07 2.63732e+07 2.63737e+07 2.63078e+07 2.63096e+07 2.63114e+07 2.63132e+07 2.6315e+07 2.63167e+07 2.63185e+07 2.63202e+07 2.6322e+07
          2.63237e+07 2.63255e+07 2.63272e+07 2.63289e+07 2.63307e+07 2.63324e+07 2.63342e+07 2.63359e+07 2.63377e+07 2.63395e+07 2.63413e+07 2.63432e+07
          2.63452e+07 2.63473e+07 2.63498e+07 2.63558e+07 2.62834e+07 2.62852e+07 2.62869e+07 2.62887e+07 2.62904e+07 2.62922e+07 2.62939e+07 2.62957e+07
          2.62974e+07 2.62991e+07 2.63009e+07 2.63026e+07 2.63043e+07 2.63061e+07 2.63078e+07 2.63095e+07 2.63113e+07 2.63131e+07 2.63148e+07 2.63167e+07
          2.63186e+07 2.63206e+07 2.63229e+07 2.63259e+07 2.63328e+07 2.62591e+07 2.62608e+07 2.62625e+07 2.62642e+07 2.62659e+07 2.62676e+07 2.62694e+07
          2.62711e+07 2.62728e+07 2.62745e+07 2.62762e+07 2.6278e+07 2.62797e+07 2.62814e+07 2.62832e+07 2.62849e+07 2.62866e+07 2.62884e+07 2.62902e+07
          2.6292e+07 2.62938e+07 2.62958e+07 2.62979e+07 2.63005e+07 2.63069e+07 2.62348e+07 2.62364e+07 2.6238e+07 2.62397e+07 2.62414e+07 2.62431e+07
          2.62448e+07 2.62465e+07 2.62482e+07 2.62499e+07 2.62516e+07 2.62534e+07 2.62551e+07 2.62568e+07 2.62585e+07 2.62602e+07 2.6262e+07 2.62637e+07
          2.62654e+07 2.62672e+07 2.6269e+07 2.62707e+07 2.62726e+07 2.62745e+07 2.62752e+07 2.62104e+07 2.6212e+07 2.62136e+07 2.62152e+07 2.62168e+07
          2.62185e+07 2.62202e+07 2.62219e+07 2.62236e+07 2.62253e+07 2.6227e+07 2.62287e+07 2.62305e+07 2.62322e+07 2.62339e+07 2.62356e+07 2.62373e+07
          2.6239e+07 2.62407e+07 2.62424e+07 2.62441e+07 2.62457e+07 2.62472e+07 2.62483e+07 2.62487e+07 2.61861e+07 2.61875e+07 2.61891e+07 2.61907e+07
          2.61923e+07 2.6194e+07 2.61956e+07 2.61973e+07 2.6199e+07 2.62007e+07 2.62024e+07 2.62041e+07 2.62058e+07 2.62075e+07 2.62092e+07 2.6211e+07
          2.62127e+07 2.62143e+07 2.6216e+07 2.62177e+07 2.62192e+07 2.62207e+07 2.6222e+07 2.62229e+07 2.62232e+07 2.61618e+07 2.61631e+07 2.61646e+07
          2.61662e+07 2.61678e+07 2.61694e+07 2.61711e+07 2.61728e+07 2.61744e+07 2.61761e+07 2.61778e+07 2.61795e+07 2.61812e+07 2.61828e+07 2.61845e+07
          2.61862e+07 2.61878e+07 2.61894e+07 2.6191e+07 2.61925e+07 2.6194e+07 2.61953e+07 2.61964e+07 2.61971e+07 2.61974e+07 2.61374e+07 2.61389e+07
          2.61403e+07 2.61419e+07 2.61434e+07 2.6145e+07 2.61466e+07 2.61482e+07 2.61499e+07 2.61515e+07 2.61531e+07 2.61548e+07 2.61564e+07 2.6158e+07
          2.61596e+07 2.61612e+07 2.61628e+07 2.61643e+07 2.61657e+07 2.61671e+07 2.61683e+07 2.61694e+07 2.61703e+07 2.61708e+07 2.6171e+07 2.61131e+07
          2.61145e+07 2.6116e+07 2.61175e+07 2.6119e+07 2.61205e+07 2.61221e+07 2.61237e+07 2.61253e+07 2.61269e+07 2.61285e+07 2.61301e+07 2.61317e+07
          2.61332e+07 2.61348e+07 2.61363e+07 2.61378e+07 2.61392e+07 2.61405e+07 2.61417e+07 2.61428e+07 2.61438e+07 2.61445e+07 2.61449e+07 2.61451e+07
          2.60888e+07 2.60902e+07 2.60916e+07 2.60931e+07 2.60945e+07 2.60961e+07 2.60976e+07 2.60991e+07 2.61007e+07 2.61023e+07 2.61038e+07 2.61054e+07
          2.6107e+07 2.61085e+07 2.611e+07 2.61114e+07 2.61128e+07 2.61141e+07 2.61154e+07 2.61165e+07 2.61175e+07 2.61183e+07 2.6119e+07 2.61193e+07
          2.61195e+07 2.60644e+07 2.60658e+07 2.60672e+07 2.60686e+07 2.60701e+07 2.60716e+07 2.60731e+07 2.60746e+07 2.60761e+07 2.60777e+07 2.60792e+07
          2.60807e+07 2.60823e+07 2.60837e+07 2.60852e+07 2.60866e+07 2.60879e+07 2.60892e+07 2.60904e+07 2.60914e+07 2.60923e+07 2.60931e+07 2.60936e+07
          2.6094e+07 2.60941e+07 2.60401e+07 2.60414e+07 2.60427e+07 2.60441e+07 2.60456e+07 2.6047e+07 2.60485e+07 2.605e+07 2.60515e+07 2.60531e+07
          2.60546e+07 2.60561e+07 2.60576e+07 2.6059e+07 2.60605e+07 2.60618e+07 2.60631e+07 2.60644e+07 2.60655e+07 2.60665e+07 2.60673e+07 2.6068e+07
          2.60686e+07 2.60689e+07 2.6069e+07 2.60158e+07 2.6017e+07 2.60183e+07 2.60196e+07 2.6021e+07 2.60225e+07 2.60239e+07 2.60254e+07 2.60269e+07
          2.60284e+07 2.603e+07 2.60315e+07 2.60329e+07 2.60344e+07 2.60358e+07 2.60371e+07 2.60384e+07 2.60396e+07 2.60407e+07 2.60417e+07 2.60425e+07
          2.60432e+07 2.60437e+07 2.6044e+07 2.60441e+07 2.59914e+07 2.59924e+07 2.59937e+07 2.5995e+07 2.59964e+07 2.59979e+07 2.59993e+07 2.60008e+07
          2.60023e+07 2.60038e+07 2.60053e+07 2.60068e+07 2.60083e+07 2.60097e+07 2.60111e+07 2.60125e+07 2.60138e+07 2.60149e+07 2.6016e+07 2.6017e+07
          2.60178e+07 2.60185e+07 2.6019e+07 2.60193e+07 2.60194e+07
        </DataArray>
        <DataArray type="Float32" Name="pc" NumberOfComponents="1" format="ascii">
          10000 10000 10000 10000 10000 10000 10000 10000 10000 10000 10000 10000
          10000 10000 10000 10000 10000 10000 10000 10000 10000 10000 10000 10000
          10000 10000 10000 10000 10000 10000 10000 10000 10000 10000 10000 10000
          10000 10000 10000 10000 10000 10000 10000 10000 10000 10000 10000 10000
          10000 10000 10000 10000 10000 10000 10000 10000 10000 10000 10000 10000
          10000 10000 10000 10000 10000 10000 10000 10000 10000 10000 10000 10000
          10000 10000 10000 10000 10000 10000 10000 10000 10000 10000 10000 10000
          10000 10000 10000 10000 10000 10000 10000 10000 10000 10000 10000 10000
          10000 10000 10000 10556 10000 10000 10000 10000 10000 10000 10000 10000
          10000 10000 10000 10000 10000 10000 10000 10000 10000 10000 10000 10000
          10000 10000 10000 10000 10572.2 10000 10000 10000 10000 10000 10000 10000
          10000 10000 10000 10000 10000 10000 10000 10000 10000 10000 10000 10000
          10000 10000 10000 10000 10000 10573.8 10000 10000 10000 10000 10000 10000
          10000 10000 10000 10000 10000 10000 10000 10000 10000 10000 10000 10000
          10000 10000 10000 10000 10000 10000 10003 10000 10000 10000 10000 10000
          10000 10000 10000 10000 10000 10000 10000 10000 10000 10000 10000 10000
          10000 10000 10000 10000 10000 10000 10000 10000 10000 10000 10000 10000
          10000 10000 10000 10000 10000 10000 10000 10000 10000 10000 10000 10000
          10000 10000 10000 10000 10000 10000 10000 10000 10000 10000 10000 10000
          10000 10000 10000 10000 10000 10000 10000 10000 10000 10000 10000 10000
          10000 10000 10000 10000 10000 10000 10000 10000 10000 10000 10000 10000
          10000 10000 10000 10000 10000 10000 10000 10000 10000 10000 10000 10000
          10000 10000 10000 10000 10000 10000 10000 10000 10000 10000 10000 10000
          10000 10000 10000 10000 10000 10000 10000 10000 10000 10000 10000 10000
          10000 10000 10000 10000 10000 10000 10000 10000 10000 10000 10000 10000
          10000 10000 10000 10000 10000 10000 10000 10000 10000 10000 10000 10000
          10000 10000 10000 10000 10000 10000 10000 10000 10000 10000 10000 10000
          10000 10000 10000 10000 10000 10000 10000 10000 10000 10000 10000 10000
          10000 10000 10000 10000 10000 10000 10000 10000 10000 10000 10000 10000
          10000 10000 10000 10000 10000 10000 10000 10000 10000 10000 10000 10000
          10000 10000 10000 10000 10000 10000 10000 10000 10000 10000 10000 10000
          10000 10000 10000 10000 10000 10000 10000 10000 10000 10000 10000 10000
          10000 10000 10000 10000 10000 10000 10000 10000 10000 10000 10000 10000
          10000 10000 10000 10000 10000 10000 10000 10000 10000 10000 10000 10000
          10000 10000 10000 10000 10000 10000 10000 10000 10000 10000 10000 10000
          10000 10000 10000 10000 10000
        </DataArray>
        <DataArray type="Float32" Name="rhoL" NumberOfComponents="1" format="ascii">
          1003.44 1003.44 1003.43 1003.43 1003.44 1003.43 1003.44 1003.43 1003.44 1003.43 1003.44 1003.43
          1003.44 1003.43 1003.44 1003.43 1003.44 1003.43 1003.44 1003.43 1003.44 1003.43 1003.44 1003.43
          1003.45 1003.43 1003.45 1003.44 1003.45 1003.44 1003.45 1003.44 1003.45 1003.44 1003.45 1003.44
          1003.45 1003.44 1003.45 1003.44 1003.45 1003.44 1003.45 1003.44 1003.45 1003.44 1003.45 1003.44
          1003.45 1003.44 1003.42 1003.42 1003.42 1003.42 1003.42 1003.42 1003.42 1003.42 1003.42 1003.42
          1003.42 1003.42 1003.42 1003.43 1003.43 1003.43 1003.43 1003.43 1003.43 1003.43 1003.43 1003.43
          1003.43 1003.43 1003.43 1003.41 1003.41 1003.41 1003.41 1003.41 1003.41 1003.41 1003.41 1003.41
          1003.41 1003.41 1003.41 1003.41 1003.41 1003.42 1003.42 1003.42 1003.42 1003.42 1003.42 1003.42
          1003.42 1003.42 1003.42 1003.43 1003.4 1003.4 1003.4 1003.4 1003.4 1003.4 1003.4 1003.4
          1003.4 1003.4 1003.4 1003.4 1003.4 1003.4 1003.41 1003.41 1003.41 1003.41 1003.41 1003.41
          1003.41 1003.41 1003.41 1003.41 1003.42 1003.38 1003.39 1003.39 1003.39 1003.39 1003.39 1003.39
          1003.39 1003.39 1003.39 1003.39 1003.39 1003.39 1003.39 1003.39 1003.4 1003.4 1003.4 1003.4
          1003.4 1003.4 1003.4 1003.4 1003.4 1003.4 1003.37 1003.38 1003.38 1003.38 1003.38 1003.38
          1003.38 1003.38 1003.38 1003.38 1003.38 1003.38 1003.38 1003.38 1003.38 1003.39 1003.39 1003.39
          1003.39 1003.39 1003.39 1003.39 1003.39 1003.39 1003.39 1003.36 1003.37 1003.37 1003.37 1003.37
          1003.37 1003.37 1003.37 1003.37 1003.37 1003.37 1003.37 1003.37 1003.37 1003.37 1003.38 1003.38
          1003.38 1003.38 1003.38 1003.38 1003.38 1003.38 1003.38 1003.38 1003.35 1003.35 1003.36 1003.36
          1003.36 1003.36 1003.36 1003.36 1003.36 1003.36 1003.36 1003.36 1003.36 1003.36 1003.36 1003.36
          1003.37 1003.37 1003.37 1003.37 1003.37 1003.37 1003.37 1003.37 1003.37 1003.34 1003.34 1003.35
          1003.35 1003.35 1003.35 1003.35 1003.35 1003.35 1003.35 1003.35 1003.35 1003.35 1003.35 1003.35
          1003.35 1003.35 1003.36 1003.36 1003.36 1003.36 1003.36 1003.36 1003.36 1003.36 1003.33 1003.33
          1003.33 1003.34 1003.34 1003.34 1003.34 1003.34 1003.34 1003.34 1003.34 1003.34 1003.34 1003.34
          1003.34 1003.34 1003.34 1003.34 1003.35 1003.35 1003.35 1003.35 1003.35 1003.35 1003.35 1003.32
          1003.32 1003.32 1003.33 1003.33 1003.33 1003.33 1003.33 1003.33 1003.33 1003.33 1003.33 1003.33
          1003.33 1003.33 1003.33 1003.33 1003.33 1003.33 1003.34 1003.34 1003.34 1003.34 1003.34 1003.34
          1003.31 1003.31 1003.31 1003.32 1003.32 1003.32 1003.32 1003.32 1003.32 1003.32 1003.32 1003.32
          1003.32 1003.32 1003.32 1003.32 1003.32 1003.32 1003.32 1003.32 1003.33 1003.33 1003.33 1003.33
          1003.33 1003.3 1003.3 1003.3 1003.3 1003.31 1003.31 1003.31 1003.31 1003.31 1003.31 1003.31
          1003.31 1003.31 1003.31 1003.31 1003.31 1003.31 1003.31 1003.31 1003.31 1003.31 1003.32 1003.32
          1003.32 1003.32 1003.29 1003.29 1003.29 1003.29 1003.3 1003.3 1003.3 1003.3 1003.3 1003.3
          1003.3 1003.3 1003.3 1003.3 1003.3 1003.3 1003.3 1003.3 1003.3 1003.3 1003.3 1003.3
          1003.3 1003.3 1003.3 1003.28 1003.28 1003.28 1003.28 1003.28 1003.29 1003.29 1003.29 1003.29
          1003.29 1003.29 1003.29 1003.29 1003.29 1003.29 1003.29 1003.29 1003.29 1003.29 1003.29 1003.29
          1003.29 1003.29 1003.29 1003.29 1003.27 1003.27 1003.27 1003.27 1003.27 1003.27 1003.28 1003.28
          1003.28 1003.28 1003.28 1003.28 1003.28 1003.28 1003.28 1003.28 1003.28 1003.28 1003.28 1003.28
          1003.28 1003.28 1003.28 1003.28 1003.28
        </DataArray>
        <DataArray type="Float32" Name="rhoG" NumberOfComponents="1" format="ascii">
          173.608 173.608 173.448 173.448 173.608 173.448 173.608 173.448 173.608 173.448 173.608 173.448
          173.608 173.448 173.608 173.448 173.608 173.448 173.608 173.448 173.608 173.448 173.608 173.448
          173.608 173.448 173.608 173.448 173.608 173.448 173.608 173.448 173.608 173.448 173.608 173.448
          173.608 173.448 173.608 173.448 173.608 173.448 173.608 173.448 173.608 173.447 173.607 173.447
          173.607 173.467 173.288 173.288 173.288 173.288 173.288 173.288 173.288 173.288 173.288 173.288
          173.288 173.288 173.288 173.288 173.288 173.288 173.288 173.288 173.288 173.288 173.288 173.287
          173.288 173.474 176.538 173.128 173.127 173.127 173.127 173.127 173.127 173.127 173.128 173.128
          173.128 173.127 173.128 173.128 173.128 173.128 173.128 173.128 173.128 173.128 173.128 173.128
          173.129 173.365 202.677 283.651 172.967 172.967 172.967 172.967 172.967 172.967 172.967 172.967
          172.967 172.967 172.967 172.967 172.967 172.967 172.967 172.967 172.967 172.967 172.967 172.967
          172.967 172.97 173.314 210.999 283.404 172.807 172.807 172.807 172.807 172.807 172.807 172.807
          172.807 172.807 172.807 172.807 172.807 172.807 172.807 172.807 172.807 172.807 172.807 172.807
          172.807 172.807 172.809 173.068 205.541 283.125 172.647 172.647 172.647 172.647 172.647 172.647
          172.647 172.647 172.647 172.647 172.647 172.647 172.647 172.647 172.647 172.647 172.647 172.647
          172.647 172.647 172.647 172.647 172.652 173.312 282.778 172.487 172.486 172.486 172.487 172.487
          172.487 172.487 172.487 172.487 172.487 172.487 172.487 172.487 172.487 172.487 172.487 172.487
          172.487 172.487 172.487 172.487 172.487 172.488 172.492 173.099 172.326 172.326 172.326 172.326
          172.326 172.326 172.326 172.326 172.326 172.326 172.326 172.326 172.326 172.326 172.326 172.326
          172.326 172.326 172.327 172.327 172.327 172.327 172.327 172.327 172.329 172.166 172.166 172.166
          172.166 172.166 172.166 172.166 172.166 172.166 172.166 172.166 172.166 172.166 172.166 172.166
          172.166 172.166 172.166 172.166 172.166 172.166 172.166 172.166 172.166 172.166 172.006 172.006
          172.006 172.006 172.006 172.006 172.006 172.006 172.006 172.006 172.006 172.006 172.006 172.006
          172.006 172.006 172.006 172.006 172.006 172.006 172.006 172.006 172.006 172.006 172.006 171.846
          171.846 171.846 171.846 171.846 171.846 171.846 171.846 171.846 171.846 171.846 171.846 171.846
          171.846 171.846 171.846 171.846 171.846 171.846 171.846 171.846 171.846 171.846 171.846 171.846
          171.685 171.685 171.685 171.685 171.685 171.685 171.685 171.685 171.685 171.685 171.685 171.685
          171.685 171.686 171.686 171.686 171.686 171.686 171.686 171.686 171.686 171.686 171.686 171.686
          171.686 171.525 171.525 171.525 171.525 171.525 171.525 171.525 171.525 171.525 171.525 171.525
          171.525 171.525 171.525 171.525 171.525 171.525 171.525 171.525 171.525 171.525 171.525 171.525
          171.525 171.525 171.365 171.365 171.365 171.365 171.365 171.365 171.365 171.365 171.365 171.365
          171.365 171.365 171.365 171.365 171.365 171.365 171.365 171.365 171.365 171.365 171.365 171.365
          171.365 171.365 171.365 171.205 171.205 171.205 171.205 171.205 171.205 171.205 171.205 171.205
          171.205 171.205 171.205 171.205 171.205 171.205 171.205 171.205 171.205 171.205 171.205 171.205
          171.205 171.205 171.205 171.205 171.045 171.045 171.045 171.045 171.045 171.045 171.045 171.045
          171.045 171.045 171.045 171.045 171.045 171.045 171.045 171.045 171.045 171.045 171.045 171.045
          171.045 171.045 171.045 171.045 171.045
        </DataArray>
        <DataArray type="Float32" Name="mobL" NumberOfComponents="1" format="ascii">
          1522.28 1522.28 1522.29 1522.29 1522.28 1522.29 1522.28 1522.29 1522.28 1522.29 1522.28 1522.29
          1522.28 1522.29 1522.28 1522.28 1522.28 1522.28 1522.27 1522.28 1522.27 1522.28 1522.27 1522.28
          1522.27 1522.28 1522.27 1522.28 1522.27 1522.28 1522.27 1522.28 1522.27 1522.28 1522.27 1522.28
          1522.27 1522.28 1522.27 1522.28 1522.27 1522.28 1522.27 1522.28 1522.27 1522.28 1522.27 1522.28
          1522.27 1522.28 1522.3 1522.3 1522.3 1522.3 1522.3 1522.29 1522.29 1522.29 1522.29 1522.29
          1522.29 1522.29 1522.29 1522.29 1522.29 1522.29 1522.29 1522.29 1522.29 1522.29 1522.29 1522.28
          1522.28 1522.28 1522.28 1522.31 1522.31 1522.3 1522.3 1522.3 1522.3 1522.3 1522.3 1522.3
          1522.3 1522.3 1522.3 1522.3 1522.3 1522.3 1522.3 1522.3 1522.3 1522.3 1522.29 1522.29
          1522.29 1522.29 1522.29 987.398 1522.31 1522.31 1522.31 1522.31 1522.31 1522.31 1522.31 1522.31
          1522.31 1522.31 1522.31 1522.31 1522.31 1522.31 1522.31 1522.31 1522.3 1522.3 1522.3 1522.3
          1522.3 1522.3 1522.3 1522.3 975.362 1522.32 1522.32 1522.32 1522.32 1522.32 1522.32 1522.32
          1522.32 1522.32 1522.32 1522.32 1522.32 1522.32 1522.32 1522.31 1522.31 1522.31 1522.31 1522.31
          1522.31 1522.31 1522.31 1522.31 1522.31 974.236 1522.33 1522.33 1522.33 1522.33 1522.33 1522.33
          1522.33 1522.33 1522.33 1522.33 1522.33 1522.32 1522.32 1522.32 1522.32 1522.32 1522.32 1522.32
          1522.32 1522.32 1522.32 1522.32 1522.32 1522.32 1522.23 1522.34 1522.34 1522.34 1522.34 1522.34
          1522.34 1522.34 1522.34 1522.34 1522.33 1522.33 1522.33 1522.33 1522.33 1522.33 1522.33 1522.33
          1522.33 1522.33 1522.33 1522.33 1522.33 1522.33 1522.33 1522.33 1522.35 1522.35 1522.35 1522.35
          1522.35 1522.35 1522.34 1522.34 1522.34 1522.34 1522.34 1522.34 1522.34 1522.34 1522.34 1522.34
          1522.34 1522.34 1522.34 1522.34 1522.34 1522.34 1522.34 1522.34 1522.34 1522.36 1522.36 1522.36
          1522.36 1522.35 1522.35 1522.35 1522.35 1522.35 1522.35 1522.35 1522.35 1522.35 1522.35 1522.35
          1522.35 1522.35 1522.35 1522.35 1522.35 1522.35 1522.35 1522.34 1522.34 1522.34 1522.37 1522.36
          1522.36 1522.36 1522.36 1522.36 1522.36 1522.36 1522.36 1522.36 1522.36 1522.36 1522.36 1522.36
          1522.36 1522.36 1522.36 1522.36 1522.36 1522.35 1522.35 1522.35 1522.35 1522.35 1522.35 1522.37
          1522.37 1522.37 1522.37 1522.37 1522.37 1522.37 1522.37 1522.37 1522.37 1522.37 1522.37 1522.37
          1522.37 1522.37 1522.37 1522.36 1522.36 1522.36 1522.36 1522.36 1522.36 1522.36 1522.36 1522.36
          1522.38 1522.38 1522.38 1522.38 1522.38 1522.38 1522.38 1522.38 1522.38 1522.38 1522.38 1522.38
          1522.38 1522.38 1522.37 1522.37 1522.37 1522.37 1522.37 1522.37 1522.37 1522.37 1522.37 1522.37
          1522.37 1522.39 1522.39 1522.39 1522.39 1522.39 1522.39 1522.39 1522.39 1522.39 1522.39 1522.39
          1522.38 1522.38 1522.38 1522.38 1522.38 1522.38 1522.38 1522.38 1522.38 1522.38 1522.38 1522.38
          1522.38 1522.38 1522.4 1522.4 1522.4 1522.4 1522.4 1522.4 1522.4 1522.4 1522.4 1522.39
          1522.39 1522.39 1522.39 1522.39 1522.39 1522.39 1522.39 1522.39 1522.39 1522.39 1522.39 1522.39
          1522.39 1522.39 1522.39 1522.41 1522.41 1522.41 1522.41 1522.41 1522.41 1522.4 1522.4 1522.4
          1522.4 1522.4 1522.4 1522.4 1522.4 1522.4 1522.4 1522.4 1522.4 1522.4 1522.4 1522.4
          1522.4 1522.4 1522.4 1522.4 1522.42 1522.42 1522.42 1522.41 1522.41 1522.41 1522.41 1522.41
          1522.41 1522.41 1522.41 1522.41 1522.41 1522.41 1522.41 1522.41 1522.41 1522.41 1522.41 1522.41
          1522.41 1522.41 1522.41 1522.41 1522.41
        </DataArray>
        <DataArray type="Float32" Name="mobG" NumberOfComponents="1" format="ascii">
          0 0 0 0 0 0 0 0 0 0 0 0
          0 0 0 0 0 0 0 0 0 0 0 0
          0 0 0 0 0 0 0 0 0 0 0 0
          0 0 0 0 0 0 0 0 0 0 0 0
          0 0 0 0 0 0 0 0 0 0 0 0
          0 0 0 0 0 0 0 0 0 0 0 0
          0 0 0 0 0 0 0 0 0 0 0 0
          0 0 0 0 0 0 0 0 0 0 0 0
          0 0 0 111.927 0 0 0 0 0 0 0 0
          0 0 0 0 0 0 0 0 0 0 0 0
          0 0 0 0 120.992 0 0 0 0 0 0 0
          0 0 0 0 0 0 0 0 0 0 0 0
          0 0 0 0 0 121.872 0 0 0 0 0 0
          0 0 0 0 0 0 0 0 0 0 0 0
          0 0 0 0 0 0 2.29897e-05 0 0 0 0 0
          0 0 0 0 0 0 0 0 0 0 0 0
          0 0 0 0 0 0 0 0 0 0 0 0
          0 0 0 0 0 0 0 0 0 0 0 0
          0 0 0 0 0 0 0 0 0 0 0 0
          0 0 0 0 0 0 0 0 0 0 0 0
          0 0 0 0 0 0 0 0 0 0 0 0
          0 0 0 0 0 0 0 0 0 0 0 0
          0 0 0 0 0 0 0 0 0 0 0 0
          0 0 0 0 0 0 0 0 0 0 0 0
          0 0 0 0 0 0 0 0 0 0 0 0
          0 0 0 0 0 0 0 0 0 0 0 0
          0 0 0 0 0 0 0 0 0 0 0 0
          0 0 0 0 0 0 0 0 0 0 0 0
          0 0 0 0 0 0 0 0 0 0 0 0
          0 0 0 0 0 0 0 0 0 0 0 0
          0 0 0 0 0 0 0 0 0 0 0 0
          0 0 0 0 0 0 0 0 0 0 0 0
          0 0 0 0 0 0 0 0 0 0 0 0
          0 0 0 0 0 0 0 0 0 0 0 0
          0 0 0 0 0 0 0 0 0 0 0 0
          0 0 0 0 0
        </DataArray>
        <DataArray type="Float32" Name="X_lH2O" NumberOfComponents="1" format="ascii">
          0.997552 0.997552 0.997554 0.997554 0.997552 0.997554 0.997552 0.997554 0.997552 0.997554 0.997552 0.997554