<?xml version="1.0"?>
<VTKFile type="UnstructuredGrid" version="0.1" byte_order="LittleEndian">
  <UnstructuredGrid>
    <Piece NumberOfCells="384" NumberOfPoints="425">
      <PointData Scalars="Sg">
        <DataArray type="Float32" Name="Sg" NumberOfComponents="1" format="ascii">
          0 0 0 0 0 0 0 0 0 0 0 0
          0 0 0 0 0 0 0 0 0 0 0 0
          0 0 0 0 0 0 0 0 0 0 0 0
          0 0 0 0 0 0 0 0 0 0 0 0
          0 0 0 0 0 0 0 0 0 0 0 0
          0 0 0 0 0 0 0 0 0 0 0 0
          0 0 0 0 0 0 0 0 0 0 0 0
          0 0 0 0 0 0 0 0 0 0 0 0
          0 0 0 0.0820477 0 0 0 0 0 0 0 0
          0 0 0 0 0 0 0 0 0 0 0 0
          0 0 0 0 0.0842538 0 0 0 0 0 0 0
          0 0 0 0 0 0 0 0 0 0 0 0
          0 0 0 0 0 0.0844629 0 0 0 0 0 0
          0 0 0 0 0 0 0 0 0 0 0 0
          0 0 0 0 0 0 0.000479525 0 0 0 0 0
          0 0 0 0 0 0 0 0 0 0 0 0
          0 0 0 0 0 0 0 0 0 0 0 0
          0 0 0 0 0 0 0 0 0 0 0 0
          0 0 0 0 0 0 0 0 0 0 0 0
          0 0 0 0 0 0 0 0 0 0 0 0
          0 0 0 0 0 0 0 0 0 0 0 0
          0 0 0 0 0 0 0 0 0 0 0 0
          0 0 0 0 0 0 0 0 0 0 0 0
          0 0 0 0 0 0 0 0 0 0 0 0
          0 0 0 0 0 0 0 0 0 0 0 0
          0 0 0 0 0 0 0 0 0 0 0 0
          0 0 0 0 0 0 0 0 0 0 0 0
          0 0 0 0 0 0 0 0 0 0 0 0
          0 0 0 0 0 0 0 0 0 0 0 0
          0 0 0 0 0 0 0 0 0 0 0 0
          0 0 0 0 0 0 0 0 0 0 0 0
          0 0 0 0 0 0 0 0 0 0 0 0
          0 0 0 0 0 0 0 0 0 0 0 0
          0 0 0 0 0 0 0 0 0 0 0 0
          0 0 0 0 0 0 0 0 0 0 0 0
          0 0 0 0 0
        </DataArray>
        <DataArray type="Float32" Name="Sl" NumberOfComponents="1" format="ascii">
          1 1 1 1 1 1 1 1 1 1 1 1
          1 1 1 1 1 1 1 1 1 1 1 1
          1 1 1 1 1 1 1 1 1 1 1 1
          1 1 1 1 1 1 1 1 1 1 1 1
          1 1 1 1 1 1 1 1 1 1 1 1
          1 1 1 1 1 1 1 1 1 1 1 1
          1 1 1 1 1 1 1 1 1 1 1 1
          1 1 1 1 1 1 1 1 1 1 1 1
          1 1 1 0.917952 1 1 1 1 1 1 1 1
          1 1 1 1 1 1 1 1 1 1 1 1
          1 1 1 1 0.915746 1 1 1 1 1 1 1
          1 1 1 1 1 1 1 1 1 1 1 1
          1 1 1 1 1 0.915537 1 1 1 1 1 1
          1 1 1 1 1 1 1 1 1 1 1 1
          1 1 1 1 1 1 0.99952 1 1 1 1 1
          1 1 1 1 1 1 1 1 1 1 1 1
          1 1 1 1 1 1 1 1 1 1 1 1
          1 1 1 1 1 1 1 1 1 1 1 1
          1 1 1 1 1 1 1 1 1 1 1 1
          1 1 1 1 1 1 1 1 1 1 1 1
          1 1 1 1 1 1 1 1 1 1 1 1
          1 1 1 1 1 1 1 1 1 1 1 1
          1 1 1 1 1 1 1 1 1 1 1 1
          1 1 1 1 1 1 1 1 1 1 1 1
          1 1 1 1 1 1 1 1 1 1 1 1
          1 1 1 1 1 1 1 1 1 1 1 1
          1 1 1 1 1 1 1 1 1 1 1 1
          1 1 1 1 1 1 1 1 1 1 1 1
          1 1 1 1 1 1 1 1 1 1 1 1
          1 1 1 1 1 1 1 1 1 1 1 1
          1 1 1 1 1 1 1 1 1 1 1 1
          1 1 1 1 1 1 1 1 1 1 1 1
          1 1 1 1 1 1 1 1 1 1 1 1
          1 1 1 1 1 1 1 1 1 1 1 1
          1 1 1 1 1 1 1 1 1 1 1 1
          1 1 1 1 1
        </DataArray>
        <DataArray type="Float32" Name="pg" NumberOfComponents="1" format="ascii">
          2.63908e+07 2.6393e+07 2.63664e+07 2.63684e+07 2.6395e+07 2.63704e+07 2.63968e+07 2.63722e+07 2.63987e+07 2.6374e+07 2.64004e+07 2.63758e+07
          2.64022e+07 2.63776e+07 2.6404e+07 2.63793e+07 2.64057e+07 2.63811e+07 2.64074e+07 2.63828e+07 2.64092e+07 2.63845e+07 2.64109e+07 2.63862e+07
          2.64126e+07 2.6388e+07 2.64143e+07 2.63897e+07 2.64161e+07 2.63914e+07 2.64178e+07 2.63932e+07 2.64195e+07 2.63949e+07 2.64213e+07 2.63966e+07
          2.6423e+07 2.63984e+07 2.64248e+07 2.64001e+07 2.64265e+07 2.64019e+07 2.64281e+07 2.64036e+07 2.64295e+07 2.64051e+07 2.64305e+07 2.64062e+07
          2.64309e+07 2.64066e+07 2.63421e+07 2.6344e+07 2.63458e+07 2.63477e+07 2.63495e+07 2.63512e+07 2.6353e+07 2.63547e+07 2.63564e+07 2.63582e+07
          2.63599e+07 2.63616e+07 2.63633e+07 2.63651e+07 2.63668e+07 2.63685e+07 2.63703e+07 2.6372e+07 2.63738e+07 2.63755e+07 2.63773e+07 2.63791e+07
          2.6381e+07 2.63828e+07 2.63832e+07 2.63178e+07 2.63196e+07 2.63214e+07 2.63231e+07 2.63249e+07 2.63267e+07 2.63284e+07 2.63301e+07 2.63318e+07
          2.63336e+07 2.63353e+07 2.6337e+07 2.63387e+07 2.63404e+07 2.63421e+07 2.63439e+07 2.63456e+07 2.63473e+07 2.63491e+07 2.63509e+07 2.63528e+07
          2.63547e+07 2.63568e+07 2.63593e+07 2.63658e+07 2.62934e+07 2.62952e+07 2.62969e+07 2.62986e+07 2.63004e+07 2.63021e+07 2.63038e+07 2.63055e+07
          2.63072e+07 2.63089e+07 2.63106e+07 2.63124e+07 2.63141e+07 2.63158e+07 2.63175e+07 2.63192e+07 2.63209e+07 2.63227e+07 2.63244e+07 2.63262e+07
          2.63281e+07 2.63301e+07 2.63324e+07 2.63354e+07 2.63428e+07 2.62691e+07 2.62708e+07 2.62724e+07 2.62741e+07 2.62758e+07 2.62775e+07 2.62792e+07
          2.62809e+07 2.62826e+07 2.62843e+07 2.6286e+07 2.62877e+07 2.62894e+07 2.62911e+07 2.62928e+07 2.62945e+07 2.62963e+07 2.6298e+07 2.62997e+07
          2.63015e+07 2.63033e+07 2.63053e+07 2.63074e+07 2.63099e+07 2.63169e+07 2.62448e+07 2.62464e+07 2.6248e+07 2.62496e+07 2.62513e+07 2.6253e+07
          2.62546e+07 2.62563e+07 2.6258e+07 2.62597e+07 2.62614e+07 2.62631e+07 2.62648e+07 2.62665e+07 2.62682e+07 2.62699e+07 2.62716e+07 2.62733e+07
          2.6275e+07 2.62767e+07 2.62785e+07 2.62802e+07 2.6282e+07 2.62839e+07 2.62845e+07 2.62204e+07 2.62219e+07 2.62235e+07 2.62251e+07 2.62267e+07
          2.62284e+07 2.623e+07 2.62317e+07 2.62334e+07 2.62351e+07 2.62368e+07 2.62384e+07 2.62401e+07 2.62418e+07 2.62435e+07 2.62452e+07 2.62469e+07
          2.62486e+07 2.62503e+07 2.62519e+07 2.62536e+07 2.62551e+07 2.62566e+07 2.62577e+07 2.62581e+07 2.61961e+07 2.61975e+07 2.6199e+07 2.62005e+07
          2.62021e+07 2.62038e+07 2.62054e+07 2.62071e+07 2.62088e+07 2.62104e+07 2.62121e+07 2.62138e+07 2.62155e+07 2.62172e+07 2.62189e+07 2.62205e+07
          2.62222e+07 2.62239e+07 2.62255e+07 2.62272e+07 2.62287e+07 2.62302e+07 2.62314e+07 2.62323e+07 2.62326e+07 2.61718e+07 2.61731e+07 2.61746e+07
          2.61761e+07 2.61777e+07 2.61793e+07 2.61809e+07 2.61825e+07 2.61842e+07 2.61858e+07 2.61875e+07 2.61891e+07 2.61908e+07 2.61924e+07 2.61941e+07
          2.61957e+07 2.61973e+07 2.61989e+07 2.62005e+07 2.6202e+07 2.62034e+07 2.62047e+07 2.62058e+07 2.62065e+07 2.62068e+07 2.61474e+07 2.61488e+07
          2.61503e+07 2.61517e+07 2.61533e+07 2.61548e+07 2.61564e+07 2.6158e+07 2.61596e+07 2.61612e+07 2.61628e+07 2.61644e+07 2.6166e+07 2.61676e+07
          2.61692e+07 2.61708e+07 2.61723e+07 2.61738e+07 2.61752e+07 2.61766e+07 2.61778e+07 2.61789e+07 2.61797e+07 2.61802e+07 2.61804e+07 2.61231e+07
          2.61245e+07 2.61259e+07 2.61274e+07 2.61288e+07 2.61304e+07 2.61319e+07 2.61334e+07 2.6135e+07 2.61366e+07 2.61382e+07 2.61397e+07 2.61413e+07
          2.61428e+07 2.61444e+07 2.61458e+07 2.61473e+07 2.61487e+07 2.615e+07 2.61512e+07 2.61523e+07 2.61532e+07 2.61539e+07 2.61544e+07 2.61545e+07
          2.60988e+07 2.61001e+07 2.61015e+07 2.61029e+07 2.61044e+07 2.61059e+07 2.61074e+07 2.61089e+07 2.61104e+07 2.6112e+07 2.61135e+07 2.6115e+07
          2.61166e+07 2.61181e+07 2.61195e+07 2.61209e+07 2.61223e+07 2.61236e+07 2.61249e+07 2.6126e+07 2.61269e+07 2.61278e+07 2.61284e+07 2.61287e+07
          2.61289e+07 2.60744e+07 2.60758e+07 2.60771e+07 2.60785e+07 2.60799e+07 2.60813e+07 2.60828e+07 2.60843e+07 2.60858e+07 2.60873e+07 2.60888e+07
          2.60903e+07 2.60918e+07 2.60933e+07 2.60947e+07 2.60961e+07 2.60974e+07 2.60987e+07 2.60998e+07 2.61009e+07 2.61018e+07 2.61025e+07 2.61031e+07
          2.61034e+07 2.61035e+07 2.60501e+07 2.60514e+07 2.60526e+07 2.6054e+07 2.60554e+07 2.60568e+07 2.60582e+07 2.60597e+07 2.60612e+07 2.60627e+07
          2.60642e+07 2.60657e+07 2.60671e+07 2.60686e+07 2.607e+07 2.60713e+07 2.60726e+07 2.60738e+07 2.60749e+07 2.60759e+07 2.60768e+07 2.60774e+07
          2.6078e+07 2.60783e+07 2.60784e+07 2.60258e+07 2.60269e+07 2.60281e+07 2.60294e+07 2.60308e+07 2.60322e+07 2.60337e+07 2.60351e+07 2.60366e+07
          2.60381e+07 2.60396e+07 2.6041e+07 2.60425e+07 2.60439e+07 2.60453e+07 2.60466e+07 2.60479e+07 2.6049e+07 2.60501e+07 2.60511e+07 2.60519e+07
          2.60526e+07 2.6053e+07 2.60534e+07 2.60534e+07 2.60014e+07 2.60024e+07 2.60036e+07 2.60048e+07 2.60062e+07 2.60076e+07 2.6009e+07 2.60105e+07
          2.6012e+07 2.60134e+07 2.60149e+07 2.60164e+07 2.60178e+07 2.60192e+07 2.60206e+07 2.60219e+07 2.60232e+07 2.60244e+07 2.60254e+07 2.60264e+07
          2.60272e+07 2.60278e+07 2.60283e+07 2.60286e+07 2.60287e+07
        </DataArray>
        <DataArray type="Float32" Name="pl" NumberOfComponents="1" format="ascii">
          2.63808e+07 2.6383e+07 2.63564e+07 2.63584e+07 2.6385e+07 2.63604e+07 2.63868e+07 2.63622e+07 2.63887e+07 2.6364e+07 2.63904e+07 2.63658e+07
          2.63922e+07 2.63676e+07 2.6394e+07 2.63693e+07 2.63957e+07 2.63711e+07 2.63974e+07 2.63728e+07 2.63992e+07 2.63745e+07 2.64009e+07 2.63762e+07
          2.64026e+07 2.6378e+07 2.64043e+07 2.63797e+07 2.64061e+07 2.63814e+07 2.64078e+07 2.63832e+07 2.64095e+07 2.63849e+07 2.64113e+07 2.63866e+07
          2.6413e+07 2.63884e+07 2.64148e+07 2.63901e+07 2.64165e+07 2.63919e+07 2.64181e+07 2.63936e+07 2.64195e+07 2.63951e+07 2.64205e+07 2.63962e+07
          2.64209e+07 2.63966e+07 2.63321e+07 2.6334e+07 2.63358e+07 2.63377e+07 2.63395e+07 2.63412e+07 2.6343e+07 2.63447e+07 2.63464e+07 2.63482e+07
          2.63499e+07 2.63516e+07 2.63533e+07 2.63551e+07 2.63568e+07 2.63585e+07 2.63603e+07 2.6362e+07 2.63638e+07 2.63655e+07 2.63673e+07 2.63691e+07
          2.6371e+07 2.63728e+07 2.63732e+07 2.63078e+07 2.63096e+07 2.63114e+07 2.63131e+07 2.63149e+07 2.63167e+07 2.63184e+07 2.63201e+07 2.63218e+07
          2.63236e+07 2.63253e+07 2.6327e+07 2.63287e+07 2.63304e+07 2.63321e+07 2.63339e+07 2.63356e+07 2.63373e+07 2.63391e+07 2.63409e+07 2.63428e+07
          2.63447e+07 2.63468e+07 2.63493e+07 2.63553e+07 2.62834e+07 2.62852e+07 2.62869e+07 2.62886e+07 2.62904e+07 2.62921e+07 2.62938e+07 2.62955e+07
          2.62972e+07 2.62989e+07 2.63006e+07 2.63024e+07 2.63041e+07 2.63058e+07 2.63075e+07 2.63092e+07 2.63109e+07 2.63127e+07 2.63144e+07 2.63162e+07
          2.63181e+07 2.63201e+07 2.63224e+07 2.63254e+07 2.63322e+07 2.62591e+07 2.62608e+07 2.62624e+07 2.62641e+07 2.62658e+07 2.62675e+07 2.62692e+07
          2.62709e+07 2.62726e+07 2.62743e+07 2.6276e+07 2.62777e+07 2.62794e+07 2.62811e+07 2.62828e+07 2.62845e+07 2.62863e+07 2.6288e+07 2.62897e+07
          2.62915e+07 2.62933e+07 2.62953e+07 2.62974e+07 2.62999e+07 2.63063e+07 2.62348e+07 2.62364e+07 2.6238e+07 2.62396e+07 2.62413e+07 2.6243e+07
          2.62446e+07 2.62463e+07 2.6248e+07 2.62497e+07 2.62514e+07 2.62531e+07 2.62548e+07 2.62565e+07 2.62582e+07 2.62599e+07 2.62616e+07 2.62633e+07
          2.6265e+07 2.62667e+07 2.62685e+07 2.62702e+07 2.6272e+07 2.62739e+07 2.62745e+07 2.62104e+07 2.62119e+07 2.62135e+07 2.62151e+07 2.62167e+07
          2.62184e+07 2.622e+07 2.62217e+07 2.62234e+07 2.62251e+07 2.62268e+07 2.62284e+07 2.62301e+07 2.62318e+07 2.62335e+07 2.62352e+07 2.62369e+07
          2.62386e+07 2.62403e+07 2.62419e+07 2.62436e+07 2.62451e+07 2.62466e+07 2.62477e+07 2.62481e+07 2.61861e+07 2.61875e+07 2.6189e+07 2.61905e+07
          2.61921e+07 2.61938e+07 2.61954e+07 2.61971e+07 2.61988e+07 2.62004e+07 2.62021e+07 2.62038e+07 2.62055e+07 2.62072e+07 2.62089e+07 2.62105e+07
          2.62122e+07 2.62139e+07 2.62155e+07 2.62172e+07 2.62187e+07 2.62202e+07 2.62214e+07 2.62223e+07 2.62226e+07 2.61618e+07 2.61631e+07 2.61646e+07
          2.61661e+07 2.61677e+07 2.61693e+07 2.61709e+07 2.61725e+07 2.61742e+07 2.61758e+07 2.61775e+07 2.61791e+07 2.61808e+07 2.61824e+07 2.61841e+07
          2.61857e+07 2.61873e+07 2.61889e+07 2.61905e+07 2.6192e+07 2.61934e+07 2.61947e+07 2.61958e+07 2.61965e+07 2.61968e+07 2.61374e+07 2.61388e+07
          2.61403e+07 2.61417e+07 2.61433e+07 2.61448e+07 2.61464e+07 2.6148e+07 2.61496e+07 2.61512e+07 2.61528e+07 2.61544e+07 2.6156e+07 2.61576e+07
          2.61592e+07 2.61608e+07 2.61623e+07 2.61638e+07 2.61652e+07 2.61666e+07 2.61678e+07 2.61689e+07 2.61697e+07 2.61702e+07 2.61704e+07 2.61131e+07
          2.61145e+07 2.61159e+07 2.61174e+07 2.61188e+07 2.61204e+07 2.61219e+07 2.61234e+07 2.6125e+07 2.61266e+07 2.61282e+07 2.61297e+07 2.61313e+07
          2.61328e+07 2.61344e+07 2.61358e+07 2.61373e+07 2.61387e+07 2.614e+07 2.61412e+07 2.61423e+07 2.61432e+07 2.61439e+07 2.61444e+07 2.61445e+07
          2.60888e+07 2.60901e+07 2.60915e+07 2.60929e+07 2.60944e+07 2.60959e+07 2.60974e+07 2.60989e+07 2.61004e+07 2.6102e+07 2.61035e+07 2.6105e+07
          2.61066e+07 2.61081e+07 2.61095e+07 2.61109e+07 2.61123e+07 2.61136e+07 2.61149e+07 2.6116e+07 2.61169e+07 2.61178e+07 2.61184e+07 2.61187e+07
          2.61189e+07 2.60644e+07 2.60658e+07 2.60671e+07 2.60685e+07 2.60699e+07 2.60713e+07 2.60728e+07 2.60743e+07 2.60758e+07 2.60773e+07 2.60788e+07
          2.60803e+07 2.60818e+07 2.60833e+07 2.60847e+07 2.60861e+07 2.60874e+07 2.60887e+07 2.60898e+07 2.60909e+07 2.60918e+07 2.60925e+07 2.60931e+07
          2.60934e+07 2.60935e+07 2.60401e+07 2.60414e+07 2.60426e+07 2.6044e+07 2.60454e+07 2.60468e+07 2.60482e+07 2.60497e+07 2.60512e+07 2.60527e+07
          2.60542e+07 2.60557e+07 2.60571e+07 2.60586e+07 2.606e+07 2.60613e+07 2.60626e+07 2.60638e+07 2.60649e+07 2.60659e+07 2.60668e+07 2.60674e+07
          2.6068e+07 2.60683e+07 2.60684e+07 2.60158e+07 2.60169e+07 2.60181e+07 2.60194e+07 2.60208e+07 2.60222e+07 2.60237e+07 2.60251e+07 2.60266e+07
          2.60281e+07 2.60296e+07 2.6031e+07 2.60325e+07 2.60339e+07 2.60353e+07 2.60366e+07 2.60379e+07 2.6039e+07 2.60401e+07 2.60411e+07 2.60419e+07
          2.60426e+07 2.6043e+07 2.60434e+07 2.60434e+07 2.59914e+07 2.59924e+07 2.59936e+07 2.59948e+07 2.59962e+07 2.59976e+07 2.5999e+07 2.60005e+07
          2.6002e+07 2.60034e+07 2.60049e+07 2.60064e+07 2.60078e+07 2.60092e+07 2.60106e+07 2.60119e+07 2.60132e+07 2.60144e+07 2.60154e+07 2.60164e+07
          2.60172e+07 2.60178e+07 2.60183e+07 2.60186e+07 2.60187e+07
        </DataArray>
        <DataArray type="Float32" Name="pc" NumberOfComponents="1" format="ascii">
          10000 10000 10000 10000 10000 10000 10000 10000 10000 10000 10000 10000
          10000 10000 10000 10000 10000 10000 10000 10000 10000 10000 10000 10000
          10000 10000 10000 10000 10000 10000 10000 10000 10000 10000 10000 10000
          10000 10000 10000 10000 10000 10000 10000 10000 10000 10000 10000 10000
          10000 10000 10000 10000 10000 10000 10000 10000 10000 10000 10000 10000
          10000 10000 10000 10000 10000 10000 10000 10000 10000 10000 10000 10000
          10000 10000 10000 10000 10000 10000 10000 10000 10000 10000 10000 10000
          10000 10000 10000 10000 10000 10000 10000 10000 10000 10000 10000 10000
          10000 10000 10000 10555.9 10000 10000 10000 10000 10000 10000 10000 10000
          10000 10000 10000 10000 10000 10000 10000 10000 10000 10000 10000 10000
          10000 10000 10000 10000 10572.2 10000 10000 10000 10000 10000 10000 10000
          10000 10000 10000 10000 10000 10000 10000 10000 10000 10000 10000 10000
          10000 10000 10000 10000 10000 10573.7 10000 10000 10000 10000 10000 10000
          10000 10000 10000 10000 10000 10000 10000 10000 10000 10000 10000 10000
          10000 10000 10000 10000 10000 10000 10003 10000 10000 10000 10000 10000
          10000 10000 10000 10000 10000 10000 10000 10000 10000 10000 10000 10000
          10000 10000 10000 10000 10000 10000 10000 10000 10000 10000 10000 10000
          10000 10000 10000 10000 10000 10000 10000 10000 10000 10000 10000 10000
          10000 10000 10000 10000 10000 10000 10000 10000 10000 10000 10000 10000
          10000 10000 10000 10000 10000 10000 10000 10000 10000 10000 10000 10000
          10000 10000 10000 10000 10000 10000 10000 10000 10000 10000 10000 10000
          10000 10000 10000 10000 10000 10000 10000 10000 10000 10000 10000 10000
          10000 10000 10000 10000 10000 10000 10000 10000 10000 10000 10000 10000
          10000 10000 10000 10000 10000 10000 10000 10000 10000 10000 10000 10000
          10000 10000 10000 10000 10000 10000 10000 10000 10000 10000 10000 10000
          10000 10000 10000 10000 10000 10000 10000 10000 10000 10000 10000 10000
          10000 10000 10000 10000 10000 10000 10000 10000 10000 10000 10000 10000
          10000 10000 10000 10000 10000 10000 10000 10000 10000 10000 10000 10000
          10000 10000 10000 10000 10000 10000 10000 10000 10000 10000 10000 10000
          10000 10000 10000 10000 10000 10000 10000 10000 10000 10000 10000 10000
          10000 10000 10000 10000 10000 10000 10000 10000 10000 10000 10000 10000
          10000 10000 10000 10000 10000 10000 10000 10000 10000 10000 10000 10000
          10000 10000 10000 10000 10000 10000 10000 10000 10000 10000 10000 10000
          10000 10000 10000 10000 10000 10000 10000 10000 10000 10000 10000 10000
          10000 10000 10000 10000 10000 10000 10000 10000 10000 10000 10000 10000
          10000 10000 10000 10000 10000
        </DataArray>
        <DataArray type="Float32" Name="rhoL" NumberOfComponents="1" format="ascii">
          1004.31 1004.31 1004.3 1004.3 1004.32 1004.3 1004.32 1004.31 1004.32 1004.31 1004.32 1004.31
          1004.32 1004.31 1004.32 1004.31 1004.32 1004.31 1004.32 1004.31 1004.32 1004.31 1004.32 1004.31
          1004.32 1004.31 1004.32 1004.31 1004.32 1004.31 1004.33 1004.31 1004.33 1004.31 1004.33 1004.32
          1004.33 1004.32 1004.33 1004.32 1004.33 1004.32 1004.33 1004.32 1004.33 1004.32 1004.33 1004.32
          1004.33 1004.32 1004.29 1004.29 1004.29 1004.29 1004.29 1004.3 1004.3 1004.3 1004.3 1004.3
          1004.3 1004.3 1004.3 1004.3 1004.3 1004.3 1004.3 1004.3 1004.3 1004.31 1004.31 1004.31
          1004.31 1004.31 1004.33 1004.28 1004.28 1004.28 1004.28 1004.28 1004.28 1004.28 1004.29 1004.29
          1004.29 1004.29 1004.29 1004.29 1004.29 1004.29 1004.29 1004.29 1004.29 1004.29 1004.29 1004.3
          1004.3 1004.3 1004.45 1004.86 1004.27 1004.27 1004.27 1004.27 1004.27 1004.27 1004.27 1004.27
          1004.28 1004.28 1004.28 1004.28 1004.28 1004.28 1004.28 1004.28 1004.28 1004.28 1004.28 1004.28
          1004.28 1004.28 1004.29 1004.48 1004.85 1004.26 1004.26 1004.26 1004.26 1004.26 1004.26 1004.26
          1004.26 1004.26 1004.26 1004.27 1004.27 1004.27 1004.27 1004.27 1004.27 1004.27 1004.27 1004.27
          1004.27 1004.27 1004.27 1004.28 1004.44 1004.84 1004.25 1004.25 1004.25 1004.25 1004.25 1004.25
          1004.25 1004.25 1004.25 1004.25 1004.25 1004.26 1004.26 1004.26 1004.26 1004.26 1004.26 1004.26
          1004.26 1004.26 1004.26 1004.26 1004.26 1004.27 1004.82 1004.24 1004.24 1004.24 1004.24 1004.24
          1004.24 1004.24 1004.24 1004.24 1004.24 1004.24 1004.24 1004.24 1004.25 1004.25 1004.25 1004.25
          1004.25 1004.25 1004.25 1004.25 1004.25 1004.25 1004.25 1004.26 1004.23 1004.23 1004.23 1004.23
          1004.23 1004.23 1004.23 1004.23 1004.23 1004.23 1004.23 1004.23 1004.23 1004.23 1004.23 1004.24
          1004.24 1004.24 1004.24 1004.24 1004.24 1004.24 1004.24 1004.24 1004.24 1004.21 1004.21 1004.22
          1004.22 1004.22 1004.22 1004.22 1004.22 1004.22 1004.22 1004.22 1004.22 1004.22 1004.22 1004.22
          1004.22 1004.22 1004.23 1004.23 1004.23 1004.23 1004.23 1004.23 1004.23 1004.23 1004.2 1004.2
          1004.2 1004.2 1004.21 1004.21 1004.21 1004.21 1004.21 1004.21 1004.21 1004.21 1004.21 1004.21
          1004.21 1004.21 1004.21 1004.21 1004.21 1004.22 1004.22 1004.22 1004.22 1004.22 1004.22 1004.19
          1004.19 1004.19 1004.19 1004.19 1004.2 1004.2 1004.2 1004.2 1004.2 1004.2 1004.2 1004.2
          1004.2 1004.2 1004.2 1004.2 1004.2 1004.2 1004.2 1004.2 1004.2 1004.21 1004.21 1004.21
          1004.18 1004.18 1004.18 1004.18 1004.18 1004.18 1004.18 1004.19 1004.19 1004.19 1004.19 1004.19
          1004.19 1004.19 1004.19 1004.19 1004.19 1004.19 1004.19 1004.19 1004.19 1004.19 1004.19 1004.19
          1004.19 1004.17 1004.17 1004.17 1004.17 1004.17 1004.17 1004.17 1004.17 1004.17 1004.18 1004.18
          1004.18 1004.18 1004.18 1004.18 1004.18 1004.18 1004.18 1004.18 1004.18 1004.18 1004.18 1004.18
          1004.18 1004.18 1004.16 1004.16 1004.16 1004.16 1004.16 1004.16 1004.16 1004.16 1004.16 1004.16
          1004.16 1004.17 1004.17 1004.17 1004.17 1004.17 1004.17 1004.17 1004.17 1004.17 1004.17 1004.17
          1004.17 1004.17 1004.17 1004.15 1004.15 1004.15 1004.15 1004.15 1004.15 1004.15 1004.15 1004.15
          1004.15 1004.15 1004.15 1004.15 1004.16 1004.16 1004.16 1004.16 1004.16 1004.16 1004.16 1004.16
          1004.16 1004.16 1004.16 1004.16 1004.14 1004.14 1004.14 1004.14 1004.14 1004.14 1004.14 1004.14
          1004.14 1004.14 1004.14 1004.14 1004.14 1004.14 1004.14 1004.15 1004.15 1004.15 1004.15 1004.15
          1004.15 1004.15 1004.15 1004.15 1004.15
        </DataArray>
        <DataArray type="Float32" Name="rhoG" NumberOfComponents="1" format="ascii">
          173.608 173.608 173.448 173.448 173.608 173.448 173.608 173.448 173.608 173.448 173.608 173.448
          173.608 173.448 173.608 173.448 173.608 173.448 173.608 173.448 173.608 173.448 173.608 173.448
          173.608 173.448 173.608 173.448 173.608 173.448 173.608 173.448 173.608 173.448 173.608 173.448
          173.608 173.448 173.608 173.448 173.608 173.448 173.608 173.448 173.608 173.447 173.607 173.447
          173.607 173.467 173.288 173.288 173.288 173.288 173.288 173.288 173.288 173.288 173.288 173.288
          173.288 173.288 173.288 173.288 173.288 173.288 173.288 173.288 173.288 173.288 173.288 173.288
          173.289 173.472 176.522 173.128 173.127 173.127 173.128 173.128 173.128 173.128 173.128 173.128
          173.128 173.128 173.128 173.128 173.128 173.128 173.128 173.128 173.128 173.128 173.128 173.128
          173.129 173.363 202.645 283.646 172.967 172.967 172.967 172.967 172.967 172.967 172.967 172.967
          172.967 172.967 172.967 172.967 172.967 172.967 172.967 172.967 172.967 172.968 172.968 172.968
          172.968 172.97 173.31 210.96 283.398 172.807 172.807 172.807 172.807 172.807 172.807 172.807
          172.807 172.807 172.807 172.807 172.807 172.807 172.807 172.807 172.807 172.807 172.807 172.807
          172.807 172.807 172.809 173.064 205.46 283.119 172.647 172.647 172.647 172.647 172.647 172.647
          172.647 172.647 172.647 172.647 172.647 172.647 172.647 172.647 172.647 172.647 172.647 172.647
          172.647 172.647 172.647 172.648 172.652 173.298 282.772 172.487 172.487 172.487 172.487 172.487
          172.487 172.487 172.487 172.487 172.487 172.487 172.487 172.487 172.487 172.487 172.487 172.487
          172.487 172.487 172.487 172.487 172.487 172.488 172.492 173.084 172.327 172.326 172.326 172.326
          172.327 172.327 172.327 172.327 172.327 172.327 172.327 172.327 172.327 172.327 172.327 172.327
          172.327 172.327 172.327 172.327 172.327 172.327 172.327 172.328 172.329 172.166 172.166 172.166
          172.166 172.166 172.166 172.166 172.166 172.166 172.166 172.166 172.166 172.166 172.166 172.166
          172.166 172.166 172.166 172.166 172.166 172.166 172.167 172.167 172.167 172.167 172.006 172.006
          172.006 172.006 172.006 172.006 172.006 172.006 172.006 172.006 172.006 172.006 172.006 172.006
          172.006 172.006 172.006 172.006 172.006 172.006 172.006 172.006 172.006 172.006 172.006 171.846
          171.846 171.846 171.846 171.846 171.846 171.846 171.846 171.846 171.846 171.846 171.846 171.846
          171.846 171.846 171.846 171.846 171.846 171.846 171.846 171.846 171.846 171.846 171.846 171.846
          171.686 171.686 171.686 171.686 171.686 171.686 171.686 171.686 171.686 171.686 171.686 171.686
          171.686 171.686 171.686 171.686 171.686 171.686 171.686 171.686 171.686 171.686 171.686 171.686
          171.686 171.525 171.525 171.525 171.525 171.525 171.525 171.525 171.525 171.525 171.525 171.525
          171.525 171.525 171.525 171.525 171.525 171.525 171.525 171.525 171.525 171.525 171.525 171.525
          171.525 171.525 171.365 171.365 171.365 171.365 171.365 171.365 171.365 171.365 171.365 171.365
          171.365 171.365 171.365 171.365 171.365 171.365 171.365 171.365 171.365 171.365 171.365 171.365
          171.365 171.365 171.365 171.205 171.205 171.205 171.205 171.205 171.205 171.205 171.205 171.205
          171.205 171.205 171.205 171.205 171.205 171.205 171.205 171.205 171.205 171.205 171.205 171.205
          171.205 171.205 171.205 171.205 171.045 171.045 171.045 171.045 171.045 171.045 171.045 171.045
          171.045 171.045 171.045 171.045 171.045 171.045 171.045 171.045 171.045 171.045 171.045 171.045
          171.045 171.045 171.045 171.045 171.045
        </DataArray>
        <DataArray type="Float32" Name="mobL" NumberOfComponents="1" format="ascii">
          1522.28 1522.28 1522.29 1522.29 1522.28 1522.29 1522.28 1522.29 1522.28 1522.29 1522.28 1522.29
          1522.28 1522.29 1522.28 1522.28 1522.28 1522.28 1522.27 1522.28 1522.27 1522.28 1522.27 1522.28
          1522.27 1522.28 1522.27 1522.28 1522.27 1522.28 1522.27 1522.28 1522.27 1522.28 1522.27 1522.28
          1522.27 1522.28 1522.27 1522.28 1522.27 1522.28 1522.27 1522.28 1522.27 1522.28 1522.27 1522.28
          1522.27 1522.28 1522.3 1522.3 1522.3 1522.3 1522.3 1522.29 1522.29 1522.29 1522.29 1522.29
          1522.29 1522.29 1522.29 1522.29 1522.29 1522.29 1522.29 1522.29 1522.29 1522.29 1522.29 1522.28
          1522.28 1522.28 1522.28 1522.31 1522.31 1522.3 1522.3 1522.3 1522.3 1522.3 1522.3 1522.3
          1522.3 1522.3 1522.3 1522.3 1522.3 1522.3 1522.3 1522.3 1522.3 1522.3 1522.29 1522.29
          1522.29 1522.29 1522.29 987.46 1522.31 1522.31 1522.31 1522.31 1522.31 1522.31 1522.31 1522.31
          1522.31 1522.31 1522.31 1522.31 1522.31 1522.31 1522.31 1522.31 1522.3 1522.3 1522.3 1522.3
          1522.3 1522.3 1522.3 1522.3 975.384 1522.32 1522.32 1522.32 1522.32 1522.32 1522.32 1522.32
          1522.32 1522.32 1522.32 1522.32 1522.32 1522.32 1522.32 1522.31 1522.31 1522.31 1522.31 1522.31
          1522.31 1522.31 1522.31 1522.31 1522.31 974.251 1522.33 1522.33 1522.33 1522.33 1522.33 1522.33
          1522.33 1522.33 1522.33 1522.33 1522.33 1522.32 1522.32 1522.32 1522.32 1522.32 1522.32 1522.32
          1522.32 1522.32 1522.32 1522.32 1522.32 1522.32 1522.23 1522.34 1522.34 1522.34 1522.34 1522.34
          1522.34 1522.34 1522.34 1522.34 1522.33 1522.33 1522.33 1522.33 1522.33 1522.33 1522.33 1522.33
          1522.33 1522.33 1522.33 1522.33 1522.33 1522.33 1522.33 1522.33 1522.35 1522.35 1522.35 1522.35
          1522.35 1522.35 1522.34 1522.34 1522.34 1522.34 1522.34 1522.34 1522.34 1522.34 1522.34 1522.34
          1522.34 1522.34 1522.34 1522.34 1522.34 1522.34 1522.34 1522.34 1522.34 1522.36 1522.36 1522.36
          1522.36 1522.35 1522.35 1522.35 1522.35 1522.35 1522.35 1522.35 1522.35 1522.35 1522.35 1522.35
          1522.35 1522.35 1522.35 1522.35 1522.35 1522.35 1522.35 1522.34 1522.34 1522.34 1522.37 1522.36
          1522.36 1522.36 1522.36 1522.36 1522.36 1522.36 1522.36 1522.36 1522.36 1522.36 1522.36 1522.36
          1522.36 1522.36 1522.36 1522.36 1522.36 1522.36 1522.35 1522.35 1522.35 1522.35 1522.35 1522.37
          1522.37 1522.37 1522.37 1522.37 1522.37 1522.37 1522.37 1522.37 1522.37 1522.37 1522.37 1522.37
          1522.37 1522.37 1522.37 1522.37 1522.36 1522.36 1522.36 1522.36 1522.36 1522.36 1522.36 1522.36
          1522.38 1522.38 1522.38 1522.38 1522.38 1522.38 1522.38 1522.38 1522.38 1522.38 1522.38 1522.38
          1522.38 1522.38 1522.37 1522.37 1522.37 1522.37 1522.37 1522.37 1522.37 1522.37 1522.37 1522.37
          1522.37 1522.39 1522.39 1522.39 1522.39 1522.39 1522.39 1522.39 1522.39 1522.39 1522.39 1522.39
          1522.39 1522.38 1522.38 1522.38 1522.38 1522.38 1522.38 1522.38 1522.38 1522.38 1522.38 1522.38
          1522.38 1522.38 1522.4 1522.4 1522.4 1522.4 1522.4 1522.4 1522.4 1522.4 1522.4 1522.39
          1522.39 1522.39 1522.39 1522.39 1522.39 1522.39 1522.39 1522.39 1522.39 1522.39 1522.39 1522.39
          1522.39 1522.39 1522.39 1522.41 1522.41 1522.41 1522.41 1522.41 1522.41 1522.4 1522.4 1522.4
          1522.4 1522.4 1522.4 1522.4 1522.4 1522.4 1522.4 1522.4 1522.4 1522.4 1522.4 1522.4
          1522.4 1522.4 1522.4 1522.4 1522.42 1522.42 1522.42 1522.41 1522.41 1522.41 1522.41 1522.41
          1522.41 1522.41 1522.41 1522.41 1522.41 1522.41 1522.41 1522.41 1522.41 1522.41 1522.41 1522.41
          1522.41 1522.41 1522.41 1522.41 1522.41
        </DataArray>
        <DataArray type="Float32" Name="mobG" NumberOfComponents="1" format="ascii">
          0 0 0 0 0 0 0 0 0 0 0 0
          0 0 0 0 0 0 0 0 0 0 0 0
          0 0 0 0 0 0 0 0 0 0 0 0
          0 0 0 0 0 0 0 0 0 0 0 0
          0 0 0 0 0 0 0 0 0 0 0 0
          0 0 0 0 0 0 0 0 0 0 0 0
          0 0 0 0 0 0 0 0 0 0 0 0
          0 0 0 0 0 0 0 0 0 0 0 0
          0 0 0 111.881 0 0 0 0 0 0 0 0
          0 0 0 0 0 0 0 0 0 0 0 0
          0 0 0 0 120.975 0 0 0 0 0 0 0
          0 0 0 0 0 0 0 0 0 0 0 0
          0 0 0 0 0 121.861 0 0 0 0 0 0
          0 0 0 0 0 0 0 0 0 0 0 0
          0 0 0 0 0 0 2.35354e-05 0 0 0 0 0
          0 0 0 0 0 0 0 0 0 0 0 0
          0 0 0 0 0 0 0 0 0 0 0 0
          0 0 0 0 0 0 0 0 0 0 0 0
          0 0 0 0 0 0 0 0 0 0 0 0
          0 0 0 0 0 0 0 0 0 0 0 0
          0 0 0 0 0 0 0 0 0 0 0 0
          0 0 0 0 0 0 0 0 0 0 0 0
          0 0 0 0 0 0 0 0 0 0 0 0
          0 0 0 0 0 0 0 0 0 0 0 0
          0 0 0 0 0 0 0 0 0 0 0 0
          0 0 0 0 0 0 0 0 0 0 0 0
          0 0 0 0 0 0 0 0 0 0 0 0
          0 0 0 0 0 0 0 0 0 0 0 0
          0 0 0 0 0 0 0 0 0 0 0 0
          0 0 0 0 0 0 0 0 0 0 0 0
          0 0 0 0 0 0 0 0 0 0 0 0
          0 0 0 0 0 0 0 0 0 0 0 0
          0 0 0 0 0 0 0 0 0 0 0 0
          0 0 0 0 0 0 0 0 0 0 0 0
          0 0 0 0 0 0 0 0 0 0 0 0
          0 0 0 0 0
        </DataArray>
        <DataArray type="Float32" Name="X_lH2O" NumberOfComponents="1" format="ascii">