<?xml version="1.0"?>
<VTKFile type="UnstructuredGrid" version="0.1" byte_order="LittleEndian">
  <UnstructuredGrid>
    <Piece NumberOfCells="384" NumberOfPoints="425">
      <PointData Scalars="Sg">
        <DataArray type="Float32" Name="Sg" NumberOfComponents="1" format="ascii">
          0 0 0 0 0 0 0 0 0 0 0 0
          0 0 0 0 0 0 0 0 0 0 0 0
          0 0 0 0 0 0 0 0 0 0 0 0
          0 0 0 0 0 0 0 0 0 0 0 0
          0 0 0 0 0 0 0 0 0 0 0 0
          0 0 0 0 0 0 0 0 0 0 0 0
          0 0 0 0 0 0 0 0 0 0 0 0
          0 0 0 0 0 0 0 0 0 0 0 0
          0 0 0.000832047 0.0857738 0 0 0 0 0 0 0 0
          0 0 0 0 0 0 0 0 0 0 0 0
          0 0 0 0.00132042 0.0882426 0 0 0 0 0 0 0
          0 0 0 0 0 0 0 0 0 0 0 0
          0 0 0 0 0.00106084 0.0884766 0 0 0 0 0 0
          0 0 0 0 0 0 0 0 0 0 0 0
          0 0 0 0 0 0 0.00613076 0 0 0 0 0
          0 0 0 0 0 0 0 0 0 0 0 0
          0 0 0 0 0 0 0 0 0 0 0 0
          0 0 0 0 0 0 0 0 0 0 0 0
          0 0 0 0 0 0 0 0 0 0 0 0
          0 0 0 0 0 0 0 0 0 0 0 0
          0 0 0 0 0 0 0 0 0 0 0 0
          0 0 0 0 0 0 0 0 0 0 0 0
          0 0 0 0 0 0 0 0 0 0 0 0
          0 0 0 0 0 0 0 0 0 0 0 0
          0 0 0 0 0 0 0 0 0 0 0 0
          0 0 0 0 0 0 0 0 0 0 0 0
          0 0 0 0 0 0 0 0 0 0 0 0
          0 0 0 0 0 0 0 0 0 0 0 0
          0 0 0 0 0 0 0 0 0 0 0 0
          0 0 0 0 0 0 0 0 0 0 0 0
          0 0 0 0 0 0 0 0 0 0 0 0
          0 0 0 0 0 0 0 0 0 0 0 0
          0 0 0 0 0 0 0 0 0 0 0 0
          0 0 0 0 0 0 0 0 0 0 0 0
          0 0 0 0 0 0 0 0 0 0 0 0
          0 0 0 0 0
        </DataArray>
        <DataArray type="Float32" Name="Sl" NumberOfComponents="1" format="ascii">
          1 1 1 1 1 1 1 1 1 1 1 1
          1 1 1 1 1 1 1 1 1 1 1 1
          1 1 1 1 1 1 1 1 1 1 1 1
          1 1 1 1 1 1 1 1 1 1 1 1
          1 1 1 1 1 1 1 1 1 1 1 1
          1 1 1 1 1 1 1 1 1 1 1 1
          1 1 1 1 1 1 1 1 1 1 1 1
          1 1 1 1 1 1 1 1 1 1 1 1
          1 1 0.999168 0.914226 1 1 1 1 1 1 1 1
          1 1 1 1 1 1 1 1 1 1 1 1
          1 1 1 0.99868 0.911757 1 1 1 1 1 1 1
          1 1 1 1 1 1 1 1 1 1 1 1
          1 1 1 1 0.998939 0.911523 1 1 1 1 1 1
          1 1 1 1 1 1 1 1 1 1 1 1
          1 1 1 1 1 1 0.993869 1 1 1 1 1
          1 1 1 1 1 1 1 1 1 1 1 1
          1 1 1 1 1 1 1 1 1 1 1 1
          1 1 1 1 1 1 1 1 1 1 1 1
          1 1 1 1 1 1 1 1 1 1 1 1
          1 1 1 1 1 1 1 1 1 1 1 1
          1 1 1 1 1 1 1 1 1 1 1 1
          1 1 1 1 1 1 1 1 1 1 1 1
          1 1 1 1 1 1 1 1 1 1 1 1
          1 1 1 1 1 1 1 1 1 1 1 1
          1 1 1 1 1 1 1 1 1 1 1 1
          1 1 1 1 1 1 1 1 1 1 1 1
          1 1 1 1 1 1 1 1 1 1 1 1
          1 1 1 1 1 1 1 1 1 1 1 1
          1 1 1 1 1 1 1 1 1 1 1 1
          1 1 1 1 1 1 1 1 1 1 1 1
          1 1 1 1 1 1 1 1 1 1 1 1
          1 1 1 1 1 1 1 1 1 1 1 1
          1 1 1 1 1 1 1 1 1 1 1 1
          1 1 1 1 1 1 1 1 1 1 1 1
          1 1 1 1 1 1 1 1 1 1 1 1
          1 1 1 1 1
        </DataArray>
        <DataArray type="Float32" Name="pg" NumberOfComponents="1" format="ascii">
          2.6391e+07 2.63934e+07 2.63667e+07 2.63689e+07 2.63955e+07 2.6371e+07 2.63976e+07 2.6373e+07 2.63996e+07 2.6375e+07 2.64015e+07 2.63769e+07
          2.64035e+07 2.63789e+07 2.64054e+07 2.63808e+07 2.64073e+07 2.63827e+07 2.64092e+07 2.63846e+07 2.64111e+07 2.63865e+07 2.6413e+07 2.63884e+07
          2.64149e+07 2.63903e+07 2.64168e+07 2.63922e+07 2.64187e+07 2.63941e+07 2.64207e+07 2.63961e+07 2.64226e+07 2.6398e+07 2.64245e+07 2.63999e+07
          2.64264e+07 2.64018e+07 2.64284e+07 2.64038e+07 2.64302e+07 2.64057e+07 2.6432e+07 2.64075e+07 2.64335e+07 2.64092e+07 2.64346e+07 2.64104e+07
          2.6435e+07 2.64108e+07 2.63424e+07 2.63444e+07 2.63464e+07 2.63484e+07 2.63504e+07 2.63523e+07 2.63543e+07 2.63562e+07 2.63581e+07 2.636e+07
          2.63619e+07 2.63638e+07 2.63657e+07 2.63676e+07 2.63695e+07 2.63714e+07 2.63734e+07 2.63753e+07 2.63772e+07 2.63792e+07 2.63812e+07 2.63832e+07
          2.63851e+07 2.6387e+07 2.63875e+07 2.6318e+07 2.632e+07 2.6322e+07 2.63239e+07 2.63259e+07 2.63278e+07 2.63297e+07 2.63316e+07 2.63335e+07
          2.63354e+07 2.63373e+07 2.63392e+07 2.63411e+07 2.6343e+07 2.63449e+07 2.63468e+07 2.63487e+07 2.63507e+07 2.63526e+07 2.63546e+07 2.63566e+07
          2.63588e+07 2.63611e+07 2.63639e+07 2.63703e+07 2.62937e+07 2.62956e+07 2.62975e+07 2.62994e+07 2.63013e+07 2.63032e+07 2.63051e+07 2.6307e+07
          2.63089e+07 2.63108e+07 2.63127e+07 2.63146e+07 2.63165e+07 2.63184e+07 2.63203e+07 2.63222e+07 2.63241e+07 2.6326e+07 2.6328e+07 2.633e+07
          2.6332e+07 2.63343e+07 2.63368e+07 2.63401e+07 2.63475e+07 2.62694e+07 2.62712e+07 2.62731e+07 2.62749e+07 2.62768e+07 2.62787e+07 2.62806e+07
          2.62824e+07 2.62843e+07 2.62862e+07 2.62881e+07 2.629e+07 2.62918e+07 2.62937e+07 2.62956e+07 2.62975e+07 2.62994e+07 2.63014e+07 2.63033e+07
          2.63053e+07 2.63073e+07 2.63094e+07 2.63119e+07 2.63148e+07 2.63217e+07 2.6245e+07 2.62468e+07 2.62486e+07 2.62504e+07 2.62523e+07 2.62541e+07
          2.6256e+07 2.62579e+07 2.62597e+07 2.62616e+07 2.62635e+07 2.62653e+07 2.62672e+07 2.62691e+07 2.6271e+07 2.62729e+07 2.62748e+07 2.62767e+07
          2.62786e+07 2.62805e+07 2.62824e+07 2.62844e+07 2.62865e+07 2.62886e+07 2.62898e+07 2.62207e+07 2.62224e+07 2.62241e+07 2.62259e+07 2.62277e+07
          2.62296e+07 2.62314e+07 2.62333e+07 2.62351e+07 2.6237e+07 2.62389e+07 2.62407e+07 2.62426e+07 2.62445e+07 2.62464e+07 2.62482e+07 2.62501e+07
          2.6252e+07 2.62539e+07 2.62557e+07 2.62576e+07 2.62593e+07 2.6261e+07 2.62623e+07 2.62628e+07 2.61964e+07 2.61979e+07 2.61996e+07 2.62014e+07
          2.62032e+07 2.6205e+07 2.62068e+07 2.62087e+07 2.62105e+07 2.62124e+07 2.62142e+07 2.62161e+07 2.6218e+07 2.62198e+07 2.62217e+07 2.62236e+07
          2.62254e+07 2.62273e+07 2.62291e+07 2.6231e+07 2.62327e+07 2.62344e+07 2.62358e+07 2.62368e+07 2.62372e+07 2.6172e+07 2.61736e+07 2.61752e+07
          2.61769e+07 2.61787e+07 2.61805e+07 2.61823e+07 2.61841e+07 2.61859e+07 2.61878e+07 2.61896e+07 2.61914e+07 2.61933e+07 2.61951e+07 2.61969e+07
          2.61987e+07 2.62005e+07 2.62023e+07 2.62041e+07 2.62058e+07 2.62074e+07 2.62088e+07 2.621e+07 2.62108e+07 2.62111e+07 2.61477e+07 2.61493e+07
          2.61509e+07 2.61526e+07 2.61543e+07 2.6156e+07 2.61578e+07 2.61596e+07 2.61613e+07 2.61631e+07 2.61649e+07 2.61667e+07 2.61685e+07 2.61703e+07
          2.6172e+07 2.61738e+07 2.61754e+07 2.61771e+07 2.61787e+07 2.61802e+07 2.61816e+07 2.61828e+07 2.61837e+07 2.61844e+07 2.61846e+07 2.61234e+07
          2.61249e+07 2.61266e+07 2.61282e+07 2.61299e+07 2.61316e+07 2.61333e+07 2.6135e+07 2.61368e+07 2.61385e+07 2.61403e+07 2.6142e+07 2.61437e+07
          2.61454e+07 2.61471e+07 2.61488e+07 2.61504e+07 2.61519e+07 2.61534e+07 2.61548e+07 2.6156e+07 2.6157e+07 2.61578e+07 2.61583e+07 2.61585e+07
          2.6099e+07 2.61006e+07 2.61022e+07 2.61038e+07 2.61054e+07 2.61071e+07 2.61088e+07 2.61105e+07 2.61122e+07 2.61139e+07 2.61156e+07 2.61173e+07
          2.6119e+07 2.61207e+07 2.61223e+07 2.61239e+07 2.61254e+07 2.61269e+07 2.61282e+07 2.61295e+07 2.61306e+07 2.61315e+07 2.61322e+07 2.61326e+07
          2.61327e+07 2.60747e+07 2.60762e+07 2.60778e+07 2.60793e+07 2.60809e+07 2.60826e+07 2.60842e+07 2.60859e+07 2.60876e+07 2.60893e+07 2.60909e+07
          2.60926e+07 2.60943e+07 2.60959e+07 2.60975e+07 2.6099e+07 2.61005e+07 2.61019e+07 2.61032e+07 2.61043e+07 2.61053e+07 2.61061e+07 2.61068e+07
          2.61071e+07 2.61073e+07 2.60504e+07 2.60518e+07 2.60533e+07 2.60548e+07 2.60564e+07 2.6058e+07 2.60596e+07 2.60613e+07 2.6063e+07 2.60646e+07
          2.60663e+07 2.60679e+07 2.60696e+07 2.60712e+07 2.60727e+07 2.60742e+07 2.60756e+07 2.6077e+07 2.60782e+07 2.60793e+07 2.60803e+07 2.6081e+07
          2.60816e+07 2.6082e+07 2.60821e+07 2.6026e+07 2.60274e+07 2.60288e+07 2.60303e+07 2.60319e+07 2.60335e+07 2.60351e+07 2.60367e+07 2.60384e+07
          2.604e+07 2.60417e+07 2.60433e+07 2.60449e+07 2.60465e+07 2.6048e+07 2.60495e+07 2.60509e+07 2.60522e+07 2.60534e+07 2.60545e+07 2.60554e+07
          2.60561e+07 2.60567e+07 2.6057e+07 2.60571e+07 2.60017e+07 2.60028e+07 2.60042e+07 2.60057e+07 2.60073e+07 2.60089e+07 2.60105e+07 2.60121e+07
          2.60138e+07 2.60154e+07 2.60171e+07 2.60187e+07 2.60203e+07 2.60219e+07 2.60234e+07 2.60249e+07 2.60263e+07 2.60276e+07 2.60287e+07 2.60298e+07
          2.60307e+07 2.60314e+07 2.6032e+07 2.60323e+07 2.60324e+07
        </DataArray>
        <DataArray type="Float32" Name="pl" NumberOfComponents="1" format="ascii">
          2.6381e+07 2.63834e+07 2.63567e+07 2.63589e+07 2.63855e+07 2.6361e+07 2.63876e+07 2.6363e+07 2.63896e+07 2.6365e+07 2.63915e+07 2.63669e+07
          2.63935e+07 2.63689e+07 2.63954e+07 2.63708e+07 2.63973e+07 2.63727e+07 2.63992e+07 2.63746e+07 2.64011e+07 2.63765e+07 2.6403e+07 2.63784e+07
          2.64049e+07 2.63803e+07 2.64068e+07 2.63822e+07 2.64087e+07 2.63841e+07 2.64107e+07 2.63861e+07 2.64126e+07 2.6388e+07 2.64145e+07 2.63899e+07
          2.64164e+07 2.63918e+07 2.64184e+07 2.63938e+07 2.64202e+07 2.63957e+07 2.6422e+07 2.63975e+07 2.64235e+07 2.63992e+07 2.64246e+07 2.64004e+07
          2.6425e+07 2.64008e+07 2.63324e+07 2.63344e+07 2.63364e+07 2.63384e+07 2.63404e+07 2.63423e+07 2.63443e+07 2.63462e+07 2.63481e+07 2.635e+07
          2.63519e+07 2.63538e+07 2.63557e+07 2.63576e+07 2.63595e+07 2.63614e+07 2.63634e+07 2.63653e+07 2.63672e+07 2.63692e+07 2.63712e+07 2.63732e+07
          2.63751e+07 2.6377e+07 2.63775e+07 2.6308e+07 2.631e+07 2.6312e+07 2.63139e+07 2.63159e+07 2.63178e+07 2.63197e+07 2.63216e+07 2.63235e+07
          2.63254e+07 2.63273e+07 2.63292e+07 2.63311e+07 2.6333e+07 2.63349e+07 2.63368e+07 2.63387e+07 2.63407e+07 2.63426e+07 2.63446e+07 2.63466e+07
          2.63488e+07 2.63511e+07 2.63539e+07 2.63597e+07 2.62837e+07 2.62856e+07 2.62875e+07 2.62894e+07 2.62913e+07 2.62932e+07 2.62951e+07 2.6297e+07
          2.62989e+07 2.63008e+07 2.63027e+07 2.63046e+07 2.63065e+07 2.63084e+07 2.63103e+07 2.63122e+07 2.63141e+07 2.6316e+07 2.6318e+07 2.632e+07
          2.6322e+07 2.63243e+07 2.63268e+07 2.63301e+07 2.63369e+07 2.62594e+07 2.62612e+07 2.62631e+07 2.62649e+07 2.62668e+07 2.62687e+07 2.62706e+07
          2.62724e+07 2.62743e+07 2.62762e+07 2.62781e+07 2.628e+07 2.62818e+07 2.62837e+07 2.62856e+07 2.62875e+07 2.62894e+07 2.62914e+07 2.62933e+07
          2.62953e+07 2.62973e+07 2.62994e+07 2.63019e+07 2.63048e+07 2.63111e+07 2.6235e+07 2.62368e+07 2.62386e+07 2.62404e+07 2.62423e+07 2.62441e+07
          2.6246e+07 2.62479e+07 2.62497e+07 2.62516e+07 2.62535e+07 2.62553e+07 2.62572e+07 2.62591e+07 2.6261e+07 2.62629e+07 2.62648e+07 2.62667e+07
          2.62686e+07 2.62705e+07 2.62724e+07 2.62744e+07 2.62765e+07 2.62786e+07 2.62798e+07 2.62107e+07 2.62124e+07 2.62141e+07 2.62159e+07 2.62177e+07
          2.62196e+07 2.62214e+07 2.62233e+07 2.62251e+07 2.6227e+07 2.62289e+07 2.62307e+07 2.62326e+07 2.62345e+07 2.62364e+07 2.62382e+07 2.62401e+07
          2.6242e+07 2.62439e+07 2.62457e+07 2.62476e+07 2.62493e+07 2.6251e+07 2.62523e+07 2.62528e+07 2.61864e+07 2.61879e+07 2.61896e+07 2.61914e+07
          2.61932e+07 2.6195e+07 2.61968e+07 2.61987e+07 2.62005e+07 2.62024e+07 2.62042e+07 2.62061e+07 2.6208e+07 2.62098e+07 2.62117e+07 2.62136e+07
          2.62154e+07 2.62173e+07 2.62191e+07 2.6221e+07 2.62227e+07 2.62244e+07 2.62258e+07 2.62268e+07 2.62272e+07 2.6162e+07 2.61636e+07 2.61652e+07
          2.61669e+07 2.61687e+07 2.61705e+07 2.61723e+07 2.61741e+07 2.61759e+07 2.61778e+07 2.61796e+07 2.61814e+07 2.61833e+07 2.61851e+07 2.61869e+07
          2.61887e+07 2.61905e+07 2.61923e+07 2.61941e+07 2.61958e+07 2.61974e+07 2.61988e+07 2.62e+07 2.62008e+07 2.62011e+07 2.61377e+07 2.61393e+07
          2.61409e+07 2.61426e+07 2.61443e+07 2.6146e+07 2.61478e+07 2.61496e+07 2.61513e+07 2.61531e+07 2.61549e+07 2.61567e+07 2.61585e+07 2.61603e+07
          2.6162e+07 2.61638e+07 2.61654e+07 2.61671e+07 2.61687e+07 2.61702e+07 2.61716e+07 2.61728e+07 2.61737e+07 2.61744e+07 2.61746e+07 2.61134e+07
          2.61149e+07 2.61166e+07 2.61182e+07 2.61199e+07 2.61216e+07 2.61233e+07 2.6125e+07 2.61268e+07 2.61285e+07 2.61303e+07 2.6132e+07 2.61337e+07
          2.61354e+07 2.61371e+07 2.61388e+07 2.61404e+07 2.61419e+07 2.61434e+07 2.61448e+07 2.6146e+07 2.6147e+07 2.61478e+07 2.61483e+07 2.61485e+07
          2.6089e+07 2.60906e+07 2.60922e+07 2.60938e+07 2.60954e+07 2.60971e+07 2.60988e+07 2.61005e+07 2.61022e+07 2.61039e+07 2.61056e+07 2.61073e+07
          2.6109e+07 2.61107e+07 2.61123e+07 2.61139e+07 2.61154e+07 2.61169e+07 2.61182e+07 2.61195e+07 2.61206e+07 2.61215e+07 2.61222e+07 2.61226e+07
          2.61227e+07 2.60647e+07 2.60662e+07 2.60678e+07 2.60693e+07 2.60709e+07 2.60726e+07 2.60742e+07 2.60759e+07 2.60776e+07 2.60793e+07 2.60809e+07
          2.60826e+07 2.60843e+07 2.60859e+07 2.60875e+07 2.6089e+07 2.60905e+07 2.60919e+07 2.60932e+07 2.60943e+07 2.60953e+07 2.60961e+07 2.60968e+07
          2.60971e+07 2.60973e+07 2.60404e+07 2.60418e+07 2.60433e+07 2.60448e+07 2.60464e+07 2.6048e+07 2.60496e+07 2.60513e+07 2.6053e+07 2.60546e+07
          2.60563e+07 2.60579e+07 2.60596e+07 2.60612e+07 2.60627e+07 2.60642e+07 2.60656e+07 2.6067e+07 2.60682e+07 2.60693e+07 2.60703e+07 2.6071e+07
          2.60716e+07 2.6072e+07 2.60721e+07 2.6016e+07 2.60174e+07 2.60188e+07 2.60203e+07 2.60219e+07 2.60235e+07 2.60251e+07 2.60267e+07 2.60284e+07
          2.603e+07 2.60317e+07 2.60333e+07 2.60349e+07 2.60365e+07 2.6038e+07 2.60395e+07 2.60409e+07 2.60422e+07 2.60434e+07 2.60445e+07 2.60454e+07
          2.60461e+07 2.60467e+07 2.6047e+07 2.60471e+07 2.59917e+07 2.59928e+07 2.59942e+07 2.59957e+07 2.59973e+07 2.59989e+07 2.60005e+07 2.60021e+07
          2.60038e+07 2.60054e+07 2.60071e+07 2.60087e+07 2.60103e+07 2.60119e+07 2.60134e+07 2.60149e+07 2.60163e+07 2.60176e+07 2.60187e+07 2.60198e+07
          2.60207e+07 2.60214e+07 2.6022e+07 2.60223e+07 2.60224e+07
        </DataArray>
        <DataArray type="Float32" Name="pc" NumberOfComponents="1" format="ascii">
          10000 10000 10000 10000 10000 10000 10000 10000 10000 10000 10000 10000
          10000 10000 10000 10000 10000 10000 10000 10000 10000 10000 10000 10000
          10000 10000 10000 10000 10000 10000 10000 10000 10000 10000 10000 10000
          10000 10000 10000 10000 10000 10000 10000 10000 10000 10000 10000 10000
          10000 10000 10000 10000 10000 10000 10000 10000 10000 10000 10000 10000
          10000 10000 10000 10000 10000 10000 10000 10000 10000 10000 10000 10000
          10000 10000 10000 10000 10000 10000 10000 10000 10000 10000 10000 10000
          10000 10000 10000 10000 10000 10000 10000 10000 10000 10000 10000 10000
          10000 10000 10005.2 10583.4 10000 10000 10000 10000 10000 10000 10000 10000
          10000 10000 10000 10000 10000 10000 10000 10000 10000 10000 10000 10000
          10000 10000 10000 10008.3 10601.8 10000 10000 10000 10000 10000 10000 10000
          10000 10000 10000 10000 10000 10000 10000 10000 10000 10000 10000 10000
          10000 10000 10000 10000 10006.6 10603.5 10000 10000 10000 10000 10000 10000
          10000 10000 10000 10000 10000 10000 10000 10000 10000 10000 10000 10000
          10000 10000 10000 10000 10000 10000 10038.5 10000 10000 10000 10000 10000
          10000 10000 10000 10000 10000 10000 10000 10000 10000 10000 10000 10000
          10000 10000 10000 10000 10000 10000 10000 10000 10000 10000 10000 10000
          10000 10000 10000 10000 10000 10000 10000 10000 10000 10000 10000 10000
          10000 10000 10000 10000 10000 10000 10000 10000 10000 10000 10000 10000
          10000 10000 10000 10000 10000 10000 10000 10000 10000 10000 10000 10000
          10000 10000 10000 10000 10000 10000 10000 10000 10000 10000 10000 10000
          10000 10000 10000 10000 10000 10000 10000 10000 10000 10000 10000 10000
          10000 10000 10000 10000 10000 10000 10000 10000 10000 10000 10000 10000
          10000 10000 10000 10000 10000 10000 10000 10000 10000 10000 10000 10000
          10000 10000 10000 10000 10000 10000 10000 10000 10000 10000 10000 10000
          10000 10000 10000 10000 10000 10000 10000 10000 10000 10000 10000 10000
          10000 10000 10000 10000 10000 10000 10000 10000 10000 10000 10000 10000
          10000 10000 10000 10000 10000 10000 10000 10000 10000 10000 10000 10000
          10000 10000 10000 10000 10000 10000 10000 10000 10000 10000 10000 10000
          10000 10000 10000 10000 10000 10000 10000 10000 10000 10000 10000 10000
          10000 10000 10000 10000 10000 10000 10000 10000 10000 10000 10000 10000
          10000 10000 10000 10000 10000 10000 10000 10000 10000 10000 10000 10000
          10000 10000 10000 10000 10000 10000 10000 10000 10000 10000 10000 10000
          10000 10000 10000 10000 10000 10000 10000 10000 10000 10000 10000 10000
          10000 10000 10000 10000 10000 10000 10000 10000 10000 10000 10000 10000
          10000 10000 10000 10000 10000
        </DataArray>
        <DataArray type="Float32" Name="rhoL" NumberOfComponents="1" format="ascii">
          1003.43 1003.43 1003.42 1003.42 1003.43 1003.42 1003.43 1003.42 1003.43 1003.42 1003.43 1003.42
          1003.43 1003.42 1003.43 1003.42 1003.43 1003.42 1003.44 1003.42 1003.44 1003.43 1003.44 1003.43
          1003.44 1003.43 1003.44 1003.43 1003.44 1003.43 1003.44 1003.43 1003.44 1003.43 1003.44 1003.43
          1003.44 1003.43 1003.44 1003.43 1003.44 1003.43 1003.44 1003.43 1003.45 1003.44 1003.45 1003.44
          1003.45 1003.44 1003.41 1003.41 1003.41 1003.41 1003.41 1003.41 1003.41 1003.41 1003.41 1003.41
          1003.42 1003.42 1003.42 1003.42 1003.42 1003.42 1003.42 1003.42 1003.42 1003.42 1003.42 1003.42
          1003.43 1003.43 1003.43 1003.4 1003.4 1003.4 1003.4 1003.4 1003.4 1003.4 1003.4 1003.4
          1003.4 1003.41 1003.41 1003.41 1003.41 1003.41 1003.41 1003.41 1003.41 1003.41 1003.41 1003.41
          1003.41 1003.42 1003.42 1003.42 1003.39 1003.39 1003.39 1003.39 1003.39 1003.39 1003.39 1003.39
          1003.39 1003.39 1003.4 1003.4 1003.4 1003.4 1003.4 1003.4 1003.4 1003.4 1003.4 1003.4
          1003.4 1003.4 1003.41 1003.41 1003.41 1003.38 1003.38 1003.38 1003.38 1003.38 1003.38 1003.38
          1003.38 1003.38 1003.38 1003.38 1003.39 1003.39 1003.39 1003.39 1003.39 1003.39 1003.39 1003.39
          1003.39 1003.39 1003.39 1003.39 1003.4 1003.4 1003.37 1003.37 1003.37 1003.37 1003.37 1003.37
          1003.37 1003.37 1003.37 1003.37 1003.37 1003.38 1003.38 1003.38 1003.38 1003.38 1003.38 1003.38
          1003.38 1003.38 1003.38 1003.38 1003.38 1003.39 1003.39 1003.36 1003.36 1003.36 1003.36 1003.36
          1003.36 1003.36 1003.36 1003.36 1003.36 1003.36 1003.37 1003.37 1003.37 1003.37 1003.37 1003.37
          1003.37 1003.37 1003.37 1003.37 1003.37 1003.37 1003.37 1003.37 1003.35 1003.35 1003.35 1003.35
          1003.35 1003.35 1003.35 1003.35 1003.35 1003.35 1003.35 1003.35 1003.36 1003.36 1003.36 1003.36
          1003.36 1003.36 1003.36 1003.36 1003.36 1003.36 1003.36 1003.36 1003.36 1003.34 1003.34 1003.34
          1003.34 1003.34 1003.34 1003.34 1003.34 1003.34 1003.34 1003.34 1003.34 1003.35 1003.35 1003.35
          1003.35 1003.35 1003.35 1003.35 1003.35 1003.35 1003.35 1003.35 1003.35 1003.35 1003.33 1003.33
          1003.33 1003.33 1003.33 1003.33 1003.33 1003.33 1003.33 1003.33 1003.33 1003.33 1003.34 1003.34
          1003.34 1003.34 1003.34 1003.34 1003.34 1003.34 1003.34 1003.34 1003.34 1003.34 1003.34 1003.32
          1003.32 1003.32 1003.32 1003.32 1003.32 1003.32 1003.32 1003.32 1003.32 1003.32 1003.32 1003.32
          1003.33 1003.33 1003.33 1003.33 1003.33 1003.33 1003.33 1003.33 1003.33 1003.33 1003.33 1003.33
          1003.31 1003.31 1003.31 1003.31 1003.31 1003.31 1003.31 1003.31 1003.31 1003.31 1003.31 1003.31
          1003.31 1003.32 1003.32 1003.32 1003.32 1003.32 1003.32 1003.32 1003.32 1003.32 1003.32 1003.32
          1003.32 1003.3 1003.3 1003.3 1003.3 1003.3 1003.3 1003.3 1003.3 1003.3 1003.3 1003.3
          1003.3 1003.3 1003.3 1003.31 1003.31 1003.31 1003.31 1003.31 1003.31 1003.31 1003.31 1003.31
          1003.31 1003.31 1003.29 1003.29 1003.29 1003.29 1003.29 1003.29 1003.29 1003.29 1003.29 1003.29
          1003.29 1003.29 1003.29 1003.29 1003.3 1003.3 1003.3 1003.3 1003.3 1003.3 1003.3 1003.3
          1003.3 1003.3 1003.3 1003.28 1003.28 1003.28 1003.28 1003.28 1003.28 1003.28 1003.28 1003.28
          1003.28 1003.28 1003.28 1003.28 1003.28 1003.29 1003.29 1003.29 1003.29 1003.29 1003.29 1003.29
          1003.29 1003.29 1003.29 1003.29 1003.27 1003.27 1003.27 1003.27 1003.27 1003.27 1003.27 1003.27
          1003.27 1003.27 1003.27 1003.27 1003.27 1003.27 1003.27 1003.28 1003.28 1003.28 1003.28 1003.28
          1003.28 1003.28 1003.28 1003.28 1003.28
        </DataArray>
        <DataArray type="Float32" Name="rhoG" NumberOfComponents="1" format="ascii">
          283.916 283.941 283.654 283.677 283.964 283.7 283.986 283.722 284.008 283.743 284.029 283.764
          284.049 283.785 284.07 283.805 284.091 283.826 284.111 283.847 284.132 283.867 284.152 283.888
          284.173 283.908 284.193 283.929 284.214 283.949 284.235 283.97 284.255 283.99 284.276 284.011
          284.297 284.032 284.317 284.053 284.338 284.073 284.357 284.093 284.373 284.111 284.385 284.124
          284.389 284.129 283.392 283.414 283.436 283.458 283.479 283.5 283.52 283.541 283.561 283.582
          283.602 283.623 283.643 283.664 283.684 283.705 283.726 283.746 283.767 283.788 283.81 283.831
          283.852 283.873 283.878 283.13 283.152 283.173 283.194 283.215 283.235 283.256 283.276 283.297
          283.317 283.338 283.358 283.378 283.399 283.419 283.44 283.461 283.481 283.502 283.524 283.546
          283.569 283.594 283.625 283.694 282.869 282.889 282.91 282.93 282.951 282.971 282.991 283.012
          283.032 283.052 283.073 283.093 283.114 283.134 283.154 283.175 283.195 283.216 283.237 283.259
          283.281 283.305 283.332 283.37 283.449 282.607 282.627 282.647 282.667 282.687 282.707 282.727
          282.747 282.768 282.788 282.808 282.828 282.849 282.869 282.889 282.91 282.93 282.951 282.972
          282.993 283.015 283.038 283.064 283.097 283.172 282.345 282.364 282.384 282.403 282.423 282.443
          282.463 282.483 282.503 282.523 282.543 282.564 282.584 282.604 282.624 282.645 282.665 282.685
          282.706 282.727 282.747 282.769 282.791 282.814 282.828 282.083 282.101 282.12 282.139 282.159
          282.179 282.198 282.218 282.238 282.258 282.279 282.299 282.319 282.339 282.359 282.379 282.4
          282.42 282.44 282.46 282.48 282.499 282.517 282.531 282.536 281.821 281.838 281.856 281.875
          281.895 281.914 281.934 281.954 281.974 281.994 282.014 282.034 282.054 282.074 282.094 282.114
          282.134 282.154 282.174 282.193 282.212 282.23 282.245 282.256 282.26 281.559 281.576 281.594
          281.612 281.631 281.65 281.67 281.689 281.709 281.729 281.749 281.768 281.788 281.808 281.827
          281.847 281.866 281.885 281.904 281.922 281.94 281.955 281.968 281.977 281.98 281.298 281.315
          281.332 281.35 281.369 281.387 281.406 281.425 281.445 281.464 281.483 281.502 281.521 281.541
          281.559 281.578 281.596 281.614 281.631 281.647 281.662 281.675 281.686 281.692 281.695 281.036
          281.053 281.07 281.088 281.106 281.124 281.143 281.161 281.18 281.199 281.218 281.236 281.255
          281.273 281.292 281.309 281.327 281.343 281.359 281.374 281.387 281.398 281.406 281.412 281.414
          280.774 280.791 280.808 280.825 280.843 280.861 280.879 280.897 280.915 280.934 280.952 280.971
          280.989 281.007 281.024 281.041 281.058 281.073 281.088 281.102 281.113 281.123 281.13 281.135
          281.137 280.512 280.529 280.545 280.562 280.579 280.597 280.615 280.633 280.651 280.669 280.687
          280.705 280.723 280.74 280.757 280.774 280.79 280.805 280.818 280.831 280.842 280.851 280.857
          280.861 280.863 280.25 280.266 280.282 280.299 280.315 280.333 280.35 280.368 280.386 280.404
          280.422 280.44 280.457 280.474 280.491 280.507 280.523 280.537 280.55 280.562 280.572 280.581
          280.587 280.59 280.592 279.989 280.003 280.019 280.035 280.051 280.069 280.086 280.104 280.121
          280.139 280.157 280.175 280.192 280.209 280.225 280.241 280.256 280.27 280.283 280.295 280.305
          280.313 280.318 280.322 280.323 279.727 279.739 279.754 279.77 279.787 279.804 279.821 279.839
          279.857 279.874 279.892 279.91 279.927 279.944 279.96 279.976 279.991 280.005 280.018 280.029
          280.039 280.047 280.053 280.056 280.057
        </DataArray>
        <DataArray type="Float32" Name="mobL" NumberOfComponents="1" format="ascii">
          1523.32 1523.32 1523.33 1523.33 1523.32 1523.33 1523.32 1523.33 1523.32 1523.33 1523.32 1523.33
          1523.32 1523.33 1523.32 1523.33 1523.32 1523.33 1523.32 1523.32 1523.31 1523.32 1523.31 1523.32
          1523.31 1523.32 1523.31 1523.32 1523.31 1523.32 1523.31 1523.32 1523.31 1523.32 1523.31 1523.32
          1523.31 1523.32 1523.31 1523.32 1523.31 1523.32 1523.31 1523.32 1523.31 1523.32 1523.31 1523.32
          1523.31 1523.31 1523.34 1523.34 1523.34 1523.34 1523.34 1523.34 1523.34 1523.34 1523.33 1523.33
          1523.33 1523.33 1523.33 1523.33 1523.33 1523.33 1523.33 1523.33 1523.33 1523.33 1523.33 1523.33
          1523.32 1523.32 1523.32 1523.35 1523.35 1523.35 1523.35 1523.35 1523.35 1523.34 1523.34 1523.34
          1523.34 1523.34 1523.34 1523.34 1523.34 1523.34 1523.34 1523.34 1523.34 1523.34 1523.34 1523.33
          1523.33 1523.33 1517 967.781 1523.36 1523.36 1523.36 1523.36 1523.36 1523.35 1523.35 1523.35
          1523.35 1523.35 1523.35 1523.35 1523.35 1523.35 1523.35 1523.35 1523.35 1523.35 1523.35 1523.34
          1523.34 1523.34 1523.34 1513.31 954.475 1523.37 1523.37 1523.37 1523.36 1523.36 1523.36 1523.36
          1523.36 1523.36 1523.36 1523.36 1523.36 1523.36 1523.36 1523.36 1523.36 1523.36 1523.36 1523.35
          1523.35 1523.35 1523.35 1523.35 1515.29 953.226 1523.38 1523.38 1523.37 1523.37 1523.37 1523.37
          1523.37 1523.37 1523.37 1523.37 1523.37 1523.37 1523.37 1523.37 1523.37 1523.37 1523.37 1523.36
          1523.36 1523.36 1523.36 1523.36 1523.36 1523.36 1477.2 1523.39 1523.38 1523.38 1523.38 1523.38
          1523.38 1523.38 1523.38 1523.38 1523.38 1523.38 1523.38 1523.38 1523.38 1523.38 1523.37 1523.37
          1523.37 1523.37 1523.37 1523.37 1523.37 1523.37 1523.37 1523.37 1523.39 1523.39 1523.39 1523.39
          1523.39 1523.39 1523.39 1523.39 1523.39 1523.39 1523.39 1523.39 1523.39 1523.39 1523.38 1523.38
          1523.38 1523.38 1523.38 1523.38 1523.38 1523.38 1523.38 1523.38 1523.38 1523.4 1523.4 1523.4
          1523.4 1523.4 1523.4 1523.4 1523.4 1523.4 1523.4 1523.4 1523.4 1523.4 1523.39 1523.39
          1523.39 1523.39 1523.39 1523.39 1523.39 1523.39 1523.39 1523.39 1523.39 1523.39 1523.41 1523.41
          1523.41 1523.41 1523.41 1523.41 1523.41 1523.41 1523.41 1523.41 1523.41 1523.4 1523.4 1523.4
          1523.4 1523.4 1523.4 1523.4 1523.4 1523.4 1523.4 1523.4 1523.4 1523.4 1523.4 1523.42
          1523.42 1523.42 1523.42 1523.42 1523.42 1523.42 1523.42 1523.42 1523.42 1523.41 1523.41 1523.41
          1523.41 1523.41 1523.41 1523.41 1523.41 1523.41 1523.41 1523.41 1523.41 1523.41 1523.41 1523.41
          1523.43 1523.43 1523.43 1523.43 1523.43 1523.43 1523.43 1523.43 1523.42 1523.42 1523.42 1523.42
          1523.42 1523.42 1523.42 1523.42 1523.42 1523.42 1523.42 1523.42 1523.42 1523.42 1523.42 1523.42
          1523.42 1523.44 1523.44 1523.44 1523.44 1523.44 1523.44 1523.44 1523.43 1523.43 1523.43 1523.43
          1523.43 1523.43 1523.43 1523.43 1523.43 1523.43 1523.43 1523.43 1523.43 1523.43 1523.43 1523.43
          1523.43 1523.43 1523.45 1523.45 1523.45 1523.45 1523.45 1523.44 1523.44 1523.44 1523.44 1523.44
          1523.44 1523.44 1523.44 1523.44 1523.44 1523.44 1523.44 1523.44 1523.44 1523.44 1523.44 1523.44
          1523.44 1523.44 1523.44 1523.46 1523.46 1523.46 1523.46 1523.45 1523.45 1523.45 1523.45 1523.45
          1523.45 1523.45 1523.45 1523.45 1523.45 1523.45 1523.45 1523.45 1523.45 1523.45 1523.45 1523.45
          1523.45 1523.45 1523.45 1523.45 1523.47 1523.47 1523.46 1523.46 1523.46 1523.46 1523.46 1523.46
          1523.46 1523.46 1523.46 1523.46 1523.46 1523.46 1523.46 1523.46 1523.46 1523.46 1523.46 1523.46
          1523.45 1523.45 1523.45 1523.45 1523.45
        </DataArray>
        <DataArray type="Float32" Name="mobG" NumberOfComponents="1" format="ascii">
          0 0 0 0 0 0 0 0 0 0 0 0
          0 0 0 0 0 0 0 0 0 0 0 0
          0 0 0 0 0 0 0 0 0 0 0 0
          0 0 0 0 0 0 0 0 0 0 0 0
          0 0 0 0 0 0 0 0 0 0 0 0
          0 0 0 0 0 0 0 0 0 0 0 0
          0 0 0 0 0 0 0 0 0 0 0 0
          0 0 0 0 0 0 0 0 0 0 0 0
          0 0 0.000122924 127.513 0 0 0 0 0 0 0 0
          0 0 0 0 0 0 0 0 0 0 0 0
          0 0 0 0.000491127 138.617 0 0 0 0 0 0 0
          0 0 0 0 0 0 0 0 0 0 0 0
          0 0 0 0 0.000254729 139.701 0 0 0 0 0 0
          0 0 0 0 0 0 0 0 0 0 0 0
          0 0 0 0 0 0 0.0490111 0 0 0 0 0
          0 0 0 0 0 0 0 0 0 0 0 0
          0 0 0 0 0 0 0 0 0 0 0 0
          0 0 0 0 0 0 0 0 0 0 0 0
          0 0 0 0 0 0 0 0 0 0 0 0
          0 0 0 0 0 0 0 0 0 0 0 0
          0 0 0 0 0 0 0 0 0 0 0 0
          0 0 0 0 0 0 0 0 0 0 0 0
          0 0 0 0 0 0 0 0 0 0 0 0
          0 0 0 0 0 0 0 0 0 0 0 0
          0 0 0 0 0 0 0 0 0 0 0 0
          0 0 0 0 0 0 0 0 0 0 0 0
          0 0 0 0 0 0 0 0 0 0 0 0
          0 0 0 0 0 0 0 0 0 0 0 0
          0 0 0 0 0 0 0 0 0 0 0 0
          0 0 0 0 0 0 0 0 0 0 0 0
          0 0 0 0 0 0 0 0 0 0 0 0
          0 0 0 0 0 0 0 0 0 0 0 0
          0 0 0 0 0 0 0 0 0 0 0 0
          0 0 0 0 0 0 0 0 0 0 0 0
          0 0 0 0 0 0 0 0 0 0 0 0
          0 0 0 0 0
        </DataArray>
        <DataArray type="Float32" Name="X_l^H2O" NumberOfComponents="1" format="ascii">