<?xml version="1.0"?>
<VTKFile type="UnstructuredGrid" version="0.1" byte_order="LittleEndian">
  <UnstructuredGrid>
    <Piece NumberOfCells="384" NumberOfPoints="425">
      <PointData Scalars="S_l" Vectors="velocity_l">
        <DataArray type="Float32" Name="S_l" NumberOfComponents="1" format="ascii">
          1 1 1 1 1 1 0.995792 0.994687 0.34552 0.327887 0.00192394 0.00194069
          0 0 0 0 0 0 0 0 0 0 0 0
          0 0 0 0 0 0 0 0 0 0 0 0
          0 0 0 0 0 0 0 0 0 0 0 0
          0 0 1 1 1 0.994507 0.319294 0.00188621 0 0 0 0
          0 0 0 0 0 0 0 0 0 0 0 0
          0 0 0 1 1 1 0.994484 0.3156 0.00183188 0 0 0
          0 0 0 0 0 0 0 0 0 0 0 0
          0 0 0 0 1 1 1 0.994485 0.313996 0.00180049 0 0
          0 0 0 0 0 0 0 0 0 0 0 0
          0 0 0 0 0 1 1 1 0.994488 0.313295 0.00178411 0
          0 0 0 0 0 0 0 0 0 0 0 0
          0 0 0 0 0 0 1 1 1 0.99449 0.312981 0.00177574
          0 0 0 0 0 0 0 0 0 0 0 0
          0 0 0 0 0 0 0 1 1 1 0.994492 0.312831
          0.00177125 0 0 0 0 0 0 0 0 0 0 0
          0 0 0 0 0 0 0 0 1 1 1 0.994493
          0.31274 0.0017683 0 0 0 0 0 0 0 0 0 0
          0 0 0 0 0 0 0 0 0 1 1 1
          0.994494 0.312649 0.00176533 0 0 0 0 0 0 0 0 0
          0 0 0 0 0 0 0 0 0 0 1 1
          1 0.994496 0.312494 0.00176078 0 0 0 0 0 0 0 0
          0 0 0 0 0 0 0 0 0 0 0 1
          1 1 0.994498 0.31217 0.00175228 0 0 0 0 0 0 0
          0 0 0 0 0 0 0 0 0 0 0 0
          1 1 1 0.994501 0.311445 0.00173561 0 0 0 0 0 0
          0 0 0 0 0 0 0 0 0 0 0 0
          0 1 1 1 0.994501 0.309794 0.0017038 0 0 0 0 0
          0 0 0 0 0 0 0 0 0 0 0 0
          0 0 1 1 1 0.994482 0.306015 0.00164962 0 0 0 0
          0 0 0 0 0 0 0 0 0 0 0 0
          0 0 0 1 1 1 0.994361 0.297424 0.00160187 0 0 0
          0 0 0 0 0 0 0 0 0 0 0 0
          0 0 0 0 1 1 1 0.992851 0.281155 0.0016215 0 0
          0 0 0 0 0 0 0 0 0 0 0 0
          0 0 0 0 0
        </DataArray>
        <DataArray type="Float32" Name="S_g" NumberOfComponents="1" format="ascii">
          0 0 0 0 0 0 0.00420804 0.00531317 0.65448 0.672113 0.998076 0.998059
          1 1 1 1 1 1 1 1 1 1 1 1
          1 1 1 1 1 1 1 1 1 1 1 1
          1 1 1 1 1 1 1 1 1 1 1 1
          1 1 0 0 0 0.00549335 0.680706 0.998114 1 1 1 1
          1 1 1 1 1 1 1 1 1 1 1 1
          1 1 1 0 0 0 0.00551647 0.6844 0.998168 1 1 1
          1 1 1 1 1 1 1 1 1 1 1 1
          1 1 1 1 0 0 0 0.00551541 0.686004 0.9982 1 1
          1 1 1 1 1 1 1 1 1 1 1 1
          1 1 1 1 1 0 0 0 0.00551204 0.686705 0.998216 1
          1 1 1 1 1 1 1 1 1 1 1 1
          1 1 1 1 1 1 0 0 0 0.00550956 0.687019 0.998224
          1 1 1 1 1 1 1 1 1 1 1 1
          1 1 1 1 1 1 1 0 0 0 0.00550797 0.687169
          0.998229 1 1 1 1 1 1 1 1 1 1 1
          1 1 1 1 1 1 1 1 0 0 0 0.00550684
          0.68726 0.998232 1 1 1 1 1 1 1 1 1 1
          1 1 1 1 1 1 1 1 1 0 0 0
          0.00550576 0.687351 0.998235 1 1 1 1 1 1 1 1 1
          1 1 1 1 1 1 1 1 1 1 0 0
          0 0.00550433 0.687506 0.998239 1 1 1 1 1 1 1 1
          1 1 1 1 1 1 1 1 1 1 1 0
          0 0 0.0055022 0.68783 0.998248 1 1 1 1 1 1 1
          1 1 1 1 1 1 1 1 1 1 1 1
          0 0 0 0.00549947 0.688555 0.998264 1 1 1 1 1 1
          1 1 1 1 1 1 1 1 1 1 1 1
          1 0 0 0 0.00549904 0.690206 0.998296 1 1 1 1 1
          1 1 1 1 1 1 1 1 1 1 1 1
          1 1 0 0 0 0.00551785 0.693985 0.99835 1 1 1 1
          1 1 1 1 1 1 1 1 1 1 1 1
          1 1 1 0 0 0 0.00563864 0.702576 0.998398 1 1 1
          1 1 1 1 1 1 1 1 1 1 1 1
          1 1 1 1 0 0 0 0.00714897 0.718845 0.998379 1 1
          1 1 1 1 1 1 1 1 1 1 1 1
          1 1 1 1 1
        </DataArray>
        <DataArray type="Float32" Name="p_l" NumberOfComponents="1" format="ascii">
          4.2e+06 3.21638e+06 4.2e+06 3.19924e+06 2.21017e+06 2.19091e+06 1.19262e+06 1.17271e+06 190279 192862 166590 167051
          150586 150699 136543 136564 125105 125094 116437 116415 110312 110287 106249 106223
          103692 103666 102148 102122 101245 101219 100728 100703 100438 100413 100277 100253
          100189 100164 100139 100114 100109 100085 100089 100065 100070 100047 100046 100026
          100000 100000 4.2e+06 3.19206e+06 2.18049e+06 1.16399e+06 193246 167596 150930 136647 125114 116409
          110271 106204 103646 102102 101199 100683 100394 100233 100144 100095 100066 100047
          100032 100017 100000 4.2e+06 3.18867e+06 2.17544e+06 1.1598e+06 193080 167738 151049 136705 125132
          116406 110259 106189 103630 102087 101184 100668 100379 100218 100130 100081 100053
          100036 100023 100011 100000 4.2e+06 3.18704e+06 2.17299e+06 1.15771e+06 192797 167672 151040 136707
          125128 116397 110247 106176 103618 102075 101172 100657 100368 100208 100120 100071
          100044 100028 100017 100008 100000 4.2e+06 3.18624e+06 2.17176e+06 1.15664e+06 192536 167538 150967
          136667 125103 116379 110233 106164 103607 102065 101164 100649 100360 100200 100112
          100064 100038 100022 100013 100006 100000 4.2e+06 3.18583e+06 2.17113e+06 1.15606e+06 192327 167401
          150875 136608 125067 116356 110217 106153 103599 102058 101157 100643 100354 100194
          100107 100059 100033 100019 100010 100005 100000 4.2e+06 3.1856e+06 2.17077e+06 1.15571e+06 192162
          167278 150783 136545 125025 116329 110200 106142 103590 102052 101152 100638 100350
          100190 100103 100056 100030 100016 100009 100004 100000 4.2e+06 3.18544e+06 2.17051e+06 1.15545e+06
          192021 167165 150696 136482 124983 116302 110183 106130 103583 102046 101147 100634
          100346 100187 100100 100053 100028 100014 100007 100003 100000 4.2e+06 3.18528e+06 2.17025e+06
          1.1552e+06 191879 167053 150609 136420 124941 116275 110165 106119 103575 102040 101142
          100630 100342 100183 100097 100050 100025 100012 100006 100002 100000 4.2e+06 3.18504e+06
          2.16987e+06 1.15483e+06 191712 166929 150517 136356 124899 116248 110148 106108 103567 102034
          101137 100625 100338 100179 100093 100047 100022 100010 100004 100001 100000 4.2e+06
          3.18461e+06 2.1692e+06 1.15422e+06 191498 166788 150423 136297 124862 116224 110132 106096 103558
          102026 101131 100619 100332 100174 100088 100042 100018 100006 100001 99999.9 100000
          4.2e+06 3.18376e+06 2.16791e+06 1.15308e+06 191222 166647 150346 136255 124837 116206 110118 106084
          103548 102017 101122 100611 100324 100166 100080 100035 100012 100001 99997.4 99997.8
          100000 4.2e+06 3.18204e+06 2.16531e+06 1.15085e+06 190909 166569 150332 136254 124832 116196 110106
          106071 103535 102005 101110 100599 100313 100155 100070 100025 100002 99993.1 99991.4
          99994.5 100000 4.2e+06 3.17851e+06 2.15997e+06 1.14634e+06 190703 166708 150454 136313 124848 116192
          110093 106056 103519 101989 101095 100584 100298 100141 100056 100011 99989.3 99981.2
          99982.1 99989.2 100000 4.2e+06 3.17114e+06 2.14899e+06 1.13687e+06 191111 167312 150703 136400 124868
          116185 110077 106036 103499 101969 101075 100564 100279 100121 100036 99992 99970.9
          99964 99967.3 99979.9 100000 4.2e+06 3.15391e+06 2.12938e+06 1.11411e+06 194377 167857 150832 136423
          124857 116164 110052 106011 103473 101944 101050 100539 100254 100096 100011 99967.3
          99946.5 99940.1 99944.4 99960.1 100000
        </DataArray>
        <DataArray type="Float32" Name="p_g" NumberOfComponents="1" format="ascii">
          4.2e+06 3.21638e+06 4.2e+06 3.19924e+06 2.21017e+06 2.19091e+06 1.19262e+06 1.17271e+06 190279 192862 166590 167051
          150586 150699 136543 136564 125105 125094 116437 116415 110312 110287 106249 106223
          103692 103666 102148 102122 101245 101219 100728 100703 100438 100413 100277 100253
          100189 100164 100139 100114 100109 100085 100089 100065 100070 100047 100046 100026
          100000 100000 4.2e+06 3.19206e+06 2.18049e+06 1.16399e+06 193246 167596 150930 136647 125114 116409
          110271 106204 103646 102102 101199 100683 100394 100233 100144 100095 100066 100047
          100032 100017 100000 4.2e+06 3.18867e+06 2.17544e+06 1.1598e+06 193080 167738 151049 136705 125132
          116406 110259 106189 103630 102087 101184 100668 100379 100218 100130 100081 100053
          100036 100023 100011 100000 4.2e+06 3.18704e+06 2.17299e+06 1.15771e+06 192797 167672 151040 136707
          125128 116397 110247 106176 103618 102075 101172 100657 100368 100208 100120 100071
          100044 100028 100017 100008 100000 4.2e+06 3.18624e+06 2.17176e+06 1.15664e+06 192536 167538 150967
          136667 125103 116379 110233 106164 103607 102065 101164 100649 100360 100200 100112
          100064 100038 100022 100013 100006 100000 4.2e+06 3.18583e+06 2.17113e+06 1.15606e+06 192327 167401
          150875 136608 125067 116356 110217 106153 103599 102058 101157 100643 100354 100194
          100107 100059 100033 100019 100010 100005 100000 4.2e+06 3.1856e+06 2.17077e+06 1.15571e+06 192162
          167278 150783 136545 125025 116329 110200 106142 103590 102052 101152 100638 100350
          100190 100103 100056 100030 100016 100009 100004 100000 4.2e+06 3.18544e+06 2.17051e+06 1.15545e+06
          192021 167165 150696 136482 124983 116302 110183 106130 103583 102046 101147 100634
          100346 100187 100100 100053 100028 100014 100007 100003 100000 4.2e+06 3.18528e+06 2.17025e+06
          1.1552e+06 191879 167053 150609 136420 124941 116275 110165 106119 103575 102040 101142
          100630 100342 100183 100097 100050 100025 100012 100006 100002 100000 4.2e+06 3.18504e+06
          2.16987e+06 1.15483e+06 191712 166929 150517 136356 124899 116248 110148 106108 103567 102034
          101137 100625 100338 100179 100093 100047 100022 100010 100004 100001 100000 4.2e+06
          3.18461e+06 2.1692e+06 1.15422e+06 191498 166788 150423 136297 124862 116224 110132 106096 103558
          102026 101131 100619 100332 100174 100088 100042 100018 100006 100001 99999.9 100000
          4.2e+06 3.18376e+06 2.16791e+06 1.15308e+06 191222 166647 150346 136255 124837 116206 110118 106084
          103548 102017 101122 100611 100324 100166 100080 100035 100012 100001 99997.4 99997.8
          100000 4.2e+06 3.18204e+06 2.16531e+06 1.15085e+06 190909 166569 150332 136254 124832 116196 110106
          106071 103535 102005 101110 100599 100313 100155 100070 100025 100002 99993.1 99991.4
          99994.5 100000 4.2e+06 3.17851e+06 2.15997e+06 1.14634e+06 190703 166708 150454 136313 124848 116192
          110093 106056 103519 101989 101095 100584 100298 100141 100056 100011 99989.3 99981.2
          99982.1 99989.2 100000 4.2e+06 3.17114e+06 2.14899e+06 1.13687e+06 191111 167312 150703 136400 124868
          116185 110077 106036 103499 101969 101075 100564 100279 100121 100036 99992 99970.9
          99964 99967.3 99979.9 100000 4.2e+06 3.15391e+06 2.12938e+06 1.11411e+06 194377 167857 150832 136423
          124857 116164 110052 106011 103473 101944 101050 100539 100254 100096 100011 99967.3
          99946.5 99940.1 99944.4 99960.1 100000
        </DataArray>
        <DataArray type="Float32" Name="rho_l" NumberOfComponents="1" format="ascii">
          998.893 998.45 998.893 998.443 997.997 997.989 997.539 997.531 997.088 997.089 997.078 997.078
          997.07 997.07 997.064 997.064 997.059 997.059 997.055 997.055 997.052 997.052 997.05 997.05
          997.049 997.049 997.049 997.049 997.048 997.048 997.048 997.048 997.048 997.048 997.048 997.048
          997.048 997.048 997.048 997.048 997.048 997.048 997.048 997.048 997.048 997.048 997.048 997.048
          997.048 997.048 998.893 998.439 997.984 997.527 997.09 997.078 997.071 997.064 997.059 997.055
          997.052 997.05 997.049 997.049 997.048 997.048 997.048 997.048 997.048 997.048 997.048 997.048
          997.048 997.048 997.048 998.893 998.438 997.982 997.525 997.09 997.078 997.071 997.064 997.059
          997.055 997.052 997.05 997.049 997.049 997.048 997.048 997.048 997.048 997.048 997.048 997.048
          997.048 997.048 997.048 997.048 998.893 998.437 997.981 997.524 997.089 997.078 997.071 997.064
          997.059 997.055 997.052 997.05 997.049 997.049 997.048 997.048 997.048 997.048 997.048 997.048
          997.048 997.048 997.048 997.048 997.048 998.893 998.437 997.98 997.523 997.089 997.078 997.071
          997.064 997.059 997.055 997.052 997.05 997.049 997.049 997.048 997.048 997.048 997.048 997.048
          997.048 997.048 997.048 997.048 997.048 997.048 998.893 998.437 997.98 997.523 997.089 997.078
          997.071 997.064 997.059 997.055 997.052 997.05 997.049 997.049 997.048 997.048 997.048 997.048
          997.048 997.048 997.048 997.048 997.048 997.048 997.048 998.893 998.437 997.98 997.523 997.089
          997.078 997.071 997.064 997.059 997.055 997.052 997.05 997.049 997.049 997.048 997.048 997.048
          997.048 997.048 997.048 997.048 997.048 997.048 997.048 997.048 998.893 998.436 997.98 997.523
          997.089 997.078 997.07 997.064 997.059 997.055 997.052 997.05 997.049 997.049 997.048 997.048
          997.048 997.048 997.048 997.048 997.048 997.048 997.048 997.048 997.048 998.893 998.436 997.979
          997.523 997.089 997.078 997.07 997.064 997.059 997.055 997.052 997.05 997.049 997.049 997.048
          997.048 997.048 997.048 997.048 997.048 997.048 997.048 997.048 997.048 997.048 998.893 998.436
          997.979 997.522 997.089 997.078 997.07 997.064 997.059 997.055 997.052 997.05 997.049 997.049
          997.048 997.048 997.048 997.048 997.048 997.048 997.048 997.048 997.048 997.048 997.048 998.893
          998.436 997.979 997.522 997.089 997.078 997.07 997.064 997.059 997.055 997.052 997.05 997.049
          997.049 997.048 997.048 997.048 997.048 997.048 997.048 997.048 997.048 997.048 997.048 997.048
          998.893 998.436 997.978 997.522 997.089 997.078 997.07 997.064 997.059 997.055 997.052 997.05
          997.049 997.049 997.048 997.048 997.048 997.048 997.048 997.048 997.048 997.048 997.048 997.048
          997.048 998.893 998.435 997.977 997.521 997.089 997.078 997.07 997.064 997.059 997.055 997.052
          997.05 997.049 997.049 997.048 997.048 997.048 997.048 997.048 997.048 997.048 997.048 997.048
          997.048 997.048 998.893 998.433 997.975 997.519 997.089 997.078 997.07 997.064 997.059 997.055
          997.052 997.05 997.049 997.049 997.048 997.048 997.048 997.048 997.048 997.048 997.048 997.048
          997.048 997.048 997.048 998.893 998.43 997.97 997.514 997.089 997.078 997.07 997.064 997.059
          997.055 997.052 997.05 997.049 997.049 997.048 997.048 997.048 997.048 997.048 997.048 997.048
          997.048 997.048 997.048 997.048 998.893 998.422 997.961 997.504 997.09 997.078 997.071 997.064
          997.059 997.055 997.052 997.05 997.049 997.049 997.048 997.048 997.048 997.048 997.048 997.048
          997.048 997.048 997.048 997.048 997.048
        </DataArray>
        <DataArray type="Float32" Name="rho_g" NumberOfComponents="1" format="ascii">
          30.5224 36.2548 30.5224 36.0614 24.952 24.7351 13.4644 13.2393 2.13746 2.16665 1.86976 1.87497
          1.69208 1.69334 1.53628 1.5365 1.40843 1.4083 1.31106 1.31081 1.24213 1.24184 1.19638 1.19609
          1.16758 1.16729 1.1502 1.14991 1.14003 1.13974 1.13421 1.13393 1.13095 1.13067 1.12914 1.12886
          1.12814 1.12786 1.12758 1.1273 1.12724 1.12697 1.12701 1.12674 1.1268 1.12654 1.12653 1.1263
          1.12601 1.12601 30.5224 35.9795 24.6173 13.1409 2.17099 1.88113 1.69592 1.53743 1.40852 1.31074
          1.24166 1.19587 1.16707 1.14968 1.13952 1.13371 1.13045 1.12864 1.12764 1.12708 1.12676 1.12655
          1.12637 1.1262 1.12601 30.5224 35.941 24.5602 13.0935 2.16911 1.88274 1.69727 1.53808 1.40872
          1.31071 1.24153 1.1957 1.16689 1.14951 1.13934 1.13354 1.13028 1.12847 1.12748 1.12693 1.12661
          1.12641 1.12627 1.12614 1.12601 30.5224 35.9225 24.5325 13.0699 2.16591 1.88198 1.69717 1.5381
          1.40868 1.3106 1.24139 1.19556 1.16675 1.14937 1.13921 1.13341 1.13015 1.12835 1.12736 1.12681
          1.12651 1.12633 1.1262 1.1261 1.12601 30.5224 35.9134 24.5187 13.0578 2.16296 1.88048 1.69635
          1.53765 1.40841 1.31041 1.24124 1.19542 1.16663 1.14927 1.13912 1.13332 1.13006 1.12826 1.12728
          1.12674 1.12644 1.12627 1.12616 1.12608 1.12601 30.5224 35.9087 24.5115 13.0512 2.1606 1.87892
          1.69531 1.537 1.40799 1.31014 1.24106 1.19529 1.16653 1.14919 1.13904 1.13325 1.13 1.1282
          1.12722 1.12668 1.12639 1.12623 1.12613 1.12606 1.12601 30.5224 35.9061 24.5074 13.0473 2.15874
          1.87753 1.69429 1.53629 1.40753 1.30985 1.24087 1.19517 1.16644 1.14911 1.13898 1.1332 1.12995
          1.12816 1.12717 1.12664 1.12635 1.1262 1.12611 1.12605 1.12601 30.5224 35.9043 24.5045 13.0444
          2.15714 1.87626 1.69331 1.53558 1.40705 1.30954 1.24067 1.19504 1.16636 1.14905 1.13893 1.13315
          1.12991 1.12812 1.12714 1.12661 1.12633 1.12618 1.12609 1.12605 1.12601 30.5224 35.9025 24.5016
          13.0415 2.15554 1.87499 1.69232 1.53488 1.40658 1.30923 1.24047 1.19491 1.16627 1.14899 1.13888
          1.1331 1.12987 1.12808 1.1271 1.12658 1.1263 1.12615 1.12608 1.12604 1.12601 30.5224 35.8997
          24.4973 13.0374 2.15366 1.87359 1.69129 1.53417 1.40611 1.30893 1.24028 1.19479 1.16618 1.14891
          1.13882 1.13305 1.12982 1.12803 1.12706 1.12654 1.12626 1.12612 1.12606 1.12603 1.12601 30.5224
          35.8948 24.4897 13.0304 2.15123 1.872 1.69024 1.5335 1.40569 1.30866 1.2401 1.19466 1.16608
          1.14883 1.13874 1.13298 1.12975 1.12797 1.127 1.12648 1.12622 1.12608 1.12603 1.12601 1.12601
          30.5224 35.8852 24.4751 13.0176 2.14811 1.87041 1.68937 1.53303 1.40541 1.30846 1.23994 1.19452
          1.16596 1.14873 1.13865 1.13289 1.12966 1.12788 1.12692 1.12641 1.12614 1.12602 1.12598 1.12599
          1.12601 30.5224 35.8657 24.4457 12.9924 2.14458 1.86952 1.68923 1.53303 1.40535 1.30835 1.2398
          1.19438 1.16582 1.14859 1.13852 1.13276 1.12954 1.12776 1.1268 1.12629 1.12604 1.12594 1.12592
          1.12595 1.12601 30.5224 35.8255 24.3854 12.9414 2.14225 1.87109 1.6906 1.53369 1.40554 1.3083
          1.23966 1.19421 1.16564 1.14841 1.13834 1.13259 1.12937 1.1276 1.12664 1.12614 1.12589 1.1258
          1.12581 1.12589 1.12601 30.5224 35.7415 24.2613 12.8344 2.14686 1.87792 1.69339 1.53465 1.40576
          1.30822 1.23948 1.19398 1.16541 1.14819 1.13812 1.13237 1.12915 1.12738 1.12642 1.12592 1.12569
          1.12561 1.12565 1.12579 1.12601 30.5224 35.547 24.0402 12.5772 2.18377 1.88408 1.69482 1.5349
          1.40563 1.30798 1.23919 1.19369 1.16512 1.1479 1.13783 1.13209 1.12887 1.1271 1.12614 1.12565
          1.12541 1.12534 1.12539 1.12556 1.12601
        </DataArray>
        <DataArray type="Float32" Name="lambda_l" NumberOfComponents="1" format="ascii">
          1124.29 1124.11 1124.29 1124.11 1123.94 1123.93 1123.58 1123.47 378.577 357.665 0.0371465 0.0377978
          0 0 0 0 0 0 0 0 0 0 0 0
          0 0 0 0 0 0 0 0 0 0 0 0
          0 0 0 0 0 0 0 0 0 0 0 0
          0 0 1124.29 1124.11 1123.93 1123.45 347.474 0.0357006 0 0 0 0
          0 0 0 0 0 0 0 0 0 0 0 0
          0 0 0 1124.29 1124.11 1123.93 1123.44 343.092 0.0336689 0 0 0
          0 0 0 0 0 0 0 0 0 0 0 0
          0 0 0 0 1124.29 1124.11 1123.93 1123.44 341.19 0.0325226 0 0
          0 0 0 0 0 0 0 0 0 0 0 0
          0 0 0 0 0 1124.29 1124.11 1123.93 1123.44 340.358 0.0319322 0
          0 0 0 0 0 0 0 0 0 0 0 0
          0 0 0 0 0 0 1124.29 1124.11 1123.93 1123.44 339.986 0.0316326
          0 0 0 0 0 0 0 0 0 0 0 0
          0 0 0 0 0 0 0 1124.29 1124.11 1123.93 1123.44 339.808
          0.0314723 0 0 0 0 0 0 0 0 0 0 0
          0 0 0 0 0 0 0 0 1124.29 1124.11 1123.93 1123.44
          339.701 0.0313673 0 0 0 0 0 0 0 0 0 0
          0 0 0 0 0 0 0 0 0 1124.29 1124.11 1123.93
          1123.44 339.592 0.031262 0 0 0 0 0 0 0 0 0
          0 0 0 0 0 0 0 0 0 0 1124.29 1124.11
          1123.93 1123.44 339.409 0.0311007 0 0 0 0 0 0 0 0
          0 0 0 0 0 0 0 0 0 0 0 1124.29
          1124.11 1123.93 1123.45 339.024 0.0308003 0 0 0 0 0 0 0
          0 0 0 0 0 0 0 0 0 0 0 0
          1124.29 1124.11 1123.93 1123.45 338.165 0.0302161 0 0 0 0 0 0
          0 0 0 0 0 0 0 0 0 0 0 0
          0 1124.29 1124.11 1123.93 1123.44 336.206 0.0291161 0 0 0 0 0
          0 0 0 0 0 0 0 0 0 0 0 0
          0 0 1124.29 1124.11 1123.93 1123.44 331.725 0.0272901 0 0 0 0
          0 0 0 0 0 0 0 0 0 0 0 0
          0 0 0 1124.29 1124.1 1123.93 1123.43 321.536 0.0257301 0 0 0
          0 0 0 0 0 0 0 0 0 0 0 0
          0 0 0 0 1124.29 1124.1 1123.92 1123.22 302.241 0.0263657 0 0
          0 0 0 0 0 0 0 0 0 0 0 0
          0 0 0 0 0
        </DataArray>
        <DataArray type="Float32" Name="lambda_g" NumberOfComponents="1" format="ascii">
          0 0 0 0 0 0 9.02594 14.4287 37626.6 38682.8 56744.9 56744.8
          56746.7 56746.7 56746.7 56746.7 56746.7 56746.7 56746.7 56746.7 56746.7 56746.7 56746.7 56746.7
          56746.7 56746.7 56746.7 56746.7 56746.7 56746.7 56746.7 56746.7 56746.7 56746.7 56746.7 56746.7
          56746.7 56746.7 56746.7 56746.7 56746.7 56746.7 56746.7 56746.7 56746.7 56746.7 56746.7 56746.7
          56746.7 56746.7 0 0 0 15.4307 39197.5 56744.9 56746.7 56746.7 56746.7 56746.7
          56746.7 56746.7 56746.7 56746.7 56746.7 56746.7 56746.7 56746.7 56746.7 56746.7 56746.7 56746.7
          56746.7 56746.7 56746.7 0 0 0 15.5618 39418.8 56745 56746.7 56746.7 56746.7
          56746.7 56746.7 56746.7 56746.7 56746.7 56746.7 56746.7 56746.7 56746.7 56746.7 56746.7 56746.7
          56746.7 56746.7 56746.7 56746.7 0 0 0 15.5558 39514.9 56745.1 56746.7 56746.7
          56746.7 56746.7 56746.7 56746.7 56746.7 56746.7 56746.7 56746.7 56746.7 56746.7 56746.7 56746.7
          56746.7 56746.7 56746.7 56746.7 56746.7 0 0 0 15.5366 39556.9 56745.1 56746.7
          56746.7 56746.7 56746.7 56746.7 56746.7 56746.7 56746.7 56746.7 56746.7 56746.7 56746.7 56746.7
          56746.7 56746.7 56746.7 56746.7 56746.7 56746.7 0 0 0 15.5226 39575.7 56745.1
          56746.7 56746.7 56746.7 56746.7 56746.7 56746.7 56746.7 56746.7 56746.7 56746.7 56746.7 56746.7
          56746.7 56746.7 56746.7 56746.7 56746.7 56746.7 56746.7 0 0 0 15.5135 39584.7
          56745.1 56746.7 56746.7 56746.7 56746.7 56746.7 56746.7 56746.7 56746.7 56746.7 56746.7 56746.7
          56746.7 56746.7 56746.7 56746.7 56746.7 56746.7 56746.7 56746.7 0 0 0 15.5071
          39590.1 56745.2 56746.7 56746.7 56746.7 56746.7 56746.7 56746.7 56746.7 56746.7 56746.7 56746.7
          56746.7 56746.7 56746.7 56746.7 56746.7 56746.7 56746.7 56746.7 56746.7 0 0 0
          15.501 39595.6 56745.2 56746.7 56746.7 56746.7 56746.7 56746.7 56746.7 56746.7 56746.7 56746.7
          56746.7 56746.7 56746.7 56746.7 56746.7 56746.7 56746.7 56746.7 56746.7 56746.7 0 0
          0 15.4929 39604.8 56745.2 56746.7 56746.7 56746.7 56746.7 56746.7 56746.7 56746.7 56746.7
          56746.7 56746.7 56746.7 56746.7 56746.7 56746.7 56746.7 56746.7 56746.7 56746.7 56746.7 0
          0 0 15.4808 39624.3 56745.2 56746.7 56746.7 56746.7 56746.7 56746.7 56746.7 56746.7
          56746.7 56746.7 56746.7 56746.7 56746.7 56746.7 56746.7 56746.7 56746.7 56746.7 56746.7 56746.7
          0 0 0 15.4654 39667.7 56745.2 56746.7 56746.7 56746.7 56746.7 56746.7 56746.7
          56746.7 56746.7 56746.7 56746.7 56746.7 56746.7 56746.7 56746.7 56746.7 56746.7 56746.7 56746.7
          56746.7 0 0 0 15.4629 39766.6 56745.3 56746.7 56746.7 56746.7 56746.7 56746.7
          56746.7 56746.7 56746.7 56746.7 56746.7 56746.7 56746.7 56746.7 56746.7 56746.7 56746.7 56746.7
          56746.7 56746.7 0 0 0 15.5696 39992.9 56745.4 56746.7 56746.7 56746.7 56746.7
          56746.7 56746.7 56746.7 56746.7 56746.7 56746.7 56746.7 56746.7 56746.7 56746.7 56746.7 56746.7
          56746.7 56746.7 56746.7 0 0 0 16.2636 40507.5 56745.4 56746.7 56746.7 56746.7
          56746.7 56746.7 56746.7 56746.7 56746.7 56746.7 56746.7 56746.7 56746.7 56746.7 56746.7 56746.7
          56746.7 56746.7 56746.7 56746.7 0 0 0 26.2403 41482 56745.4 56746.7 56746.7
          56746.7 56746.7 56746.7 56746.7 56746.7 56746.7 56746.7 56746.7 56746.7 56746.7 56746.7 56746.7
          56746.7 56746.7 56746.7 56746.7 56746.7
        </DataArray>
        <DataArray type="Float32" Name="porosity" NumberOfComponents="1" format="ascii">
          0.3 0.3 0.3 0.3 0.3 0.3 0.3 0.3 0.3 0.3 0.3 0.3
          0.3 0.3 0.3 0.3 0.3 0.3 0.3 0.3 0.3 0.3 0.3 0.3
          0.3 0.3 0.3 0.3 0.3 0.3 0.3 0.3 0.3 0.3 0.3 0.3
          0.3 0.3 0.3 0.3 0.3 0.3 0.3 0.3 0.3 0.3 0.3 0.3
          0.3 0.3 0.3 0.3 0.3 0.3 0.3 0.3 0.3 0.3 0.3 0.3
          0.3 0.3 0.3 0.3 0.3 0.3 0.3 0.3 0.3 0.3 0.3 0.3
          0.3 0.3 0.3 0.3 0.3 0.3 0.3 0.3 0.3 0.3 0.3 0.3
          0.3 0.3 0.3 0.3 0.3 0.3 0.3 0.3 0.3 0.3 0.3 0.3
          0.3 0.3 0.3 0.3 0.3 0.3 0.3 0.3 0.3 0.3 0.3 0.3
          0.3 0.3 0.3 0.3 0.3 0.3 0.3 0.3 0.3 0.3 0.3 0.3
          0.3 0.3 0.3 0.3 0.3 0.3 0.3 0.3 0.3 0.3 0.3 0.3
          0.3 0.3 0.3 0.3 0.3 0.3 0.3 0.3 0.3 0.3 0.3 0.3
          0.3 0.3 0.3 0.3 0.3 0.3 0.3 0.3 0.3 0.3 0.3 0.3
          0.3 0.3 0.3 0.3 0.3 0.3 0.3 0.3 0.3 0.3 0.3 0.3
          0.3 0.3 0.3 0.3 0.3 0.3 0.3 0.3 0.3 0.3 0.3 0.3
          0.3 0.3 0.3 0.3 0.3 0.3 0.3 0.3 0.3 0.3 0.3 0.3
          0.3 0.3 0.3 0.3 0.3 0.3 0.3 0.3 0.3 0.3 0.3 0.3
          0.3 0.3 0.3 0.3 0.3 0.3 0.3 0.3 0.3 0.3 0.3 0.3
          0.3 0.3 0.3 0.3 0.3 0.3 0.3 0.3 0.3 0.3 0.3 0.3
          0.3 0.3 0.3 0.3 0.3 0.3 0.3 0.3 0.3 0.3 0.3 0.3
          0.3 0.3 0.3 0.3 0.3 0.3 0.3 0.3 0.3 0.3 0.3 0.3
          0.3 0.3 0.3 0.3 0.3 0.3 0.3 0.3 0.3 0.3 0.3 0.3
          0.3 0.3 0.3 0.3 0.3 0.3 0.3 0.3 0.3 0.3 0.3 0.3
          0.3 0.3 0.3 0.3 0.3 0.3 0.3 0.3 0.3 0.3 0.3 0.3
          0.3 0.3 0.3 0.3 0.3 0.3 0.3 0.3 0.3 0.3 0.3 0.3
          0.3 0.3 0.3 0.3 0.3 0.3 0.3 0.3 0.3 0.3 0.3 0.3
          0.3 0.3 0.3 0.3 0.3 0.3 0.3 0.3 0.3 0.3 0.3 0.3
          0.3 0.3 0.3 0.3 0.3 0.3 0.3 0.3 0.3 0.3 0.3 0.3
          0.3 0.3 0.3 0.3 0.3 0.3 0.3 0.3 0.3 0.3 0.3 0.3
          0.3 0.3 0.3 0.3 0.3 0.3 0.3 0.3 0.3 0.3 0.3 0.3
          0.3 0.3 0.3 0.3 0.3 0.3 0.3 0.3 0.3 0.3 0.3 0.3
          0.3 0.3 0.3 0.3 0.3 0.3 0.3 0.3 0.3 0.3 0.3 0.3
          0.3 0.3 0.3 0.3 0.3 0.3 0.3 0.3 0.3 0.3 0.3 0.3
          0.3 0.3 0.3 0.3 0.3 0.3 0.3 0.3 0.3 0.3 0.3 0.3
          0.3 0.3 0.3 0.3 0.3 0.3 0.3 0.3 0.3 0.3 0.3 0.3
          0.3 0.3 0.3 0.3 0.3
        </DataArray>
        <DataArray type="Float32" Name="x_l^H2O" NumberOfComponents="1" format="ascii">
          1 0.999948 1 0.999949 0.999864 0.999861 0.999862 0.999864 0.999978 0.999978 0.999981 0.999981
          0.751612 0.753319 0.525686 0.526551 0.41584 0.416011 0.370341 0.370302 0.348276 0.3482 0.33521 0.335129
          0.32713 0.327049 0.322259 0.322179 0.319409 0.319329 0.31778 0.317701 0.316866 0.316787 0.316358 0.316279
          0.316078 0.315999 0.315921 0.315843 0.315827 0.31575 0.315762 0.315687 0.315703 0.315631 0.315627 0.315564
          0.315483 0.315483 1 0.999949 0.999862 0.999865 0.999978 0.999981 0.755129 0.527762 0.416339 0.370323
          0.348152 0.335068 0.326985 0.322115 0.319266 0.317638 0.316725 0.316218 0.315938 0.315783 0.315692 0.315632
          0.315584 0.315535 0.315483 1 0.999949 0.999862 0.999866 0.999978 0.999981 0.755486 0.528188 0.416482
          0.370327 0.348116 0.33502 0.326935 0.322065 0.319218 0.317591 0.316677 0.316171 0.315893 0.315739 0.31565
          0.315595 0.315554 0.315518 0.315483 1 0.999949 0.999862 0.999866 0.999978 0.999981 0.755074 0.528012
          0.416429 0.370292 0.348078 0.33498 0.326896 0.322028 0.319181 0.317555 0.316643 0.316137 0.31586 0.315707
          0.315621 0.31557 0.315535 0.315508 0.315483 1 0.999949 0.999862 0.999866 0.999978 0.999981 0.754505
          0.527619 0.416268 0.370223 0.348032 0.334943 0.326864 0.321998 0.319154 0.317529 0.316618 0.316113 0.315837
          0.315685 0.315602 0.315553 0.315523 0.315501 0.315483 1 0.999949 0.999862 0.999866 0.999978 0.999981
          0.753986 0.527205 0.416072 0.370134 0.347981 0.334907 0.326836 0.321975 0.319133 0.31751 0.316599 0.316096
          0.31582 0.31567 0.315588 0.315542 0.315515 0.315497 0.315483 1 0.999949 0.999862 0.999866 0.999978
          0.999981 0.753548 0.526828 0.415873 0.370037 0.347926 0.334871 0.32681 0.321955 0.319116 0.317495 0.316586
          0.316083 0.315808 0.315659 0.315578 0.315534 0.315509 0.315494 0.315483 1 0.999949 0.999862 0.999866
          0.999978 0.999981 0.75316 0.526483 0.415681 0.369938 0.347869 0.334836 0.326786 0.321937 0.319102 0.317482
          0.316574 0.316072 0.315798 0.31565 0.31557 0.315528 0.315505 0.315492 0.315483 1 0.999949 0.999862
          0.999866 0.999978 0.999981 0.752771 0.526138 0.415489 0.36984 0.347813 0.3348 0.326762 0.321919 0.319087
          0.317469 0.316562 0.316061 0.315788 0.315641 0.315562 0.315522 0.3155 0.315489 0.315483 1 0.999949
          0.999862 0.999867 0.999978 0.999981 0.752328 0.525762 0.415291 0.369743 0.347758 0.334764 0.326736 0.321899
          0.31907 0.317454 0.316549 0.316048 0.315776 0.31563 0.315553 0.315514 0.315495 0.315486 0.315483 1
          0.99995 0.999862 0.999867 0.999978 0.999981 0.751797 0.525346 0.415095 0.369654 0.347706 0.334728 0.326708
          0.321875 0.319049 0.317435 0.31653 0.316031 0.31576 0.315614 0.315539 0.315502 0.315487 0.315482 0.315483
          1 0.99995 0.999862 0.999867 0.999978 0.999981 0.751206 0.524947 0.414932 0.369583 0.34766 0.33469
          0.326675 0.321846 0.319022 0.317409 0.316505 0.316007 0.315736 0.315593 0.315519 0.315486 0.315474 0.315476
          0.315483 1 0.99995 0.999863 0.999867 0.999978 0.999981 0.750778 0.524765 0.414875 0.369545 0.34762
          0.33465 0.326636 0.321808 0.318985 0.317374 0.316471 0.315973 0.315703 0.315561 0.31549 0.315461 0.315456
          0.315465 0.315483 1 0.99995 0.999863 0.999868 0.999978 0.999981 0.751198 0.525194 0.415011 0.369546