<?xml version="1.0"?>
<VTKFile type="UnstructuredGrid" version="0.1" byte_order="LittleEndian">
  <UnstructuredGrid>
    <Piece NumberOfCells="384" NumberOfPoints="425">
      <PointData Scalars="S_l">
        <DataArray type="Float32" Name="S_l" NumberOfComponents="1" format="ascii">
          0 0 0 0 0 0 0 0 0 0 0 0
          0 0 0 0 0 0 0 0 0 0 0 0
          0 0 0 0 0 0 0 0 0 0 0 0
          0 0 0 0 0 0 0 0 0.00699368 0.00531564 0.640073 0.553527
          1 1 0 0 0 0 0 0 0 0 0 0
          0 0 0 0 0 0 0 0 0 0 0 0
          0.00460315 0.557783 1 0 0 0 0 0 0 0 0 0
          0 0 0 0 0 0 0 0 0 0 0 0
          0 0.00247033 0.56065 1 0 0 0 0 0 0 0 0
          0 0 0 0 0 0 0 0 0 0 0 0
          0 0 0 0.474175 1 0 0 0 0 0 0 0
          0 0 0 0 0 0 0 0 0 0 0 0
          0 0 0 0 0.00774225 0.291858 0 0 0 0 0 0
          0 0 0 0 0 0 0 0 0 0 0 0
          0 0 0 0 0 0 0 0 0 0 0 0
          0 0 0 0 0 0 0 0 0 0 0 0
          0 0 0 0 0 0 0 0 0 0 0 0
          0 0 0 0 0 0 0 0 0 0 0 0
          0 0 0 0 0 0 0 0 0 0 0 0
          0 0 0 0 0 0 0 0 0 0 0 0
          0 0 0 0 0 0 0 0 0 0 0 0
          0 0 0 0 0 0 0 0 0 0 0 0
          0 0 0 0 0 0 0 0 0 0 0 0
          0 0 0 0 0 0 0 0 0 0 0 0
          0 0 0 0 0 0 0 0 0 0 0 0
          0 0 0 0 0 0 0 0 0 0 0 0
          0 0 0 0 0 0 0 0 0 0 0 0
          0 0 0 0 0 0 0 0 0 0 0 0
          0 0 0 0 0 0 0 0 0 0 0 0
          0 0 0 0 0 0 0 0 0 0 0 0
          0 0 0 0 0 0 0 0 0 0 0 0
          0 0 0 0 0 0 0 0 0 0 0 0
          0 0 0 0 0 0 0 0 0 0 0 0
          0 0 0 0 0 0 0 0 0 0 0 0
          0 0 0 0 0 0 0 0 0 0 0 0
          0 0 0 0 0
        </DataArray>
        <DataArray type="Float32" Name="S_g" NumberOfComponents="1" format="ascii">
          1 1 1 1 1 1 1 1 1 1 1 1
          1 1 1 1 1 1 1 1 1 1 1 1
          1 1 1 1 1 1 1 1 1 1 1 1
          1 1 1 1 1 1 1 1 0.993006 0.994684 0.359927 0.446473
          0 0 1 1 1 1 1 1 1 1 1 1
          1 1 1 1 1 1 1 1 1 1 1 1
          0.995397 0.442217 0 1 1 1 1 1 1 1 1 1
          1 1 1 1 1 1 1 1 1 1 1 1
          1 0.99753 0.43935 0 1 1 1 1 1 1 1 1
          1 1 1 1 1 1 1 1 1 1 1 1
          1 1 1 0.525825 0 1 1 1 1 1 1 1
          1 1 1 1 1 1 1 1 1 1 1 1
          1 1 1 1 0.992258 0.708142 1 1 1 1 1 1
          1 1 1 1 1 1 1 1 1 1 1 1
          1 1 1 1 1 1 1 1 1 1 1 1
          1 1 1 1 1 1 1 1 1 1 1 1
          1 1 1 1 1 1 1 1 1 1 1 1
          1 1 1 1 1 1 1 1 1 1 1 1
          1 1 1 1 1 1 1 1 1 1 1 1
          1 1 1 1 1 1 1 1 1 1 1 1
          1 1 1 1 1 1 1 1 1 1 1 1
          1 1 1 1 1 1 1 1 1 1 1 1
          1 1 1 1 1 1 1 1 1 1 1 1
          1 1 1 1 1 1 1 1 1 1 1 1
          1 1 1 1 1 1 1 1 1 1 1 1
          1 1 1 1 1 1 1 1 1 1 1 1
          1 1 1 1 1 1 1 1 1 1 1 1
          1 1 1 1 1 1 1 1 1 1 1 1
          1 1 1 1 1 1 1 1 1 1 1 1
          1 1 1 1 1 1 1 1 1 1 1 1
          1 1 1 1 1 1 1 1 1 1 1 1
          1 1 1 1 1 1 1 1 1 1 1 1
          1 1 1 1 1 1 1 1 1 1 1 1
          1 1 1 1 1 1 1 1 1 1 1 1
          1 1 1 1 1 1 1 1 1 1 1 1
          1 1 1 1 1
        </DataArray>
        <DataArray type="Float32" Name="p_l" NumberOfComponents="1" format="ascii">
          100000 100043 100000 100023 100062 100039 100072 100046 100005 100002 100001 100000
          100001 100000 100001 100000 100018 100015 100574 100542 100603 100573 100666 100636
          100766 100735 100907 100874 101097 101062 101343 101306 101659 101617 102056 102010
          102554 102499 103175 103107 103953 103863 104937 104813 106123 106071 110652 109551
          200000 200000 100000 100013 100023 100028 100001 100000 100000 100000 100014 100509
          100539 100601 100697 100832 101014 101250 101550 101927 102394 102967 103664 104506
          105545 108678 200000 100000 100007 100013 100016 100001 100000 100000 100000 100012
          100473 100502 100561 100653 100782 100955 101178 101461 101814 102248 102775 103400
          104107 104772 106970 200000 100000 100002 100005 100007 100000 100000 100000 100000
          100011 100435 100462 100518 100604 100724 100885 101092 101352 101676 102071 102547
          103111 103758 104408 102563 200000 99997.2 99997.8 99998.9 99999.7 100000 100000 100000
          100000 100010 100395 100421 100472 100551 100661 100807 100995 101230 101519 101870
          102292 102797 103418 104317 107912 97967.7 99992.1 99992.3 99992.8 99993.1 99999.9 100000
          100000 100000 100009 100354 100377 100423 100495 100594 100725 100891 101098 101351
          101654 102014 102440 102953 103618 103566 103082 99985.9 99986 99986.2 99986.4 99999.7
          100000 100000 100000 100008 100313 100333 100374 100438 100525 100640 100785 100963
          101177 101431 101724 102055 102408 102691 102774 102756 99978.7 99978.7 99978.8 99979
          99999.4 100000 100000 100000 100006 100271 100289 100325 100380 100456 100555 100679
          100829 101006 101212 101441 101685 101919 102100 102196 102222 99970.3 99970.4 99970.5
          99970.7 99999.1 100000 100000 100000 100005 100230 100245 100277 100324 100389 100473
          100576 100700 100845 101007 101183 101362 101526 101654 101732 101758 99960.7 99960.8
          99960.9 99961.1 99998.8 100000 100000 100000 100004 100189 100203 100230 100270 100325
          100395 100481 100582 100698 100825 100959 101090 101209 101303 101362 101382 99949.6
          99949.6 99949.8 99950 99998.4 100000 100000 100000 100003 100150 100161 100184 100219
          100265 100324 100394 100476 100568 100667 100769 100868 100956 101025 101069 101084
          99936.7 99936.8 99937 99937.2 99997.9 100000 100000 100000 100002 100111 100121 100141
          100171 100210 100259 100317 100384 100457 100536 100614 100690 100756 100807 100840
          100851 99921.8 99922 99922.4 99922.5 99997.2 99999.9 100000 100000 100001 100073 100083
          100101 100127 100161 100203 100251 100306 100366 100429 100491 100550 100601 100641
          100666 100675 99904.3 99905 99906.7 99905.4 99994.8 99997.8 99998.2 99998.5 99998.4 100034
          100045 100063 100088 100118 100154 100196 100243 100294 100346 100398 100445 100487
          100519 100539 100546 99883.4 99884.7 99888.8 99900.7 99908.3 99924.6 99939.6 99955 99973
          99991.9 100010 100029 100052 100081 100114 100152 100194 100239 100286 100331 100373
          100409 100436 100454 100460 99858.2 99859.7 99864.9 99873.4 99884.1 99897.3 99912 99927.4
          99944.1 99961.6 99979.7 99999.3 100022 100050 100082 100119 100160 100203 100247 100291
          100330 100365 100391 100407 100413
        </DataArray>
        <DataArray type="Float32" Name="p_g" NumberOfComponents="1" format="ascii">
          100000 100043 100000 100023 100062 100039 100072 100046 100005 100002 100001 100000
          100001 100000 100001 100000 100018 100015 100574 100542 100603 100573 100666 100636
          100766 100735 100907 100874 101097 101062 101343 101306 101659 101617 102056 102010
          102554 102499 103175 103107 103953 103863 104937 104813 106123 106071 110652 109551
          200000 200000 100000 100013 100023 100028 100001 100000 100000 100000 100014 100509
          100539 100601 100697 100832 101014 101250 101550 101927 102394 102967 103664 104506
          105545 108678 200000 100000 100007 100013 100016 100001 100000 100000 100000 100012
          100473 100502 100561 100653 100782 100955 101178 101461 101814 102248 102775 103400
          104107 104772 106970 200000 100000 100002 100005 100007 100000 100000 100000 100000
          100011 100435 100462 100518 100604 100724 100885 101092 101352 101676 102071 102547
          103111 103758 104408 102563 200000 99997.2 99997.8 99998.9 99999.7 100000 100000 100000
          100000 100010 100395 100421 100472 100551 100661 100807 100995 101230 101519 101870
          102292 102797 103418 104317 107912 97967.7 99992.1 99992.3 99992.8 99993.1 99999.9 100000
          100000 100000 100009 100354 100377 100423 100495 100594 100725 100891 101098 101351
          101654 102014 102440 102953 103618 103566 103082 99985.9 99986 99986.2 99986.4 99999.7
          100000 100000 100000 100008 100313 100333 100374 100438 100525 100640 100785 100963
          101177 101431 101724 102055 102408 102691 102774 102756 99978.7 99978.7 99978.8 99979
          99999.4 100000 100000 100000 100006 100271 100289 100325 100380 100456 100555 100679
          100829 101006 101212 101441 101685 101919 102100 102196 102222 99970.3 99970.4 99970.5
          99970.7 99999.1 100000 100000 100000 100005 100230 100245 100277 100324 100389 100473
          100576 100700 100845 101007 101183 101362 101526 101654 101732 101758 99960.7 99960.8
          99960.9 99961.1 99998.8 100000 100000 100000 100004 100189 100203 100230 100270 100325
          100395 100481 100582 100698 100825 100959 101090 101209 101303 101362 101382 99949.6
          99949.6 99949.8 99950 99998.4 100000 100000 100000 100003 100150 100161 100184 100219
          100265 100324 100394 100476 100568 100667 100769 100868 100956 101025 101069 101084
          99936.7 99936.8 99937 99937.2 99997.9 100000 100000 100000 100002 100111 100121 100141
          100171 100210 100259 100317 100384 100457 100536 100614 100690 100756 100807 100840
          100851 99921.8 99922 99922.4 99922.5 99997.2 99999.9 100000 100000 100001 100073 100083
          100101 100127 100161 100203 100251 100306 100366 100429 100491 100550 100601 100641
          100666 100675 99904.3 99905 99906.7 99905.4 99994.8 99997.8 99998.2 99998.5 99998.4 100034
          100045 100063 100088 100118 100154 100196 100243 100294 100346 100398 100445 100487
          100519 100539 100546 99883.4 99884.7 99888.8 99900.7 99908.3 99924.6 99939.6 99955 99973
          99991.9 100010 100029 100052 100081 100114 100152 100194 100239 100286 100331 100373
          100409 100436 100454 100460 99858.2 99859.7 99864.9 99873.4 99884.1 99897.3 99912 99927.4
          99944.1 99961.6 99979.7 99999.3 100022 100050 100082 100119 100160 100203 100247 100291
          100330 100365 100391 100407 100413
        </DataArray>
        <DataArray type="Float32" Name="rho_l" NumberOfComponents="1" format="ascii">
          997.048 997.048 997.048 997.048 997.048 997.048 997.048 997.048 997.048 997.048 997.048 997.048
          997.048 997.048 997.048 997.048 997.048 997.048 997.048 997.048 997.048 997.048 997.048 997.048
          997.048 997.048 997.048 997.048 997.048 997.048 997.048 997.048 997.048 997.048 997.049 997.049
          997.049 997.049 997.049 997.049 997.049 997.049 997.05 997.05 997.05 997.05 997.052 997.052
          997.093 997.093 997.048 997.048 997.048 997.048 997.048 997.048 997.048 997.048 997.048 997.048
          997.048 997.048 997.048 997.048 997.048 997.048 997.048 997.049 997.049 997.049 997.049 997.05
          997.05 997.052 997.093 997.048 997.048 997.048 997.048 997.048 997.048 997.048 997.048 997.048
          997.048 997.048 997.048 997.048 997.048 997.048 997.048 997.048 997.048 997.049 997.049 997.049
          997.049 997.05 997.051 997.093 997.048 997.048 997.048 997.048 997.048 997.048 997.048 997.048
          997.048 997.048 997.048 997.048 997.048 997.048 997.048 997.048 997.048 997.048 997.049 997.049
          997.049 997.049 997.05 997.049 997.093 997.048 997.048 997.048 997.048 997.048 997.048 997.048
          997.048 997.048 997.048 997.048 997.048 997.048 997.048 997.048 997.048 997.048 997.048 997.049
          997.049 997.049 997.049 997.05 997.051 997.047 997.048 997.048 997.048 997.048 997.048 997.048
          997.048 997.048 997.048 997.048 997.048 997.048 997.048 997.048 997.048 997.048 997.048 997.048
          997.048 997.049 997.049 997.049 997.049 997.049 997.049 997.048 997.048 997.048 997.048 997.048
          997.048 997.048 997.048 997.048 997.048 997.048 997.048 997.048 997.048 997.048 997.048 997.048
          997.048 997.048 997.048 997.049 997.049 997.049 997.049 997.049 997.048 997.048 997.048 997.048
          997.048 997.048 997.048 997.048 997.048 997.048 997.048 997.048 997.048 997.048 997.048 997.048
          997.048 997.048 997.048 997.048 997.048 997.049 997.049 997.049 997.049 997.048 997.048 997.048
          997.048 997.048 997.048 997.048 997.048 997.048 997.048 997.048 997.048 997.048 997.048 997.048
          997.048 997.048 997.048 997.048 997.048 997.048 997.048 997.048 997.048 997.048 997.048 997.048
          997.048 997.048 997.048 997.048 997.048 997.048 997.048 997.048 997.048 997.048 997.048 997.048
          997.048 997.048 997.048 997.048 997.048 997.048 997.048 997.048 997.048 997.048 997.048 997.048
          997.048 997.048 997.048 997.048 997.048 997.048 997.048 997.048 997.048 997.048 997.048 997.048
          997.048 997.048 997.048 997.048 997.048 997.048 997.048 997.048 997.048 997.048 997.048 997.048
          997.048 997.048 997.048 997.048 997.048 997.048 997.048 997.048 997.048 997.048 997.048 997.048
          997.048 997.048 997.048 997.048 997.048 997.048 997.048 997.048 997.048 997.048 997.048 997.048
          997.048 997.048 997.048 997.048 997.048 997.048 997.048 997.048 997.048 997.048 997.048 997.048
          997.048 997.048 997.048 997.048 997.048 997.048 997.048 997.048 997.048 997.048 997.048 997.048
          997.048 997.048 997.048 997.048 997.048 997.048 997.048 997.048 997.048 997.048 997.048 997.048
          997.048 997.048 997.048 997.048 997.048 997.048 997.048 997.048 997.048 997.048 997.048 997.048
          997.048 997.048 997.048 997.048 997.048 997.048 997.048 997.048 997.048 997.048 997.048 997.048
          997.048 997.048 997.048 997.048 997.048 997.048 997.048 997.048 997.048 997.048 997.048 997.048
          997.048 997.048 997.048 997.048 997.048 997.048 997.048 997.048 997.048 997.048 997.048 997.048
          997.048 997.048 997.048 997.048 997.048 997.048 997.048 997.048 997.048 997.048 997.048 997.048
          997.048 997.048 997.048 997.048 997.048
        </DataArray>
        <DataArray type="Float32" Name="rho_g" NumberOfComponents="1" format="ascii">
          1.12601 1.12649 1.12601 1.12627 1.12671 1.12645 1.12682 1.12653 1.12607 1.12604 1.12602 1.12601
          1.12602 1.12601 1.12602 1.12602 1.12621 1.12619 1.13248 1.13212 1.1328 1.13246 1.13351 1.13317
          1.13464 1.13429 1.13623 1.13586 1.13836 1.13797 1.14114 1.14072 1.14469 1.14422 1.14917 1.14864
          1.15477 1.15415 1.16174 1.16097 1.17015 1.16917 1.17878 1.17762 1.18646 1.18586 1.23763 1.22519
          1.45345 1.45345 1.12601 1.12616 1.12627 1.12633 1.12603 1.12601 1.12601 1.12602 1.12617 1.13174
          1.13208 1.13278 1.13386 1.13539 1.13743 1.14009 1.14347 1.14771 1.15297 1.15941 1.16703 1.1746
          1.17992 1.21533 1.45345 1.12601 1.12609 1.12616 1.12619 1.12602 1.12601 1.12601 1.12601 1.12615
          1.13134 1.13167 1.13233 1.13336 1.13482 1.13676 1.13927 1.14246 1.14643 1.15132 1.15725 1.16417
          1.17089 1.17119 1.19603 1.45345 1.12601 1.12604 1.12607 1.12609 1.12602 1.12601 1.12601 1.12601
          1.12614 1.13091 1.13122 1.13184 1.13281 1.13417 1.13598 1.13831 1.14124 1.14488 1.14933 1.15469
          1.16102 1.16809 1.17359 1.14622 1.45345 1.12598 1.12599 1.126 1.12601 1.12601 1.12601 1.12601
          1.12601 1.12613 1.13046 1.13075 1.13132 1.13221 1.13346 1.13511 1.13722 1.13986 1.14312 1.14707
          1.15182 1.15744 1.16368 1.16878 1.20668 1.0943 1.12592 1.12593 1.12593 1.12594 1.12601 1.12601
          1.12601 1.12601 1.12611 1.13 1.13026 1.13078 1.13159 1.1327 1.13418 1.13605 1.13838 1.14122
          1.14464 1.14869 1.15347 1.15911 1.16543 1.16146 1.1586 1.12585 1.12586 1.12586 1.12586 1.12601
          1.12601 1.12601 1.12601 1.1261 1.12954 1.12977 1.13023 1.13094 1.13193 1.13322 1.13485 1.13686
          1.13927 1.14212 1.14542 1.14915 1.15312 1.15616 1.15662 1.1569 1.12577 1.12577 1.12578 1.12578
          1.12601 1.12601 1.12601 1.12601 1.12608 1.12907 1.12927 1.12967 1.1303 1.13115 1.13226 1.13365
          1.13534 1.13735 1.13966 1.14224 1.14499 1.14762 1.14965 1.1507 1.15103 1.12568 1.12568 1.12568
          1.12568 1.126 1.12601 1.12601 1.12601 1.12607 1.1286 1.12878 1.12913 1.12966 1.1304 1.13134
          1.1325 1.1339 1.13552 1.13736 1.13934 1.14135 1.14319 1.14464 1.14552 1.14581 1.12557 1.12557
          1.12557 1.12557 1.126 1.12601 1.12601 1.12601 1.12606 1.12814 1.1283 1.1286 1.12906 1.12967
          1.13046 1.13143 1.13257 1.13387 1.1353 1.13681 1.13829 1.13963 1.14068 1.14135 1.14157 1.12545
          1.12545 1.12545 1.12545 1.12599 1.12601 1.12601 1.12601 1.12605 1.1277 1.12783 1.12809 1.12848
          1.129 1.12966 1.13045 1.13137 1.13241 1.13353 1.13468 1.13579 1.13678 1.13755 1.13804 1.13821
          1.1253 1.1253 1.1253 1.12531 1.12599 1.12601 1.12601 1.12601 1.12603 1.12726 1.12738 1.12761
          1.12794 1.12838 1.12893 1.12959 1.13034 1.13116 1.13204 1.13293 1.13378 1.13452 1.1351 1.13547
          1.1356 1.12513 1.12514 1.12514 1.12514 1.12598 1.12601 1.12601 1.12601 1.12602 1.12683 1.12694
          1.12715 1.12745 1.12783 1.12829 1.12884 1.12946 1.13014 1.13084 1.13155 1.13221 1.13278 1.13323
          1.13351 1.13361 1.12494 1.12494 1.12496 1.12495 1.12596 1.12599 1.12599 1.126 1.12599 1.12639
          1.12652 1.12673 1.127 1.12734 1.12775 1.12822 1.12875 1.12932 1.12991 1.13049 1.13103 1.1315
          1.13186 1.13208 1.13216 1.1247 1.12471 1.12476 1.1249 1.12498 1.12516 1.12533 1.12551 1.12571
          1.12592 1.12613 1.12634 1.1266 1.12692 1.1273 1.12773 1.1282 1.12871 1.12923 1.12974 1.13021
          1.13062 1.13093 1.13112 1.13119 1.12442 1.12443 1.12449 1.12459 1.12471 1.12486 1.12502 1.1252
          1.12538 1.12558 1.12578 1.12601 1.12626 1.12657 1.12694 1.12735 1.12781 1.1283 1.1288 1.12928
          1.12973 1.13012 1.13041 1.1306 1.13066
        </DataArray>
        <DataArray type="Float32" Name="lambda_l" NumberOfComponents="1" format="ascii">
          0 0 0 0 0 0 0 0 0 0 0 0
          0 0 0 0 0 0 0 0 0 0 0 0
          0 0 0 0 0 0 0 0 0 0 0 0
          0 0 0 0 0 0 0 0 0.497034 0.285951 727.91 625.267
          1123.58 1123.58 0 0 0 0 0 0 0 0 0 0
          0 0 0 0 0 0 0 0 0 0 0 0
          0.214056 630.314 1123.58 0 0 0 0 0 0 0 0 0
          0 0 0 0 0 0 0 0 0 0 0 0
          0 0.061324 633.714 1123.58 0 0 0 0 0 0 0 0
          0 0 0 0 0 0 0 0 0 0 0 0
          0 0 0 531.156 1123.58 0 0 0 0 0 0 0
          0 0 0 0 0 0 0 0 0 0 0 0
          0 0 0 0 0.610249 314.929 0 0 0 0 0 0
          0 0 0 0 0 0 0 0 0 0 0 0
          0 0 0 0 0 0 0 0 0 0 0 0
          0 0 0 0 0 0 0 0 0 0 0 0
          0 0 0 0 0 0 0 0 0 0 0 0
          0 0 0 0 0 0 0 0 0 0 0 0
          0 0 0 0 0 0 0 0 0 0 0 0
          0 0 0 0 0 0 0 0 0 0 0 0
          0 0 0 0 0 0 0 0 0 0 0 0
          0 0 0 0 0 0 0 0 0 0 0 0
          0 0 0 0 0 0 0 0 0 0 0 0
          0 0 0 0 0 0 0 0 0 0 0 0
          0 0 0 0 0 0 0 0 0 0 0 0
          0 0 0 0 0 0 0 0 0 0 0 0
          0 0 0 0 0 0 0 0 0 0 0 0
          0 0 0 0 0 0 0 0 0 0 0 0
          0 0 0 0 0 0 0 0 0 0 0 0
          0 0 0 0 0 0 0 0 0 0 0 0
          0 0 0 0 0 0 0 0 0 0 0 0
          0 0 0 0 0 0 0 0 0 0 0 0
          0 0 0 0 0 0 0 0 0 0 0 0
          0 0 0 0 0 0 0 0 0 0 0 0
          0 0 0 0 0 0 0 0 0 0 0 0
          0 0 0 0 0
        </DataArray>
        <DataArray type="Float32" Name="lambda_g" NumberOfComponents="1" format="ascii">
          56746.7 56746.7 56746.7 56746.7 56746.7 56746.7 56746.7 56746.7 56746.7 56746.7 56746.7 56746.7
          56746.7 56746.7 56746.7 56746.7 56746.7 56746.7 56746.7 56746.7 56746.7 56746.7 56746.7 56746.7
          56746.7 56746.7 56746.7 56746.7 56746.7 56746.7 56746.7 56746.7 56746.7 56746.7 56746.7 56746.7
          56746.7 56746.7 56746.7 56746.7 56746.7 56746.7 56746.7 56746.7 56721.6 56732.3 19983.1 25167.1
          0 0 56746.7 56746.7 56746.7 56746.7 56746.7 56746.7 56746.7 56746.7 56746.7 56746.7
          56746.7 56746.7 56746.7 56746.7 56746.7 56746.7 56746.7 56746.7 56746.7 56746.7 56746.7 56746.7
          56735.9 24912.2 0 56746.7 56746.7 56746.7 56746.7 56746.7 56746.7 56746.7 56746.7 56746.7
          56746.7 56746.7 56746.7 56746.7 56746.7 56746.7 56746.7 56746.7 56746.7 56746.7 56746.7 56746.7
          56746.7 56743.6 24740.5 0 56746.7 56746.7 56746.7 56746.7 56746.7 56746.7 56746.7 56746.7
          56746.7 56746.7 56746.7 56746.7 56746.7 56746.7 56746.7 56746.7 56746.7 56746.7 56746.7 56746.7
          56746.7 56746.7 56746.7 29920.3 0 56746.7 56746.7 56746.7 56746.7 56746.7 56746.7 56746.7
          56746.7 56746.7 56746.7 56746.7 56746.7 56746.7 56746.7 56746.7 56746.7 56746.7 56746.7 56746.7
          56746.7 56746.7 56746.7 56746.7 56715.9 40840.9 56746.7 56746.7 56746.7 56746.7 56746.7 56746.7
          56746.7 56746.7 56746.7 56746.7 56746.7 56746.7 56746.7 56746.7 56746.7 56746.7 56746.7 56746.7
          56746.7 56746.7 56746.7 56746.7 56746.7 56746.7 56746.7 56746.7 56746.7 56746.7 56746.7 56746.7
          56746.7 56746.7 56746.7 56746.7 56746.7 56746.7 56746.7 56746.7 56746.7 56746.7 56746.7 56746.7
          56746.7 56746.7 56746.7 56746.7 56746.7 56746.7 56746.7 56746.7 56746.7 56746.7 56746.7 56746.7
          56746.7 56746.7 56746.7 56746.7 56746.7 56746.7 56746.7 56746.7 56746.7 56746.7 56746.7 56746.7
          56746.7 56746.7 56746.7 56746.7 56746.7 56746.7 56746.7 56746.7 56746.7 56746.7 56746.7 56746.7
          56746.7 56746.7 56746.7 56746.7 56746.7 56746.7 56746.7 56746.7 56746.7 56746.7 56746.7 56746.7
          56746.7 56746.7 56746.7 56746.7 56746.7 56746.7 56746.7 56746.7 56746.7 56746.7 56746.7 56746.7
          56746.7 56746.7 56746.7 56746.7 56746.7 56746.7 56746.7 56746.7 56746.7 56746.7 56746.7 56746.7
          56746.7 56746.7 56746.7 56746.7 56746.7 56746.7 56746.7 56746.7 56746.7 56746.7 56746.7 56746.7
          56746.7 56746.7 56746.7 56746.7 56746.7 56746.7 56746.7 56746.7 56746.7 56746.7 56746.7 56746.7
          56746.7 56746.7 56746.7 56746.7 56746.7 56746.7 56746.7 56746.7 56746.7 56746.7 56746.7 56746.7
          56746.7 56746.7 56746.7 56746.7 56746.7 56746.7 56746.7 56746.7 56746.7 56746.7 56746.7 56746.7
          56746.7 56746.7 56746.7 56746.7 56746.7 56746.7 56746.7 56746.7 56746.7 56746.7 56746.7 56746.7
          56746.7 56746.7 56746.7 56746.7 56746.7 56746.7 56746.7 56746.7 56746.7 56746.7 56746.7 56746.7
          56746.7 56746.7 56746.7 56746.7 56746.7 56746.7 56746.7 56746.7 56746.7 56746.7 56746.7 56746.7
          56746.7 56746.7 56746.7 56746.7 56746.7 56746.7 56746.7 56746.7 56746.7 56746.7 56746.7 56746.7
          56746.7 56746.7 56746.7 56746.7 56746.7 56746.7 56746.7 56746.7 56746.7 56746.7 56746.7 56746.7
          56746.7 56746.7 56746.7 56746.7 56746.7 56746.7 56746.7 56746.7 56746.7 56746.7 56746.7 56746.7
          56746.7 56746.7 56746.7 56746.7 56746.7 56746.7 56746.7 56746.7 56746.7 56746.7 56746.7 56746.7
          56746.7 56746.7 56746.7 56746.7 56746.7 56746.7 56746.7 56746.7 56746.7 56746.7 56746.7 56746.7
          56746.7 56746.7 56746.7 56746.7 56746.7 56746.7 56746.7 56746.7 56746.7 56746.7 56746.7 56746.7
          56746.7 56746.7 56746.7 56746.7 56746.7
        </DataArray>
        <DataArray type="Float32" Name="porosity" NumberOfComponents="1" format="ascii">
          0.3 0.3 0.3 0.3 0.3 0.3 0.3 0.3 0.3 0.3 0.3 0.3
          0.3 0.3 0.3 0.3 0.3 0.3 0.3 0.3 0.3 0.3 0.3 0.3
          0.3 0.3 0.3 0.3 0.3 0.3 0.3 0.3 0.3 0.3 0.3 0.3
          0.3 0.3 0.3 0.3 0.3 0.3 0.3 0.3 0.3 0.3 0.3 0.3
          0.3 0.3 0.3 0.3 0.3 0.3 0.3 0.3 0.3 0.3 0.3 0.3
          0.3 0.3 0.3 0.3 0.3 0.3 0.3 0.3 0.3 0.3 0.3 0.3
          0.3 0.3 0.3 0.3 0.3 0.3 0.3 0.3 0.3 0.3 0.3 0.3
          0.3 0.3 0.3 0.3 0.3 0.3 0.3 0.3 0.3 0.3 0.3 0.3
          0.3 0.3 0.3 0.3 0.3 0.3 0.3 0.3 0.3 0.3 0.3 0.3
          0.3 0.3 0.3 0.3 0.3 0.3 0.3 0.3 0.3 0.3 0.3 0.3
          0.3 0.3 0.3 0.3 0.3 0.3 0.3 0.3 0.3 0.3 0.3 0.3
          0.3 0.3 0.3 0.3 0.3 0.3 0.3 0.3 0.3 0.3 0.3 0.3
          0.3 0.3 0.3 0.3 0.3 0.3 0.3 0.3 0.3 0.3 0.3 0.3
          0.3 0.3 0.3 0.3 0.3 0.3 0.3 0.3 0.3 0.3 0.3 0.3
          0.3 0.3 0.3 0.3 0.3 0.3 0.3 0.3 0.3 0.3 0.3 0.3
          0.3 0.3 0.3 0.3 0.3 0.3 0.3 0.3 0.3 0.3 0.3 0.3
          0.3 0.3 0.3 0.3 0.3 0.3 0.3 0.3 0.3 0.3 0.3 0.3
          0.3 0.3 0.3 0.3 0.3 0.3 0.3 0.3 0.3 0.3 0.3 0.3
          0.3 0.3 0.3 0.3 0.3 0.3 0.3 0.3 0.3 0.3 0.3 0.3
          0.3 0.3 0.3 0.3 0.3 0.3 0.3 0.3 0.3 0.3 0.3 0.3
          0.3 0.3 0.3 0.3 0.3 0.3 0.3 0.3 0.3 0.3 0.3 0.3
          0.3 0.3 0.3 0.3 0.3 0.3 0.3 0.3 0.3 0.3 0.3 0.3
          0.3 0.3 0.3 0.3 0.3 0.3 0.3 0.3 0.3 0.3 0.3 0.3
          0.3 0.3 0.3 0.3 0.3 0.3 0.3 0.3 0.3 0.3 0.3 0.3
          0.3 0.3 0.3 0.3 0.3 0.3 0.3 0.3 0.3 0.3 0.3 0.3
          0.3 0.3 0.3 0.3 0.3 0.3 0.3 0.3 0.3 0.3 0.3 0.3
          0.3 0.3 0.3 0.3 0.3 0.3 0.3 0.3 0.3 0.3 0.3 0.3
          0.3 0.3 0.3 0.3 0.3 0.3 0.3 0.3 0.3 0.3 0.3 0.3
          0.3 0.3 0.3 0.3 0.3 0.3 0.3 0.3 0.3 0.3 0.3 0.3
          0.3 0.3 0.3 0.3 0.3 0.3 0.3 0.3 0.3 0.3 0.3 0.3
          0.3 0.3 0.3 0.3 0.3 0.3 0.3 0.3 0.3 0.3 0.3 0.3
          0.3 0.3 0.3 0.3 0.3 0.3 0.3 0.3 0.3 0.3 0.3 0.3
          0.3 0.3 0.3 0.3 0.3 0.3 0.3 0.3 0.3 0.3 0.3 0.3
          0.3 0.3 0.3 0.3 0.3 0.3 0.3 0.3 0.3 0.3 0.3 0.3
          0.3 0.3 0.3 0.3 0.3 0.3 0.3 0.3 0.3 0.3 0.3 0.3
          0.3 0.3 0.3 0.3 0.3
        </DataArray>
        <DataArray type="Float32" Name="x_l^H2O" NumberOfComponents="1" format="ascii">
          0.315483 0.315618 0.315483 0.315555 0.315678 0.315604 0.31571 0.315627 0.315498 0.31549 0.315485 0.315483
          0.315485 0.315483 0.315486 0.315483 0.315539 0.315531 0.317294 0.317193 0.317385 0.31729 0.317584 0.317488
          0.317899 0.3178 0.318345 0.318241 0.318942 0.318833 0.319721 0.319603 0.320716 0.320585 0.321977 0.321828
          0.323694 0.323499 0.328027 0.327513 0.357206 0.354037 0.551983 0.533235 0.999988 0.999988 0.999988 0.999988
          1 1 0.315483 0.315524 0.315555 0.315571 0.315487 0.315483 0.315483 0.315483 0.315526 0.317087
          0.317183 0.317377 0.317681 0.318109 0.318682 0.319426 0.320374 0.321565 0.323121 0.326368 0.346579 0.497514
          0.999988 0.999988 1 0.315483 0.315505 0.315523 0.315532 0.315485 0.315483 0.315483 0.315483 0.315522
          0.316975 0.317066 0.317252 0.317542 0.31795 0.318494 0.319198 0.320091 0.321206 0.322612 0.324979 0.336862
          0.436224 0.999988 0.999988 1 0.315483 0.31549 0.315499 0.315504 0.315484 0.315483 0.315483 0.315483
          0.315518 0.316855 0.316941 0.317116 0.317387 0.317768 0.318274 0.318927 0.319749 0.320769 0.32202 0.323617
          0.326889 0.346027 0.49086 0.999988 1 0.315474 0.315476 0.315479 0.315482 0.315483 0.315483 0.315483
          0.315483 0.315514 0.31673 0.316809 0.31697 0.31722 0.317568 0.31803 0.318622 0.319363 0.320276 0.321395
          0.322993 0.329389 0.390083 0.78671 0.999988 0.999989 0.315458 0.315458 0.31546 0.315461 0.315482 0.315483
          0.315483 0.315483 0.31551 0.316601 0.316673 0.316819 0.317044 0.317357 0.31777 0.318295 0.318948 0.319745
          0.320703 0.32188 0.324064 0.337224 0.430578 0.694798 0.490593 0.315438 0.315438 0.315439 0.31544 0.315482
          0.315483 0.315483 0.315483 0.315506 0.316469 0.316534 0.316664 0.316863 0.31714 0.317502 0.317958 0.31852
          0.319197 0.319997 0.320925 0.322038 0.32425 0.335861 0.373493 0.335392 0.315415 0.315415 0.315416 0.315416
          0.315481 0.315483 0.315483 0.315483 0.315503 0.316338 0.316395 0.316509 0.316683 0.316923 0.317234 0.317623
          0.318097 0.318658 0.319305 0.32003 0.320803 0.321605 0.322881 0.326063 0.323184 0.315389 0.315389 0.31539
          0.31539 0.31548 0.315483 0.315483 0.315483 0.315499 0.316208 0.316257 0.316355 0.316505 0.316711 0.316974
          0.317301 0.317692 0.318148 0.318661 0.319215 0.319779 0.320298 0.320734 0.321126 0.32106 0.315359 0.315359
          0.315359 0.31536 0.315479 0.315483 0.315483 0.315483 0.315495 0.31608 0.316122 0.316207 0.316335 0.316508
          0.316729 0.317 0.317319 0.317683 0.318085 0.318507 0.318923 0.319297 0.319593 0.319785 0.319843 0.315324
          0.315324 0.315324 0.315325 0.315477 0.315483 0.315483 0.315483 0.315492 0.315955 0.315992 0.316064 0.316173
          0.316319 0.316504 0.316726 0.316984 0.317274 0.317588 0.31791 0.318221 0.318498 0.318715 0.318854 0.318901
          0.315283 0.315283 0.315284 0.315284 0.315476 0.315483 0.315483 0.315483 0.315488 0.315833 0.315866 0.315929
          0.316022 0.316146 0.3163 0.316484 0.316694 0.316926 0.317172 0.317421 0.317658 0.317866 0.318029 0.318133
          0.318168 0.315236 0.315237 0.315238 0.315238 0.315474 0.315482 0.315483 0.315483 0.315484 0.315713 0.315743
          0.315801 0.315884 0.315991 0.316122 0.316275 0.316449 0.316638 0.316836 0.317033 0.317218 0.317379 0.317504
          0.317584 0.317611 0.315181 0.315183 0.315188 0.315184 0.315466 0.315476 0.315477 0.315478 0.315477 0.315589
          0.315625 0.315682 0.315759 0.315854 0.315969 0.316102 0.31625 0.316409 0.316574 0.316737 0.316888 0.317019
          0.317119 0.317183 0.317205 0.315115 0.315119 0.315132 0.315169 0.315193 0.315245 0.315292 0.315341 0.315398
          0.315457 0.315514 0.315575 0.315648 0.315737 0.315842 0.315962 0.316096 0.316238 0.316384 0.316527 0.316659
          0.316772 0.316859 0.316914 0.316933 0.315035 0.31504 0.315056 0.315083 0.315117 0.315159 0.315205 0.315254
          0.315306 0.315362 0.315418 0.31548 0.315553 0.31564 0.315742 0.315858 0.315986 0.316123 0.316263 0.316399
          0.316525 0.316633 0.316715 0.316768 0.316785
        </DataArray>
        <DataArray type="Float32" Name="x_l^N2" NumberOfComponents="1" format="ascii">
          1.14721e-05 1.1477e-05 1.14721e-05 1.14747e-05 1.14792e-05 1.14765e-05 1.14804e-05 1.14774e-05 1.14727e-05 1.14724e-05 1.14722e-05 1.14721e-05
          1.14722e-05 1.14721e-05 1.14722e-05 1.14721e-05 1.14742e-05 1.14739e-05 1.1538e-05 1.15343e-05 1.15413e-05 1.15378e-05 1.15485e-05 1.1545e-05
          1.156e-05 1.15564e-05 1.15762e-05 1.15724e-05 1.15979e-05 1.15939e-05 1.16262e-05 1.16219e-05 1.16624e-05 1.16576e-05 1.1708e-05 1.17026e-05