<?xml version="1.0"?>
<VTKFile type="UnstructuredGrid" version="0.1" byte_order="LittleEndian">
  <UnstructuredGrid>
    <Piece NumberOfCells="384" NumberOfPoints="425">
      <PointData Scalars="S_l">
        <DataArray type="Float32" Name="S_l" NumberOfComponents="1" format="ascii">
          0 0 0 0 0 0 0 0 0 0 0 0
          0 0 0 0 0 0 0 0 0 0 0 0
          0 0 0 0 0 0 0 0 0 0 0 0
          0 0 0 0 0 0 0 0 0.00707434 0.00536761 0.640718 0.553335
          1 1 0 0 0 0 0 0 0 0 0 0
          0 0 0 0 0 0 0 0 0 0 0 0
          0.00464816 0.557593 1 0 0 0 0 0 0 0 0 0
          0 0 0 0 0 0 0 0 0 0 0 0
          0 0.00249539 0.560397 1 0 0 0 0 0 0 0 0
          0 0 0 0 0 0 0 0 0 0 0 0
          0 0 0 0.473788 1 0 0 0 0 0 0 0
          0 0 0 0 0 0 0 0 0 0 0 0
          0 0 0 0 0.00782007 0.291675 0 0 0 0 0 0
          0 0 0 0 0 0 0 0 0 0 0 0
          0 0 0 0 0 0 0 0 0 0 0 0
          0 0 0 0 0 0 0 0 0 0 0 0
          0 0 0 0 0 0 0 0 0 0 0 0
          0 0 0 0 0 0 0 0 0 0 0 0
          0 0 0 0 0 0 0 0 0 0 0 0
          0 0 0 0 0 0 0 0 0 0 0 0
          0 0 0 0 0 0 0 0 0 0 0 0
          0 0 0 0 0 0 0 0 0 0 0 0
          0 0 0 0 0 0 0 0 0 0 0 0
          0 0 0 0 0 0 0 0 0 0 0 0
          0 0 0 0 0 0 0 0 0 0 0 0
          0 0 0 0 0 0 0 0 0 0 0 0
          0 0 0 0 0 0 0 0 0 0 0 0
          0 0 0 0 0 0 0 0 0 0 0 0
          0 0 0 0 0 0 0 0 0 0 0 0
          0 0 0 0 0 0 0 0 0 0 0 0
          0 0 0 0 0 0 0 0 0 0 0 0
          0 0 0 0 0 0 0 0 0 0 0 0
          0 0 0 0 0 0 0 0 0 0 0 0
          0 0 0 0 0 0 0 0 0 0 0 0
          0 0 0 0 0 0 0 0 0 0 0 0
          0 0 0 0 0
        </DataArray>
        <DataArray type="Float32" Name="S_g" NumberOfComponents="1" format="ascii">
          1 1 1 1 1 1 1 1 1 1 1 1
          1 1 1 1 1 1 1 1 1 1 1 1
          1 1 1 1 1 1 1 1 1 1 1 1
          1 1 1 1 1 1 1 1 0.992926 0.994632 0.359282 0.446665
          0 0 1 1 1 1 1 1 1 1 1 1
          1 1 1 1 1 1 1 1 1 1 1 1
          0.995352 0.442407 0 1 1 1 1 1 1 1 1 1
          1 1 1 1 1 1 1 1 1 1 1 1
          1 0.997505 0.439603 0 1 1 1 1 1 1 1 1
          1 1 1 1 1 1 1 1 1 1 1 1
          1 1 1 0.526212 0 1 1 1 1 1 1 1
          1 1 1 1 1 1 1 1 1 1 1 1
          1 1 1 1 0.99218 0.708325 1 1 1 1 1 1
          1 1 1 1 1 1 1 1 1 1 1 1
          1 1 1 1 1 1 1 1 1 1 1 1
          1 1 1 1 1 1 1 1 1 1 1 1
          1 1 1 1 1 1 1 1 1 1 1 1
          1 1 1 1 1 1 1 1 1 1 1 1
          1 1 1 1 1 1 1 1 1 1 1 1
          1 1 1 1 1 1 1 1 1 1 1 1
          1 1 1 1 1 1 1 1 1 1 1 1
          1 1 1 1 1 1 1 1 1 1 1 1
          1 1 1 1 1 1 1 1 1 1 1 1
          1 1 1 1 1 1 1 1 1 1 1 1
          1 1 1 1 1 1 1 1 1 1 1 1
          1 1 1 1 1 1 1 1 1 1 1 1
          1 1 1 1 1 1 1 1 1 1 1 1
          1 1 1 1 1 1 1 1 1 1 1 1
          1 1 1 1 1 1 1 1 1 1 1 1
          1 1 1 1 1 1 1 1 1 1 1 1
          1 1 1 1 1 1 1 1 1 1 1 1
          1 1 1 1 1 1 1 1 1 1 1 1
          1 1 1 1 1 1 1 1 1 1 1 1
          1 1 1 1 1 1 1 1 1 1 1 1
          1 1 1 1 1 1 1 1 1 1 1 1
          1 1 1 1 1
        </DataArray>
        <DataArray type="Float32" Name="p_l" NumberOfComponents="1" format="ascii">
          100000 100043 100000 100023 100062 100039 100072 100046 100005 100002 100002 100000
          100002 100000 100002 100000 100018 100016 100576 100544 100605 100575 100668 100637
          100767 100736 100907 100875 101096 101062 101342 101305 101656 101615 102053 102006
          102550 102495 103170 103102 103947 103857 104931 104807 106118 106066 110663 109552
          200000 200000 100000 100013 100023 100028 100001 100000 100000 100000 100014 100511
          100541 100602 100698 100833 101014 101249 101548 101924 102390 102962 103658 104500
          105540 108679 200000 100000 100007 100013 100016 100001 100000 100000 100000 100013
          100475 100504 100562 100654 100782 100954 101177 101459 101811 102244 102770 103395
          104101 104767 106970 200000 100000 100002 100005 100007 100000 100000 100000 100000
          100011 100437 100464 100519 100605 100725 100885 101091 101351 101673 102067 102542
          103106 103752 104403 102560 200000 99997.2 99997.8 99999 99999.8 100000 100000 100000
          100000 100010 100397 100422 100473 100552 100662 100808 100994 101229 101517 101867
          102288 102792 103413 104313 107911 97964 99992.1 99992.3 99992.8 99993.2 99999.9 100000
          100000 100000 100009 100357 100379 100425 100496 100595 100725 100891 101097 101349
          101652 102011 102436 102949 103614 103562 103078 99985.9 99986 99986.3 99986.5 99999.7
          100000 100000 100000 100008 100315 100335 100376 100439 100527 100641 100785 100962
          101176 101429 101721 102051 102405 102687 102770 102752 99978.8 99978.8 99979 99979.1
          99999.4 100000 100000 100000 100007 100273 100291 100327 100382 100458 100556 100679
          100829 101006 101210 101439 101683 101916 102097 102193 102219 99970.5 99970.5 99970.7
          99970.8 99999.1 100000 100000 100000 100005 100232 100248 100279 100326 100391 100474
          100577 100701 100844 101007 101182 101360 101524 101652 101730 101755 99960.9 99961
          99961.1 99961.3 99998.8 100000 100000 100000 100004 100192 100205 100232 100272 100327
          100397 100482 100583 100698 100825 100958 101089 101208 101301 101360 101380 99949.9
          99949.9 99950.1 99950.3 99998.4 100000 100000 100000 100003 100152 100164 100187 100221
          100267 100325 100395 100477 100569 100668 100769 100868 100955 101024 101067 101082
          99937 99937.1 99937.3 99937.6 99997.8 100000 100000 100000 100002 100114 100124 100144
          100173 100213 100261 100319 100385 100459 100536 100615 100690 100755 100807 100840
          100851 99922.2 99922.4 99922.8 99923 99997.2 99999.9 100000 100000 100001 100075 100085
          100103 100130 100163 100205 100253 100308 100368 100430 100492 100551 100601 100641
          100666 100675 99904.8 99905.5 99907.3 99906 99994.8 99997.8 99998.3 99998.6 99998.6 100036
          100048 100066 100090 100120 100156 100198 100245 100295 100347 100399 100446 100488
          100519 100540 100546 99884 99885.2 99889.4 99901.4 99909.4 99926 99941.2 99956.9 99975.2
          99994 100012 100032 100055 100083 100116 100154 100196 100241 100287 100332 100374
          100410 100437 100455 100460 99858.8 99860.3 99865.6 99874.2 99885.2 99898.7 99913.6 99929.3
          99946.2 99963.9 99982 100002 100025 100052 100084 100121 100162 100205 100249 100292
          100332 100366 100392 100408 100414
        </DataArray>
        <DataArray type="Float32" Name="p_g" NumberOfComponents="1" format="ascii">
          100000 100043 100000 100023 100062 100039 100072 100046 100005 100002 100002 100000
          100002 100000 100002 100000 100018 100016 100576 100544 100605 100575 100668 100637
          100767 100736 100907 100875 101096 101062 101342 101305 101656 101615 102053 102006
          102550 102495 103170 103102 103947 103857 104931 104807 106118 106066 110663 109552
          200000 200000 100000 100013 100023 100028 100001 100000 100000 100000 100014 100511
          100541 100602 100698 100833 101014 101249 101548 101924 102390 102962 103658 104500
          105540 108679 200000 100000 100007 100013 100016 100001 100000 100000 100000 100013
          100475 100504 100562 100654 100782 100954 101177 101459 101811 102244 102770 103395
          104101 104767 106970 200000 100000 100002 100005 100007 100000 100000 100000 100000
          100011 100437 100464 100519 100605 100725 100885 101091 101351 101673 102067 102542
          103106 103752 104403 102560 200000 99997.2 99997.8 99999 99999.8 100000 100000 100000
          100000 100010 100397 100422 100473 100552 100662 100808 100994 101229 101517 101867
          102288 102792 103413 104313 107911 97964 99992.1 99992.3 99992.8 99993.2 99999.9 100000
          100000 100000 100009 100357 100379 100425 100496 100595 100725 100891 101097 101349
          101652 102011 102436 102949 103614 103562 103078 99985.9 99986 99986.3 99986.5 99999.7
          100000 100000 100000 100008 100315 100335 100376 100439 100527 100641 100785 100962
          101176 101429 101721 102051 102405 102687 102770 102752 99978.8 99978.8 99979 99979.1
          99999.4 100000 100000 100000 100007 100273 100291 100327 100382 100458 100556 100679
          100829 101006 101210 101439 101683 101916 102097 102193 102219 99970.5 99970.5 99970.7
          99970.8 99999.1 100000 100000 100000 100005 100232 100248 100279 100326 100391 100474
          100577 100701 100844 101007 101182 101360 101524 101652 101730 101755 99960.9 99961
          99961.1 99961.3 99998.8 100000 100000 100000 100004 100192 100205 100232 100272 100327
          100397 100482 100583 100698 100825 100958 101089 101208 101301 101360 101380 99949.9
          99949.9 99950.1 99950.3 99998.4 100000 100000 100000 100003 100152 100164 100187 100221
          100267 100325 100395 100477 100569 100668 100769 100868 100955 101024 101067 101082
          99937 99937.1 99937.3 99937.6 99997.8 100000 100000 100000 100002 100114 100124 100144
          100173 100213 100261 100319 100385 100459 100536 100615 100690 100755 100807 100840
          100851 99922.2 99922.4 99922.8 99923 99997.2 99999.9 100000 100000 100001 100075 100085
          100103 100130 100163 100205 100253 100308 100368 100430 100492 100551 100601 100641
          100666 100675 99904.8 99905.5 99907.3 99906 99994.8 99997.8 99998.3 99998.6 99998.6 100036
          100048 100066 100090 100120 100156 100198 100245 100295 100347 100399 100446 100488
          100519 100540 100546 99884 99885.2 99889.4 99901.4 99909.4 99926 99941.2 99956.9 99975.2
          99994 100012 100032 100055 100083 100116 100154 100196 100241 100287 100332 100374
          100410 100437 100455 100460 99858.8 99860.3 99865.6 99874.2 99885.2 99898.7 99913.6 99929.3
          99946.2 99963.9 99982 100002 100025 100052 100084 100121 100162 100205 100249 100292
          100332 100366 100392 100408 100414
        </DataArray>
        <DataArray type="Float32" Name="rho_l" NumberOfComponents="1" format="ascii">
          997.048 997.048 997.048 997.048 997.048 997.048 997.048 997.048 997.048 997.048 997.048 997.048
          997.048 997.048 997.048 997.048 997.048 997.048 997.048 997.048 997.048 997.048 997.048 997.048
          997.048 997.048 997.048 997.048 997.048 997.048 997.048 997.048 997.048 997.048 997.049 997.049
          997.049 997.049 997.049 997.049 997.049 997.049 997.05 997.05 997.05 997.05 997.052 997.052
          997.093 997.093 997.048 997.048 997.048 997.048 997.048 997.048 997.048 997.048 997.048 997.048
          997.048 997.048 997.048 997.048 997.048 997.048 997.048 997.049 997.049 997.049 997.049 997.05
          997.05 997.052 997.093 997.048 997.048 997.048 997.048 997.048 997.048 997.048 997.048 997.048
          997.048 997.048 997.048 997.048 997.048 997.048 997.048 997.048 997.048 997.049 997.049 997.049
          997.049 997.05 997.051 997.093 997.048 997.048 997.048 997.048 997.048 997.048 997.048 997.048
          997.048 997.048 997.048 997.048 997.048 997.048 997.048 997.048 997.048 997.048 997.049 997.049
          997.049 997.049 997.05 997.049 997.093 997.048 997.048 997.048 997.048 997.048 997.048 997.048
          997.048 997.048 997.048 997.048 997.048 997.048 997.048 997.048 997.048 997.048 997.048 997.049
          997.049 997.049 997.049 997.05 997.051 997.047 997.048 997.048 997.048 997.048 997.048 997.048
          997.048 997.048 997.048 997.048 997.048 997.048 997.048 997.048 997.048 997.048 997.048 997.048
          997.048 997.049 997.049 997.049 997.049 997.049 997.049 997.048 997.048 997.048 997.048 997.048
          997.048 997.048 997.048 997.048 997.048 997.048 997.048 997.048 997.048 997.048 997.048 997.048
          997.048 997.048 997.048 997.049 997.049 997.049 997.049 997.049 997.048 997.048 997.048 997.048
          997.048 997.048 997.048 997.048 997.048 997.048 997.048 997.048 997.048 997.048 997.048 997.048
          997.048 997.048 997.048 997.048 997.048 997.049 997.049 997.049 997.049 997.048 997.048 997.048
          997.048 997.048 997.048 997.048 997.048 997.048 997.048 997.048 997.048 997.048 997.048 997.048
          997.048 997.048 997.048 997.048 997.048 997.048 997.048 997.048 997.048 997.048 997.048 997.048
          997.048 997.048 997.048 997.048 997.048 997.048 997.048 997.048 997.048 997.048 997.048 997.048
          997.048 997.048 997.048 997.048 997.048 997.048 997.048 997.048 997.048 997.048 997.048 997.048
          997.048 997.048 997.048 997.048 997.048 997.048 997.048 997.048 997.048 997.048 997.048 997.048
          997.048 997.048 997.048 997.048 997.048 997.048 997.048 997.048 997.048 997.048 997.048 997.048
          997.048 997.048 997.048 997.048 997.048 997.048 997.048 997.048 997.048 997.048 997.048 997.048
          997.048 997.048 997.048 997.048 997.048 997.048 997.048 997.048 997.048 997.048 997.048 997.048
          997.048 997.048 997.048 997.048 997.048 997.048 997.048 997.048 997.048 997.048 997.048 997.048
          997.048 997.048 997.048 997.048 997.048 997.048 997.048 997.048 997.048 997.048 997.048 997.048
          997.048 997.048 997.048 997.048 997.048 997.048 997.048 997.048 997.048 997.048 997.048 997.048
          997.048 997.048 997.048 997.048 997.048 997.048 997.048 997.048 997.048 997.048 997.048 997.048
          997.048 997.048 997.048 997.048 997.048 997.048 997.048 997.048 997.048 997.048 997.048 997.048
          997.048 997.048 997.048 997.048 997.048 997.048 997.048 997.048 997.048 997.048 997.048 997.048
          997.048 997.048 997.048 997.048 997.048 997.048 997.048 997.048 997.048 997.048 997.048 997.048
          997.048 997.048 997.048 997.048 997.048 997.048 997.048 997.048 997.048 997.048 997.048 997.048
          997.048 997.048 997.048 997.048 997.048
        </DataArray>
        <DataArray type="Float32" Name="rho_g" NumberOfComponents="1" format="ascii">
          1.12601 1.12649 1.12601 1.12627 1.12671 1.12645 1.12682 1.12653 1.12607 1.12604 1.12603 1.12601
          1.12603 1.12601 1.12603 1.12602 1.12622 1.12619 1.1325 1.13214 1.13282 1.13248 1.13353 1.13319
          1.13465 1.1343 1.13623 1.13586 1.13836 1.13797 1.14113 1.1407 1.14466 1.1442 1.14913 1.1486
          1.15472 1.1541 1.16167 1.16091 1.17008 1.1691 1.17868 1.17753 1.1864 1.18581 1.23776 1.22521
          1.45345 1.45345 1.12601 1.12616 1.12627 1.12633 1.12603 1.12601 1.12601 1.12602 1.12617 1.13176
          1.1321 1.13279 1.13387 1.13539 1.13743 1.14008 1.14345 1.14767 1.15292 1.15935 1.16695 1.17452
          1.17986 1.21534 1.45345 1.12601 1.12609 1.12616 1.12619 1.12602 1.12601 1.12601 1.12602 1.12616
          1.13136 1.13169 1.13235 1.13338 1.13482 1.13676 1.13926 1.14244 1.1464 1.15128 1.15719 1.1641
          1.17081 1.17113 1.19603 1.45345 1.12601 1.12604 1.12607 1.12609 1.12602 1.12601 1.12601 1.12601
          1.12614 1.13093 1.13124 1.13186 1.13282 1.13418 1.13598 1.1383 1.14122 1.14485 1.14929 1.15464
          1.16096 1.16802 1.17352 1.14619 1.45345 1.12598 1.12599 1.126 1.12601 1.12601 1.12601 1.12601
          1.12601 1.12613 1.13049 1.13077 1.13134 1.13223 1.13347 1.13511 1.13721 1.13985 1.1431 1.14704
          1.15177 1.15739 1.16362 1.1687 1.20666 1.09425 1.12592 1.12593 1.12593 1.12594 1.12601 1.12601
          1.12601 1.12601 1.12611 1.13003 1.13028 1.1308 1.1316 1.13271 1.13418 1.13605 1.13837 1.1412
          1.14461 1.14865 1.15343 1.15906 1.16538 1.16144 1.15857 1.12586 1.12586 1.12586 1.12586 1.12601
          1.12601 1.12601 1.12601 1.1261 1.12956 1.12979 1.13025 1.13096 1.13194 1.13323 1.13485 1.13685
          1.13926 1.1421 1.14539 1.14911 1.15308 1.15611 1.15658 1.15685 1.12577 1.12577 1.12578 1.12578
          1.12601 1.12601 1.12601 1.12601 1.12609 1.12909 1.12929 1.1297 1.13032 1.13117 1.13228 1.13366
          1.13534 1.13734 1.13964 1.14222 1.14496 1.14759 1.14961 1.15066 1.15099 1.12568 1.12568 1.12568
          1.12568 1.126 1.12601 1.12601 1.12601 1.12607 1.12863 1.1288 1.12915 1.12969 1.13041 1.13135
          1.13251 1.1339 1.13552 1.13735 1.13932 1.14133 1.14317 1.14461 1.14549 1.14578 1.12557 1.12557
          1.12558 1.12558 1.126 1.12601 1.12601 1.12601 1.12606 1.12817 1.12832 1.12862 1.12908 1.12969
          1.13048 1.13144 1.13257 1.13387 1.1353 1.1368 1.13828 1.13961 1.14066 1.14133 1.14155 1.12545
          1.12545 1.12545 1.12545 1.12599 1.12601 1.12601 1.12601 1.12605 1.12773 1.12786 1.12812 1.1285
          1.12902 1.12968 1.13047 1.13138 1.13242 1.13353 1.13468 1.13578 1.13677 1.13754 1.13803 1.1382
          1.1253 1.12531 1.12531 1.12531 1.12599 1.12601 1.12601 1.12601 1.12603 1.12729 1.12741 1.12763
          1.12797 1.12841 1.12895 1.1296 1.13035 1.13118 1.13205 1.13294 1.13378 1.13452 1.1351 1.13547
          1.13559 1.12514 1.12514 1.12514 1.12515 1.12598 1.12601 1.12601 1.12601 1.12602 1.12686 1.12697
          1.12718 1.12747 1.12785 1.12832 1.12886 1.12948 1.13015 1.13085 1.13155 1.13221 1.13279 1.13323
          1.13351 1.13361 1.12494 1.12495 1.12497 1.12496 1.12596 1.12599 1.12599 1.126 1.126 1.12642
          1.12655 1.12675 1.12703 1.12737 1.12777 1.12825 1.12877 1.12934 1.12992 1.1305 1.13104 1.1315
          1.13186 1.13209 1.13217 1.12471 1.12472 1.12477 1.1249 1.12499 1.12518 1.12535 1.12553 1.12573
          1.12595 1.12615 1.12637 1.12663 1.12695 1.12732 1.12775 1.12822 1.12873 1.12925 1.12976 1.13022
          1.13063 1.13094 1.13113 1.1312 1.12442 1.12444 1.1245 1.1246 1.12472 1.12487 1.12504 1.12522
          1.12541 1.12561 1.12581 1.12603 1.12629 1.1266 1.12696 1.12738 1.12783 1.12832 1.12882 1.1293
          1.12975 1.13013 1.13042 1.13061 1.13067
        </DataArray>
        <DataArray type="Float32" Name="lambda_l" NumberOfComponents="1" format="ascii">
          0 0 0 0 0 0 0 0 0 0 0 0
          0 0 0 0 0 0 0 0 0 0 0 0
          0 0 0 0 0 0 0 0 0 0 0 0
          0 0 0 0 0 0 0 0 0.508666 0.291607 728.675 625.04
          1123.58 1123.58 0 0 0 0 0 0 0 0 0 0
          0 0 0 0 0 0 0 0 0 0 0 0
          0.218287 630.089 1123.58 0 0 0 0 0 0 0 0 0
          0 0 0 0 0 0 0 0 0 0 0 0
          0 0.0625786 633.415 1123.58 0 0 0 0 0 0 0 0
          0 0 0 0 0 0 0 0 0 0 0 0
          0 0 0 530.696 1123.58 0 0 0 0 0 0 0
          0 0 0 0 0 0 0 0 0 0 0 0
          0 0 0 0 0.622697 314.713 0 0 0 0 0 0
          0 0 0 0 0 0 0 0 0 0 0 0
          0 0 0 0 0 0 0 0 0 0 0 0
          0 0 0 0 0 0 0 0 0 0 0 0
          0 0 0 0 0 0 0 0 0 0 0 0
          0 0 0 0 0 0 0 0 0 0 0 0
          0 0 0 0 0 0 0 0 0 0 0 0
          0 0 0 0 0 0 0 0 0 0 0 0
          0 0 0 0 0 0 0 0 0 0 0 0
          0 0 0 0 0 0 0 0 0 0 0 0
          0 0 0 0 0 0 0 0 0 0 0 0
          0 0 0 0 0 0 0 0 0 0 0 0
          0 0 0 0 0 0 0 0 0 0 0 0
          0 0 0 0 0 0 0 0 0 0 0 0
          0 0 0 0 0 0 0 0 0 0 0 0
          0 0 0 0 0 0 0 0 0 0 0 0
          0 0 0 0 0 0 0 0 0 0 0 0
          0 0 0 0 0 0 0 0 0 0 0 0
          0 0 0 0 0 0 0 0 0 0 0 0
          0 0 0 0 0 0 0 0 0 0 0 0
          0 0 0 0 0 0 0 0 0 0 0 0
          0 0 0 0 0 0 0 0 0 0 0 0
          0 0 0 0 0 0 0 0 0 0 0 0
          0 0 0 0 0
        </DataArray>
        <DataArray type="Float32" Name="lambda_g" NumberOfComponents="1" format="ascii">
          56746.7 56746.7 56746.7 56746.7 56746.7 56746.7 56746.7 56746.7 56746.7 56746.7 56746.7 56746.7
          56746.7 56746.7 56746.7 56746.7 56746.7 56746.7 56746.7 56746.7 56746.7 56746.7 56746.7 56746.7
          56746.7 56746.7 56746.7 56746.7 56746.7 56746.7 56746.7 56746.7 56746.7 56746.7 56746.7 56746.7
          56746.7 56746.7 56746.7 56746.7 56746.7 56746.7 56746.7 56746.7 56721 56732 19944.4 25178.6
          0 0 56746.7 56746.7 56746.7 56746.7 56746.7 56746.7 56746.7 56746.7 56746.7 56746.7
          56746.7 56746.7 56746.7 56746.7 56746.7 56746.7 56746.7 56746.7 56746.7 56746.7 56746.7 56746.7
          56735.7 24923.6 0 56746.7 56746.7 56746.7 56746.7 56746.7 56746.7 56746.7 56746.7 56746.7
          56746.7 56746.7 56746.7 56746.7 56746.7 56746.7 56746.7 56746.7 56746.7 56746.7 56746.7 56746.7
          56746.7 56743.6 24755.6 0 56746.7 56746.7 56746.7 56746.7 56746.7 56746.7 56746.7 56746.7
          56746.7 56746.7 56746.7 56746.7 56746.7 56746.7 56746.7 56746.7 56746.7 56746.7 56746.7 56746.7
          56746.7 56746.7 56746.7 29943.5 0 56746.7 56746.7 56746.7 56746.7 56746.7 56746.7 56746.7
          56746.7 56746.7 56746.7 56746.7 56746.7 56746.7 56746.7 56746.7 56746.7 56746.7 56746.7 56746.7
          56746.7 56746.7 56746.7 56746.7 56715.3 40851.9 56746.7 56746.7 56746.7 56746.7 56746.7 56746.7
          56746.7 56746.7 56746.7 56746.7 56746.7 56746.7 56746.7 56746.7 56746.7 56746.7 56746.7 56746.7
          56746.7 56746.7 56746.7 56746.7 56746.7 56746.7 56746.7 56746.7 56746.7 56746.7 56746.7 56746.7
          56746.7 56746.7 56746.7 56746.7 56746.7 56746.7 56746.7 56746.7 56746.7 56746.7 56746.7 56746.7
          56746.7 56746.7 56746.7 56746.7 56746.7 56746.7 56746.7 56746.7 56746.7 56746.7 56746.7 56746.7
          56746.7 56746.7 56746.7 56746.7 56746.7 56746.7 56746.7 56746.7 56746.7 56746.7 56746.7 56746.7
          56746.7 56746.7 56746.7 56746.7 56746.7 56746.7 56746.7 56746.7 56746.7 56746.7 56746.7 56746.7
          56746.7 56746.7 56746.7 56746.7 56746.7 56746.7 56746.7 56746.7 56746.7 56746.7 56746.7 56746.7
          56746.7 56746.7 56746.7 56746.7 56746.7 56746.7 56746.7 56746.7 56746.7 56746.7 56746.7 56746.7
          56746.7 56746.7 56746.7 56746.7 56746.7 56746.7 56746.7 56746.7 56746.7 56746.7 56746.7 56746.7
          56746.7 56746.7 56746.7 56746.7 56746.7 56746.7 56746.7 56746.7 56746.7 56746.7 56746.7 56746.7
          56746.7 56746.7 56746.7 56746.7 56746.7 56746.7 56746.7 56746.7 56746.7 56746.7 56746.7 56746.7
          56746.7 56746.7 56746.7 56746.7 56746.7 56746.7 56746.7 56746.7 56746.7 56746.7 56746.7 56746.7
          56746.7 56746.7 56746.7 56746.7 56746.7 56746.7 56746.7 56746.7 56746.7 56746.7 56746.7 56746.7
          56746.7 56746.7 56746.7 56746.7 56746.7 56746.7 56746.7 56746.7 56746.7 56746.7 56746.7 56746.7
          56746.7 56746.7 56746.7 56746.7 56746.7 56746.7 56746.7 56746.7 56746.7 56746.7 56746.7 56746.7
          56746.7 56746.7 56746.7 56746.7 56746.7 56746.7 56746.7 56746.7 56746.7 56746.7 56746.7 56746.7
          56746.7 56746.7 56746.7 56746.7 56746.7 56746.7 56746.7 56746.7 56746.7 56746.7 56746.7 56746.7
          56746.7 56746.7 56746.7 56746.7 56746.7 56746.7 56746.7 56746.7 56746.7 56746.7 56746.7 56746.7
          56746.7 56746.7 56746.7 56746.7 56746.7 56746.7 56746.7 56746.7 56746.7 56746.7 56746.7 56746.7
          56746.7 56746.7 56746.7 56746.7 56746.7 56746.7 56746.7 56746.7 56746.7 56746.7 56746.7 56746.7
          56746.7 56746.7 56746.7 56746.7 56746.7 56746.7 56746.7 56746.7 56746.7 56746.7 56746.7 56746.7
          56746.7 56746.7 56746.7 56746.7 56746.7 56746.7 56746.7 56746.7 56746.7 56746.7 56746.7 56746.7
          56746.7 56746.7 56746.7 56746.7 56746.7
        </DataArray>
        <DataArray type="Float32" Name="porosity" NumberOfComponents="1" format="ascii">
          0.3 0.3 0.3 0.3 0.3 0.3 0.3 0.3 0.3 0.3 0.3 0.3
          0.3 0.3 0.3 0.3 0.3 0.3 0.3 0.3 0.3 0.3 0.3 0.3
          0.3 0.3 0.3 0.3 0.3 0.3 0.3 0.3 0.3 0.3 0.3 0.3
          0.3 0.3 0.3 0.3 0.3 0.3 0.3 0.3 0.3 0.3 0.3 0.3
          0.3 0.3 0.3 0.3 0.3 0.3 0.3 0.3 0.3 0.3 0.3 0.3
          0.3 0.3 0.3 0.3 0.3 0.3 0.3 0.3 0.3 0.3 0.3 0.3
          0.3 0.3 0.3 0.3 0.3 0.3 0.3 0.3 0.3 0.3 0.3 0.3
          0.3 0.3 0.3 0.3 0.3 0.3 0.3 0.3 0.3 0.3 0.3 0.3
          0.3 0.3 0.3 0.3 0.3 0.3 0.3 0.3 0.3 0.3 0.3 0.3
          0.3 0.3 0.3 0.3 0.3 0.3 0.3 0.3 0.3 0.3 0.3 0.3
          0.3 0.3 0.3 0.3 0.3 0.3 0.3 0.3 0.3 0.3 0.3 0.3
          0.3 0.3 0.3 0.3 0.3 0.3 0.3 0.3 0.3 0.3 0.3 0.3
          0.3 0.3 0.3 0.3 0.3 0.3 0.3 0.3 0.3 0.3 0.3 0.3
          0.3 0.3 0.3 0.3 0.3 0.3 0.3 0.3 0.3 0.3 0.3 0.3
          0.3 0.3 0.3 0.3 0.3 0.3 0.3 0.3 0.3 0.3 0.3 0.3
          0.3 0.3 0.3 0.3 0.3 0.3 0.3 0.3 0.3 0.3 0.3 0.3
          0.3 0.3 0.3 0.3 0.3 0.3 0.3 0.3 0.3 0.3 0.3 0.3
          0.3 0.3 0.3 0.3 0.3 0.3 0.3 0.3 0.3 0.3 0.3 0.3
          0.3 0.3 0.3 0.3 0.3 0.3 0.3 0.3 0.3 0.3 0.3 0.3
          0.3 0.3 0.3 0.3 0.3 0.3 0.3 0.3 0.3 0.3 0.3 0.3
          0.3 0.3 0.3 0.3 0.3 0.3 0.3 0.3 0.3 0.3 0.3 0.3
          0.3 0.3 0.3 0.3 0.3 0.3 0.3 0.3 0.3 0.3 0.3 0.3
          0.3 0.3 0.3 0.3 0.3 0.3 0.3 0.3 0.3 0.3 0.3 0.3
          0.3 0.3 0.3 0.3 0.3 0.3 0.3 0.3 0.3 0.3 0.3 0.3
          0.3 0.3 0.3 0.3 0.3 0.3 0.3 0.3 0.3 0.3 0.3 0.3
          0.3 0.3 0.3 0.3 0.3 0.3 0.3 0.3 0.3 0.3 0.3 0.3
          0.3 0.3 0.3 0.3 0.3 0.3 0.3 0.3 0.3 0.3 0.3 0.3
          0.3 0.3 0.3 0.3 0.3 0.3 0.3 0.3 0.3 0.3 0.3 0.3
          0.3 0.3 0.3 0.3 0.3 0.3 0.3 0.3 0.3 0.3 0.3 0.3
          0.3 0.3 0.3 0.3 0.3 0.3 0.3 0.3 0.3 0.3 0.3 0.3
          0.3 0.3 0.3 0.3 0.3 0.3 0.3 0.3 0.3 0.3 0.3 0.3
          0.3 0.3 0.3 0.3 0.3 0.3 0.3 0.3 0.3 0.3 0.3 0.3
          0.3 0.3 0.3 0.3 0.3 0.3 0.3 0.3 0.3 0.3 0.3 0.3
          0.3 0.3 0.3 0.3 0.3 0.3 0.3 0.3 0.3 0.3 0.3 0.3
          0.3 0.3 0.3 0.3 0.3 0.3 0.3 0.3 0.3 0.3 0.3 0.3
          0.3 0.3 0.3 0.3 0.3
        </DataArray>
        <DataArray type="Float32" Name="x_l^H2O" NumberOfComponents="1" format="ascii">
          0.315483 0.315617 0.315483 0.315555 0.315678 0.315604 0.31571 0.315627 0.315498 0.31549 0.315488 0.315483
          0.315488 0.315483 0.315488 0.315483 0.31554 0.315532 0.317299 0.317199 0.31739 0.317295 0.317589 0.317493
          0.317902 0.317803 0.318345 0.318242 0.318941 0.318832 0.319717 0.319598 0.320708 0.320578 0.321967 0.321818
          0.323692 0.323496 0.32812 0.327589 0.357804 0.354514 0.553887 0.534525 0.999988 0.999988 0.999988 0.999988
          1 1 0.315483 0.315524 0.315555 0.315571 0.315487 0.315483 0.315483 0.315483 0.315527 0.317093
          0.317188 0.317382 0.317684 0.31811 0.318681 0.319423 0.320367 0.321555 0.323114 0.326417 0.346932 0.498548
          0.999988 0.999988 1 0.315483 0.315505 0.315523 0.315532 0.315485 0.315483 0.315483 0.315483 0.315523
          0.316981 0.317072 0.317257 0.317545 0.317951 0.318493 0.319195 0.320084 0.321196 0.322603 0.324997 0.337042
          0.436752 0.999988 0.999988 1 0.315483 0.31549 0.315499 0.315504 0.315484 0.315483 0.315483 0.315483
          0.315519 0.316861 0.316947 0.317121 0.317391 0.31777 0.318274 0.318924 0.319744 0.320761 0.322009 0.323611
          0.326937 0.34629 0.491527 0.999988 1 0.315474 0.315476 0.315479 0.315482 0.315483 0.315483 0.315483
          0.315483 0.315515 0.316736 0.316815 0.316976 0.317224 0.317571 0.318031 0.31862 0.319359 0.320269 0.321386
          0.322995 0.329493 0.39073 0.78931 0.999988 0.999989 0.315458 0.315458 0.31546 0.315461 0.315482 0.315483
          0.315483 0.315483 0.315511 0.316607 0.316679 0.316824 0.317048 0.31736 0.317771 0.318294 0.318945 0.319739
          0.320695 0.321873 0.324091 0.337455 0.431224 0.693563 0.490148 0.315438 0.315439 0.315439 0.31544 0.315482
          0.315483 0.315483 0.315483 0.315507 0.316476 0.316541 0.31667 0.316869 0.317144 0.317504 0.317959 0.318519
          0.319193 0.31999 0.320917 0.322034 0.324289 0.336073 0.37348 0.335475 0.315416 0.315416 0.315416 0.315417
          0.315481 0.315483 0.315483 0.315483 0.315503 0.316345 0.316402 0.316515 0.316688 0.316927 0.317237 0.317625
          0.318096 0.318655 0.319301 0.320023 0.320796 0.321602 0.322904 0.326102 0.323195 0.31539 0.31539 0.31539
          0.315391 0.31548 0.315483 0.315483 0.315483 0.3155 0.316215 0.316264 0.316362 0.316512 0.316716 0.316978
          0.317303 0.317693 0.318147 0.318658 0.319211 0.319773 0.320292 0.32073 0.321125 0.321054 0.315359 0.31536
          0.31536 0.315361 0.315479 0.315483 0.315483 0.315483 0.315496 0.316088 0.31613 0.316214 0.316341 0.316514
          0.316734 0.317003 0.317321 0.317684 0.318084 0.318504 0.318919 0.319293 0.319588 0.319779 0.319837 0.315324
          0.315325 0.315325 0.315326 0.315477 0.315483 0.315483 0.315483 0.315492 0.315963 0.316 0.316072 0.31618
          0.316326 0.316509 0.31673 0.316988 0.317277 0.317589 0.31791 0.31822 0.318496 0.318712 0.31885 0.318897
          0.315284 0.315284 0.315285 0.315286 0.315476 0.315483 0.315483 0.315483 0.315489 0.315841 0.315873 0.315936
          0.31603 0.316153 0.316306 0.316489 0.316698 0.316929 0.317174 0.317422 0.317659 0.317866 0.318028 0.318131
          0.318166 0.315237 0.315238 0.315239 0.31524 0.315474 0.315482 0.315483 0.315483 0.315485 0.315721 0.315751
          0.315809 0.315891 0.315998 0.316128 0.316281 0.316454 0.316642 0.316839 0.317035 0.31722 0.31738 0.317505
          0.317584 0.317611 0.315182 0.315184 0.31519 0.315186 0.315466 0.315476 0.315477 0.315478 0.315478 0.315596
          0.315633 0.31569 0.315766 0.315861 0.315976 0.316108 0.316255 0.316414 0.316578 0.31674 0.316891 0.317021
          0.317121 0.317185 0.317206 0.315117 0.315121 0.315134 0.315172 0.315197 0.315249 0.315297 0.315347 0.315405
          0.315464 0.315522 0.315582 0.315656 0.315744 0.315849 0.315969 0.316102 0.316244 0.316389 0.316531 0.316662
          0.316775 0.316862 0.316917 0.316935 0.315037 0.315042 0.315058 0.315086 0.31512 0.315163 0.31521 0.31526
          0.315313 0.315369 0.315426 0.315488 0.315561 0.315647 0.315749 0.315865 0.315993 0.316129 0.316268 0.316403
          0.316529 0.316636 0.316718 0.31677 0.316788
        </DataArray>
        <DataArray type="Float32" Name="x_l^N2" NumberOfComponents="1" format="ascii">
          1.14721e-05 1.1477e-05 1.14721e-05 1.14747e-05 1.14792e-05 1.14765e-05 1.14804e-05 1.14774e-05 1.14727e-05 1.14724e-05 1.14723e-05 1.14721e-05
          1.14723e-05 1.14721e-05 1.14723e-05 1.14721e-05 1.14742e-05 1.14739e-05 1.15382e-05 1.15345e-05 1.15415e-05 1.1538e-05 1.15487e-05 1.15452e-05
          1.15601e-05 1.15565e-05 1.15762e-05 1.15725e-05 1.15979e-05 1.15939e-05 1.16261e-05 1.16218e-05 1.16621e-05 1.16574e-05 1.17076e-05 1.17022e-05
          1.17646e-05 1.17582e-05 1.18348e-05 1.18271e-05 1.1914e-05 1.19047e-05 1.19559e-05 1.19487e-05 1.19296e-05 1.19236e-05 1.24563e-05 1.23276e-05