<?xml version="1.0"?>
<VTKFile type="UnstructuredGrid" version="0.1" byte_order="LittleEndian">
  <UnstructuredGrid>
    <Piece NumberOfCells="384" NumberOfPoints="425">
      <PointData Scalars="S_l">
        <DataArray type="Float32" Name="S_l" NumberOfComponents="1" format="ascii">
          0 0 0 0 0 0 0 0 0 0 0 0
          0 0 0 0 0 0 0 0 0 0 0 0
          0 0 0 0 0 0 0 0 0 0 0 0
          0 0 0 0 0 0 0 0 0.00725849 0.00546919 0.640105 0.553187
          1 1 0 0 0 0 0 0 0 0 0 0
          0 0 0 0 0 0 0 0 0 0 0 0
          0.00473169 0.557441 1 0 0 0 0 0 0 0 0 0
          0 0 0 0 0 0 0 0 0 0 0 0
          0 0.00256341 0.560291 1 0 0 0 0 0 0 0 0
          0 0 0 0 0 0 0 0 0 0 0 0
          0 0 0 0.473873 1 0 0 0 0 0 0 0
          0 0 0 0 0 0 0 0 0 0 0 0
          0 0 0 0 0.00781233 0.291694 0 0 0 0 0 0
          0 0 0 0 0 0 0 0 0 0 0 0
          0 0 0 0 0 0 0 0 0 0 0 0
          0 0 0 0 0 0 0 0 0 0 0 0
          0 0 0 0 0 0 0 0 0 0 0 0
          0 0 0 0 0 0 0 0 0 0 0 0
          0 0 0 0 0 0 0 0 0 0 0 0
          0 0 0 0 0 0 0 0 0 0 0 0
          0 0 0 0 0 0 0 0 0 0 0 0
          0 0 0 0 0 0 0 0 0 0 0 0
          0 0 0 0 0 0 0 0 0 0 0 0
          0 0 0 0 0 0 0 0 0 0 0 0
          0 0 0 0 0 0 0 0 0 0 0 0
          0 0 0 0 0 0 0 0 0 0 0 0
          0 0 0 0 0 0 0 0 0 0 0 0
          0 0 0 0 0 0 0 0 0 0 0 0
          0 0 0 0 0 0 0 0 0 0 0 0
          0 0 0 0 0 0 0 0 0 0 0 0
          0 0 0 0 0 0 0 0 0 0 0 0
          0 0 0 0 0 0 0 0 0 0 0 0
          0 0 0 0 0 0 0 0 0 0 0 0
          0 0 0 0 0 0 0 0 0 0 0 0
          0 0 0 0 0 0 0 0 0 0 0 0
          0 0 0 0 0
        </DataArray>
        <DataArray type="Float32" Name="S_g" NumberOfComponents="1" format="ascii">
          1 1 1 1 1 1 1 1 1 1 1 1
          1 1 1 1 1 1 1 1 1 1 1 1
          1 1 1 1 1 1 1 1 1 1 1 1
          1 1 1 1 1 1 1 1 0.992742 0.994531 0.359895 0.446813
          0 0 1 1 1 1 1 1 1 1 1 1
          1 1 1 1 1 1 1 1 1 1 1 1
          0.995268 0.442559 0 1 1 1 1 1 1 1 1 1
          1 1 1 1 1 1 1 1 1 1 1 1
          1 0.997437 0.439709 0 1 1 1 1 1 1 1 1
          1 1 1 1 1 1 1 1 1 1 1 1
          1 1 1 0.526127 0 1 1 1 1 1 1 1
          1 1 1 1 1 1 1 1 1 1 1 1
          1 1 1 1 0.992188 0.708306 1 1 1 1 1 1
          1 1 1 1 1 1 1 1 1 1 1 1
          1 1 1 1 1 1 1 1 1 1 1 1
          1 1 1 1 1 1 1 1 1 1 1 1
          1 1 1 1 1 1 1 1 1 1 1 1
          1 1 1 1 1 1 1 1 1 1 1 1
          1 1 1 1 1 1 1 1 1 1 1 1
          1 1 1 1 1 1 1 1 1 1 1 1
          1 1 1 1 1 1 1 1 1 1 1 1
          1 1 1 1 1 1 1 1 1 1 1 1
          1 1 1 1 1 1 1 1 1 1 1 1
          1 1 1 1 1 1 1 1 1 1 1 1
          1 1 1 1 1 1 1 1 1 1 1 1
          1 1 1 1 1 1 1 1 1 1 1 1
          1 1 1 1 1 1 1 1 1 1 1 1
          1 1 1 1 1 1 1 1 1 1 1 1
          1 1 1 1 1 1 1 1 1 1 1 1
          1 1 1 1 1 1 1 1 1 1 1 1
          1 1 1 1 1 1 1 1 1 1 1 1
          1 1 1 1 1 1 1 1 1 1 1 1
          1 1 1 1 1 1 1 1 1 1 1 1
          1 1 1 1 1 1 1 1 1 1 1 1
          1 1 1 1 1 1 1 1 1 1 1 1
          1 1 1 1 1
        </DataArray>
        <DataArray type="Float32" Name="p_l" NumberOfComponents="1" format="ascii">
          100000 100043 100000 100023 100062 100039 100072 100046 100005 100002 100002 100000
          100002 100000 100002 100000 100018 100016 100576 100544 100604 100574 100667 100637
          100767 100736 100908 100875 101097 101062 101343 101305 101657 101616 102054 102007
          102551 102496 103171 103103 103948 103858 104930 104807 106115 106062 110643 109539
          200000 200000 100000 100013 100023 100028 100001 100000 100000 100000 100014 100510
          100540 100602 100698 100833 101014 101249 101549 101925 102391 102964 103660 104499
          105537 108668 200000 100000 100007 100013 100016 100001 100000 100000 100000 100013
          100474 100503 100562 100654 100783 100955 101177 101459 101812 102245 102771 103396
          104102 104765 106961 200000 100000 100002 100005 100007 100000 100000 100000 100000
          100011 100437 100464 100519 100605 100725 100885 101091 101351 101674 102068 102544
          103107 103753 104402 102557 200000 99997.2 99997.8 99999 99999.7 100000 100000 100000
          100000 100010 100397 100422 100473 100552 100662 100808 100995 101229 101518 101868
          102289 102793 103414 104313 107909 97962.7 99992.1 99992.3 99992.8 99993.2 99999.9 100000
          100000 100000 100009 100356 100379 100425 100496 100595 100725 100891 101098 101350
          101652 102012 102437 102950 103615 103562 103078 99985.9 99986 99986.2 99986.5 99999.7
          100000 100000 100000 100008 100315 100335 100376 100439 100526 100641 100785 100963
          101177 101430 101722 102052 102406 102688 102771 102752 99978.8 99978.8 99978.9 99979.1
          99999.4 100000 100000 100000 100007 100273 100291 100327 100382 100458 100556 100679
          100829 101006 101211 101440 101684 101917 102098 102194 102220 99970.5 99970.5 99970.6
          99970.8 99999.1 100000 100000 100000 100005 100232 100247 100278 100326 100391 100474
          100577 100701 100845 101007 101182 101360 101524 101652 101731 101756 99960.9 99960.9
          99961.1 99961.3 99998.8 100000 100000 100000 100004 100191 100205 100231 100272 100327
          100396 100482 100583 100698 100825 100958 101090 101208 101301 101360 101380 99949.8
          99949.9 99950 99950.2 99998.4 100000 100000 100000 100003 100152 100163 100186 100221
          100267 100325 100395 100477 100569 100668 100769 100868 100955 101024 101068 101083
          99937 99937.1 99937.3 99937.5 99997.8 100000 100000 100000 100002 100113 100123 100143
          100173 100212 100261 100319 100385 100458 100536 100615 100690 100756 100807 100840
          100851 99922.1 99922.4 99922.7 99922.9 99997.2 99999.9 100000 100000 100001 100075 100085
          100103 100129 100163 100204 100253 100308 100367 100430 100492 100551 100601 100641
          100666 100675 99904.7 99905.4 99907.2 99905.9 99994.8 99997.8 99998.3 99998.5 99998.5 100036
          100047 100065 100089 100120 100156 100198 100245 100295 100347 100398 100446 100487
          100519 100539 100546 99883.9 99885.1 99889.3 99901.3 99909.2 99925.8 99940.9 99956.6 99974.8
          99993.6 100012 100031 100054 100083 100116 100154 100196 100241 100287 100332 100374
          100410 100437 100454 100460 99858.7 99860.2 99865.4 99874.1 99885 99898.4 99913.3 99929
          99945.8 99963.5 99981.6 100001 100024 100052 100084 100121 100161 100204 100249 100292
          100331 100365 100391 100408 100414
        </DataArray>
        <DataArray type="Float32" Name="p_g" NumberOfComponents="1" format="ascii">
          100000 100043 100000 100023 100062 100039 100072 100046 100005 100002 100002 100000
          100002 100000 100002 100000 100018 100016 100576 100544 100604 100574 100667 100637
          100767 100736 100908 100875 101097 101062 101343 101305 101657 101616 102054 102007
          102551 102496 103171 103103 103948 103858 104930 104807 106115 106062 110643 109539
          200000 200000 100000 100013 100023 100028 100001 100000 100000 100000 100014 100510
          100540 100602 100698 100833 101014 101249 101549 101925 102391 102964 103660 104499
          105537 108668 200000 100000 100007 100013 100016 100001 100000 100000 100000 100013
          100474 100503 100562 100654 100783 100955 101177 101459 101812 102245 102771 103396
          104102 104765 106961 200000 100000 100002 100005 100007 100000 100000 100000 100000
          100011 100437 100464 100519 100605 100725 100885 101091 101351 101674 102068 102544
          103107 103753 104402 102557 200000 99997.2 99997.8 99999 99999.7 100000 100000 100000
          100000 100010 100397 100422 100473 100552 100662 100808 100995 101229 101518 101868
          102289 102793 103414 104313 107909 97962.7 99992.1 99992.3 99992.8 99993.2 99999.9 100000
          100000 100000 100009 100356 100379 100425 100496 100595 100725 100891 101098 101350
          101652 102012 102437 102950 103615 103562 103078 99985.9 99986 99986.2 99986.5 99999.7
          100000 100000 100000 100008 100315 100335 100376 100439 100526 100641 100785 100963
          101177 101430 101722 102052 102406 102688 102771 102752 99978.8 99978.8 99978.9 99979.1
          99999.4 100000 100000 100000 100007 100273 100291 100327 100382 100458 100556 100679
          100829 101006 101211 101440 101684 101917 102098 102194 102220 99970.5 99970.5 99970.6
          99970.8 99999.1 100000 100000 100000 100005 100232 100247 100278 100326 100391 100474
          100577 100701 100845 101007 101182 101360 101524 101652 101731 101756 99960.9 99960.9
          99961.1 99961.3 99998.8 100000 100000 100000 100004 100191 100205 100231 100272 100327
          100396 100482 100583 100698 100825 100958 101090 101208 101301 101360 101380 99949.8
          99949.9 99950 99950.2 99998.4 100000 100000 100000 100003 100152 100163 100186 100221
          100267 100325 100395 100477 100569 100668 100769 100868 100955 101024 101068 101083
          99937 99937.1 99937.3 99937.5 99997.8 100000 100000 100000 100002 100113 100123 100143
          100173 100212 100261 100319 100385 100458 100536 100615 100690 100756 100807 100840
          100851 99922.1 99922.4 99922.7 99922.9 99997.2 99999.9 100000 100000 100001 100075 100085
          100103 100129 100163 100204 100253 100308 100367 100430 100492 100551 100601 100641
          100666 100675 99904.7 99905.4 99907.2 99905.9 99994.8 99997.8 99998.3 99998.5 99998.5 100036
          100047 100065 100089 100120 100156 100198 100245 100295 100347 100398 100446 100487
          100519 100539 100546 99883.9 99885.1 99889.3 99901.3 99909.2 99925.8 99940.9 99956.6 99974.8
          99993.6 100012 100031 100054 100083 100116 100154 100196 100241 100287 100332 100374
          100410 100437 100454 100460 99858.7 99860.2 99865.4 99874.1 99885 99898.4 99913.3 99929
          99945.8 99963.5 99981.6 100001 100024 100052 100084 100121 100161 100204 100249 100292
          100331 100365 100391 100408 100414
        </DataArray>
        <DataArray type="Float32" Name="rho_l" NumberOfComponents="1" format="ascii">
          997.048 997.048 997.048 997.048 997.048 997.048 997.048 997.048 997.048 997.048 997.048 997.048
          997.048 997.048 997.048 997.048 997.048 997.048 997.048 997.048 997.048 997.048 997.048 997.048
          997.048 997.048 997.048 997.048 997.048 997.048 997.048 997.048 997.048 997.048 997.049 997.049
          997.049 997.049 997.049 997.049 997.049 997.049 997.05 997.05 997.05 997.05 997.052 997.052
          997.093 997.093 997.048 997.048 997.048 997.048 997.048 997.048 997.048 997.048 997.048 997.048
          997.048 997.048 997.048 997.048 997.048 997.048 997.048 997.048 997.049 997.049 997.049 997.05
          997.05 997.052 997.093 997.048 997.048 997.048 997.048 997.048 997.048 997.048 997.048 997.048
          997.048 997.048 997.048 997.048 997.048 997.048 997.048 997.048 997.048 997.049 997.049 997.049
          997.049 997.05 997.051 997.093 997.048 997.048 997.048 997.048 997.048 997.048 997.048 997.048
          997.048 997.048 997.048 997.048 997.048 997.048 997.048 997.048 997.048 997.048 997.049 997.049
          997.049 997.049 997.05 997.049 997.093 997.048 997.048 997.048 997.048 997.048 997.048 997.048
          997.048 997.048 997.048 997.048 997.048 997.048 997.048 997.048 997.048 997.048 997.048 997.048
          997.049 997.049 997.049 997.05 997.051 997.047 997.048 997.048 997.048 997.048 997.048 997.048
          997.048 997.048 997.048 997.048 997.048 997.048 997.048 997.048 997.048 997.048 997.048 997.048
          997.048 997.049 997.049 997.049 997.049 997.049 997.049 997.048 997.048 997.048 997.048 997.048
          997.048 997.048 997.048 997.048 997.048 997.048 997.048 997.048 997.048 997.048 997.048 997.048
          997.048 997.048 997.048 997.049 997.049 997.049 997.049 997.049 997.048 997.048 997.048 997.048
          997.048 997.048 997.048 997.048 997.048 997.048 997.048 997.048 997.048 997.048 997.048 997.048
          997.048 997.048 997.048 997.048 997.048 997.048 997.049 997.049 997.049 997.048 997.048 997.048
          997.048 997.048 997.048 997.048 997.048 997.048 997.048 997.048 997.048 997.048 997.048 997.048
          997.048 997.048 997.048 997.048 997.048 997.048 997.048 997.048 997.048 997.048 997.048 997.048
          997.048 997.048 997.048 997.048 997.048 997.048 997.048 997.048 997.048 997.048 997.048 997.048
          997.048 997.048 997.048 997.048 997.048 997.048 997.048 997.048 997.048 997.048 997.048 997.048
          997.048 997.048 997.048 997.048 997.048 997.048 997.048 997.048 997.048 997.048 997.048 997.048
          997.048 997.048 997.048 997.048 997.048 997.048 997.048 997.048 997.048 997.048 997.048 997.048
          997.048 997.048 997.048 997.048 997.048 997.048 997.048 997.048 997.048 997.048 997.048 997.048
          997.048 997.048 997.048 997.048 997.048 997.048 997.048 997.048 997.048 997.048 997.048 997.048
          997.048 997.048 997.048 997.048 997.048 997.048 997.048 997.048 997.048 997.048 997.048 997.048
          997.048 997.048 997.048 997.048 997.048 997.048 997.048 997.048 997.048 997.048 997.048 997.048
          997.048 997.048 997.048 997.048 997.048 997.048 997.048 997.048 997.048 997.048 997.048 997.048
          997.048 997.048 997.048 997.048 997.048 997.048 997.048 997.048 997.048 997.048 997.048 997.048
          997.048 997.048 997.048 997.048 997.048 997.048 997.048 997.048 997.048 997.048 997.048 997.048
          997.048 997.048 997.048 997.048 997.048 997.048 997.048 997.048 997.048 997.048 997.048 997.048
          997.048 997.048 997.048 997.048 997.048 997.048 997.048 997.048 997.048 997.048 997.048 997.048
          997.048 997.048 997.048 997.048 997.048 997.048 997.048 997.048 997.048 997.048 997.048 997.048
          997.048 997.048 997.048 997.048 997.048
        </DataArray>
        <DataArray type="Float32" Name="rho_g" NumberOfComponents="1" format="ascii">
          1.12601 1.12649 1.12601 1.12627 1.12671 1.12645 1.12682 1.12653 1.12607 1.12604 1.12603 1.12601
          1.12603 1.12601 1.12603 1.12602 1.12622 1.12619 1.13249 1.13214 1.13282 1.13248 1.13353 1.13319
          1.13465 1.1343 1.13623 1.13586 1.13836 1.13797 1.14113 1.14071 1.14467 1.14421 1.14914 1.14862
          1.15474 1.15412 1.16169 1.16093 1.17008 1.16911 1.17863 1.17751 1.18636 1.18577 1.23753 1.22505
          0.0230357 0.0230357 1.12601 1.12616 1.12627 1.12633 1.12603 1.12601 1.12601 1.12602 1.12617 1.13176
          1.1321 1.13279 1.13387 1.13539 1.13743 1.14008 1.14345 1.14769 1.15294 1.15936 1.16697 1.17451
          1.17983 1.21521 0.0230357 1.12601 1.12609 1.12616 1.12619 1.12602 1.12601 1.12601 1.12601 1.12616
          1.13136 1.13168 1.13234 1.13337 1.13482 1.13676 1.13927 1.14245 1.14641 1.15129 1.15721 1.16411
          1.17082 1.17111 1.19592 0.0230357 1.12601 1.12604 1.12607 1.12609 1.12602 1.12601 1.12601 1.12601
          1.12614 1.13093 1.13124 1.13186 1.13282 1.13418 1.13598 1.1383 1.14123 1.14486 1.1493 1.15466
          1.16098 1.16803 1.17351 1.14615 0.0230357 1.12598 1.12599 1.126 1.12601 1.12601 1.12601 1.12601
          1.12601 1.12613 1.13048 1.13077 1.13134 1.13223 1.13347 1.13511 1.13721 1.13985 1.1431 1.14705
          1.15179 1.1574 1.16362 1.16866 1.20664 1.09424 1.12592 1.12593 1.12593 1.12594 1.12601 1.12601
          1.12601 1.12601 1.12611 1.13002 1.13028 1.1308 1.1316 1.13271 1.13418 1.13605 1.13838 1.14121
          1.14462 1.14867 1.15344 1.15907 1.16538 1.16143 1.15857 1.12585 1.12586 1.12586 1.12586 1.12601
          1.12601 1.12601 1.12601 1.1261 1.12956 1.12979 1.13025 1.13096 1.13194 1.13323 1.13485 1.13685
          1.13926 1.14211 1.14541 1.14912 1.15309 1.15612 1.15659 1.15686 1.12577 1.12577 1.12578 1.12578
          1.12601 1.12601 1.12601 1.12601 1.12609 1.12909 1.12929 1.12969 1.13031 1.13117 1.13227 1.13366
          1.13534 1.13734 1.13965 1.14223 1.14497 1.1476 1.14962 1.15067 1.151 1.12568 1.12568 1.12568
          1.12568 1.126 1.12601 1.12601 1.12601 1.12607 1.12862 1.1288 1.12915 1.12968 1.13041 1.13135
          1.13251 1.1339 1.13552 1.13735 1.13933 1.14133 1.14318 1.14462 1.1455 1.14579 1.12557 1.12557
          1.12557 1.12558 1.126 1.12601 1.12601 1.12601 1.12606 1.12817 1.12832 1.12862 1.12907 1.12969
          1.13048 1.13144 1.13257 1.13387 1.1353 1.1368 1.13828 1.13962 1.14067 1.14133 1.14156 1.12545
          1.12545 1.12545 1.12545 1.12599 1.12601 1.12601 1.12601 1.12605 1.12772 1.12785 1.12811 1.1285
          1.12902 1.12967 1.13046 1.13138 1.13242 1.13353 1.13468 1.13579 1.13677 1.13754 1.13804 1.1382
          1.1253 1.1253 1.12531 1.12531 1.12599 1.12601 1.12601 1.12601 1.12603 1.12729 1.1274 1.12763
          1.12796 1.1284 1.12895 1.1296 1.13035 1.13117 1.13205 1.13294 1.13378 1.13452 1.1351 1.13547
          1.13559 1.12514 1.12514 1.12514 1.12514 1.12598 1.12601 1.12601 1.12601 1.12602 1.12686 1.12697
          1.12717 1.12747 1.12785 1.12831 1.12886 1.12948 1.13015 1.13085 1.13155 1.13221 1.13279 1.13323
          1.13351 1.13361 1.12494 1.12495 1.12497 1.12495 1.12596 1.12599 1.12599 1.126 1.126 1.12641
          1.12654 1.12675 1.12702 1.12736 1.12777 1.12824 1.12877 1.12934 1.12992 1.1305 1.13104 1.1315
          1.13186 1.13209 1.13217 1.12471 1.12472 1.12477 1.1249 1.12499 1.12518 1.12535 1.12552 1.12573
          1.12594 1.12615 1.12636 1.12663 1.12694 1.12732 1.12775 1.12822 1.12873 1.12924 1.12975 1.13022
          1.13062 1.13093 1.13113 1.1312 1.12442 1.12444 1.1245 1.1246 1.12472 1.12487 1.12504 1.12521
          1.1254 1.1256 1.12581 1.12603 1.12629 1.1266 1.12696 1.12737 1.12783 1.12832 1.12881 1.1293
          1.12974 1.13013 1.13042 1.13061 1.13067
        </DataArray>
        <DataArray type="Float32" Name="lambda_l" NumberOfComponents="1" format="ascii">
          0 0 0 0 0 0 0 0 0 0 0 0
          0 0 0 0 0 0 0 0 0 0 0 0
          0 0 0 0 0 0 0 0 0 0 0 0
          0 0 0 0 0 0 0 0 0.535732 0.302823 727.944 624.86
          1123.58 1123.58 0 0 0 0 0 0 0 0 0 0
          0 0 0 0 0 0 0 0 0 0 0 0
          0.226248 629.905 1123.58 0 0 0 0 0 0 0 0 0
          0 0 0 0 0 0 0 0 0 0 0 0
          0 0.0660474 633.285 1123.58 0 0 0 0 0 0 0 0
          0 0 0 0 0 0 0 0 0 0 0 0
          0 0 0 530.794 1123.58 0 0 0 0 0 0 0
          0 0 0 0 0 0 0 0 0 0 0 0
          0 0 0 0 0.62145 314.734 0 0 0 0 0 0
          0 0 0 0 0 0 0 0 0 0 0 0
          0 0 0 0 0 0 0 0 0 0 0 0
          0 0 0 0 0 0 0 0 0 0 0 0
          0 0 0 0 0 0 0 0 0 0 0 0
          0 0 0 0 0 0 0 0 0 0 0 0
          0 0 0 0 0 0 0 0 0 0 0 0
          0 0 0 0 0 0 0 0 0 0 0 0
          0 0 0 0 0 0 0 0 0 0 0 0
          0 0 0 0 0 0 0 0 0 0 0 0
          0 0 0 0 0 0 0 0 0 0 0 0
          0 0 0 0 0 0 0 0 0 0 0 0
          0 0 0 0 0 0 0 0 0 0 0 0
          0 0 0 0 0 0 0 0 0 0 0 0
          0 0 0 0 0 0 0 0 0 0 0 0
          0 0 0 0 0 0 0 0 0 0 0 0
          0 0 0 0 0 0 0 0 0 0 0 0
          0 0 0 0 0 0 0 0 0 0 0 0
          0 0 0 0 0 0 0 0 0 0 0 0
          0 0 0 0 0 0 0 0 0 0 0 0
          0 0 0 0 0 0 0 0 0 0 0 0
          0 0 0 0 0 0 0 0 0 0 0 0
          0 0 0 0 0 0 0 0 0 0 0 0
          0 0 0 0 0
        </DataArray>
        <DataArray type="Float32" Name="lambda_g" NumberOfComponents="1" format="ascii">
          56746.7 56746.7 56746.7 56746.7 56746.7 56746.7 56746.7 56746.7 56746.7 56746.7 56746.7 56746.7
          56746.7 56746.7 56746.7 56746.7 56746.7 56746.7 56746.7 56746.7 56746.7 56746.7 56746.7 56746.7
          56746.7 56746.7 56746.7 56746.7 56746.7 56746.7 56746.7 56746.7 56746.7 56746.7 56746.7 56746.7
          56746.7 56746.7 56746.7 56746.7 56746.7 56746.7 56746.7 56746.7 56719.7 56731.4 19981.2 25187.5
          0 0 56746.7 56746.7 56746.7 56746.7 56746.7 56746.7 56746.7 56746.7 56746.7 56746.7
          56746.7 56746.7 56746.7 56746.7 56746.7 56746.7 56746.7 56746.7 56746.7 56746.7 56746.7 56746.7
          56735.3 24932.7 0 56746.7 56746.7 56746.7 56746.7 56746.7 56746.7 56746.7 56746.7 56746.7
          56746.7 56746.7 56746.7 56746.7 56746.7 56746.7 56746.7 56746.7 56746.7 56746.7 56746.7 56746.7
          56746.7 56743.4 24762 0 56746.7 56746.7 56746.7 56746.7 56746.7 56746.7 56746.7 56746.7
          56746.7 56746.7 56746.7 56746.7 56746.7 56746.7 56746.7 56746.7 56746.7 56746.7 56746.7 56746.7
          56746.7 56746.7 56746.7 29938.4 0 56746.7 56746.7 56746.7 56746.7 56746.7 56746.7 56746.7
          56746.7 56746.7 56746.7 56746.7 56746.7 56746.7 56746.7 56746.7 56746.7 56746.7 56746.7 56746.7
          56746.7 56746.7 56746.7 56746.7 56715.4 40850.7 56746.7 56746.7 56746.7 56746.7 56746.7 56746.7
          56746.7 56746.7 56746.7 56746.7 56746.7 56746.7 56746.7 56746.7 56746.7 56746.7 56746.7 56746.7
          56746.7 56746.7 56746.7 56746.7 56746.7 56746.7 56746.7 56746.7 56746.7 56746.7 56746.7 56746.7
          56746.7 56746.7 56746.7 56746.7 56746.7 56746.7 56746.7 56746.7 56746.7 56746.7 56746.7 56746.7
          56746.7 56746.7 56746.7 56746.7 56746.7 56746.7 56746.7 56746.7 56746.7 56746.7 56746.7 56746.7
          56746.7 56746.7 56746.7 56746.7 56746.7 56746.7 56746.7 56746.7 56746.7 56746.7 56746.7 56746.7
          56746.7 56746.7 56746.7 56746.7 56746.7 56746.7 56746.7 56746.7 56746.7 56746.7 56746.7 56746.7
          56746.7 56746.7 56746.7 56746.7 56746.7 56746.7 56746.7 56746.7 56746.7 56746.7 56746.7 56746.7
          56746.7 56746.7 56746.7 56746.7 56746.7 56746.7 56746.7 56746.7 56746.7 56746.7 56746.7 56746.7
          56746.7 56746.7 56746.7 56746.7 56746.7 56746.7 56746.7 56746.7 56746.7 56746.7 56746.7 56746.7
          56746.7 56746.7 56746.7 56746.7 56746.7 56746.7 56746.7 56746.7 56746.7 56746.7 56746.7 56746.7
          56746.7 56746.7 56746.7 56746.7 56746.7 56746.7 56746.7 56746.7 56746.7 56746.7 56746.7 56746.7
          56746.7 56746.7 56746.7 56746.7 56746.7 56746.7 56746.7 56746.7 56746.7 56746.7 56746.7 56746.7
          56746.7 56746.7 56746.7 56746.7 56746.7 56746.7 56746.7 56746.7 56746.7 56746.7 56746.7 56746.7
          56746.7 56746.7 56746.7 56746.7 56746.7 56746.7 56746.7 56746.7 56746.7 56746.7 56746.7 56746.7
          56746.7 56746.7 56746.7 56746.7 56746.7 56746.7 56746.7 56746.7 56746.7 56746.7 56746.7 56746.7
          56746.7 56746.7 56746.7 56746.7 56746.7 56746.7 56746.7 56746.7 56746.7 56746.7 56746.7 56746.7
          56746.7 56746.7 56746.7 56746.7 56746.7 56746.7 56746.7 56746.7 56746.7 56746.7 56746.7 56746.7
          56746.7 56746.7 56746.7 56746.7 56746.7 56746.7 56746.7 56746.7 56746.7 56746.7 56746.7 56746.7
          56746.7 56746.7 56746.7 56746.7 56746.7 56746.7 56746.7 56746.7 56746.7 56746.7 56746.7 56746.7
          56746.7 56746.7 56746.7 56746.7 56746.7 56746.7 56746.7 56746.7 56746.7 56746.7 56746.7 56746.7
          56746.7 56746.7 56746.7 56746.7 56746.7 56746.7 56746.7 56746.7 56746.7 56746.7 56746.7 56746.7
          56746.7 56746.7 56746.7 56746.7 56746.7 56746.7 56746.7 56746.7 56746.7 56746.7 56746.7 56746.7
          56746.7 56746.7 56746.7 56746.7 56746.7
        </DataArray>
        <DataArray type="Float32" Name="porosity" NumberOfComponents="1" format="ascii">
          0.3 0.3 0.3 0.3 0.3 0.3 0.3 0.3 0.3 0.3 0.3 0.3
          0.3 0.3 0.3 0.3 0.3 0.3 0.3 0.3 0.3 0.3 0.3 0.3
          0.3 0.3 0.3 0.3 0.3 0.3 0.3 0.3 0.3 0.3 0.3 0.3
          0.3 0.3 0.3 0.3 0.3 0.3 0.3 0.3 0.3 0.3 0.3 0.3
          0.3 0.3 0.3 0.3 0.3 0.3 0.3 0.3 0.3 0.3 0.3 0.3
          0.3 0.3 0.3 0.3 0.3 0.3 0.3 0.3 0.3 0.3 0.3 0.3
          0.3 0.3 0.3 0.3 0.3 0.3 0.3 0.3 0.3 0.3 0.3 0.3
          0.3 0.3 0.3 0.3 0.3 0.3 0.3 0.3 0.3 0.3 0.3 0.3
          0.3 0.3 0.3 0.3 0.3 0.3 0.3 0.3 0.3 0.3 0.3 0.3
          0.3 0.3 0.3 0.3 0.3 0.3 0.3 0.3 0.3 0.3 0.3 0.3
          0.3 0.3 0.3 0.3 0.3 0.3 0.3 0.3 0.3 0.3 0.3 0.3
          0.3 0.3 0.3 0.3 0.3 0.3 0.3 0.3 0.3 0.3 0.3 0.3
          0.3 0.3 0.3 0.3 0.3 0.3 0.3 0.3 0.3 0.3 0.3 0.3
          0.3 0.3 0.3 0.3 0.3 0.3 0.3 0.3 0.3 0.3 0.3 0.3
          0.3 0.3 0.3 0.3 0.3 0.3 0.3 0.3 0.3 0.3 0.3 0.3
          0.3 0.3 0.3 0.3 0.3 0.3 0.3 0.3 0.3 0.3 0.3 0.3
          0.3 0.3 0.3 0.3 0.3 0.3 0.3 0.3 0.3 0.3 0.3 0.3
          0.3 0.3 0.3 0.3 0.3 0.3 0.3 0.3 0.3 0.3 0.3 0.3
          0.3 0.3 0.3 0.3 0.3 0.3 0.3 0.3 0.3 0.3 0.3 0.3
          0.3 0.3 0.3 0.3 0.3 0.3 0.3 0.3 0.3 0.3 0.3 0.3
          0.3 0.3 0.3 0.3 0.3 0.3 0.3 0.3 0.3 0.3 0.3 0.3
          0.3 0.3 0.3 0.3 0.3 0.3 0.3 0.3 0.3 0.3 0.3 0.3
          0.3 0.3 0.3 0.3 0.3 0.3 0.3 0.3 0.3 0.3 0.3 0.3
          0.3 0.3 0.3 0.3 0.3 0.3 0.3 0.3 0.3 0.3 0.3 0.3
          0.3 0.3 0.3 0.3 0.3 0.3 0.3 0.3 0.3 0.3 0.3 0.3
          0.3 0.3 0.3 0.3 0.3 0.3 0.3 0.3 0.3 0.3 0.3 0.3
          0.3 0.3 0.3 0.3 0.3 0.3 0.3 0.3 0.3 0.3 0.3 0.3
          0.3 0.3 0.3 0.3 0.3 0.3 0.3 0.3 0.3 0.3 0.3 0.3
          0.3 0.3 0.3 0.3 0.3 0.3 0.3 0.3 0.3 0.3 0.3 0.3
          0.3 0.3 0.3 0.3 0.3 0.3 0.3 0.3 0.3 0.3 0.3 0.3
          0.3 0.3 0.3 0.3 0.3 0.3 0.3 0.3 0.3 0.3 0.3 0.3
          0.3 0.3 0.3 0.3 0.3 0.3 0.3 0.3 0.3 0.3 0.3 0.3
          0.3 0.3 0.3 0.3 0.3 0.3 0.3 0.3 0.3 0.3 0.3 0.3
          0.3 0.3 0.3 0.3 0.3 0.3 0.3 0.3 0.3 0.3 0.3 0.3
          0.3 0.3 0.3 0.3 0.3 0.3 0.3 0.3 0.3 0.3 0.3 0.3
          0.3 0.3 0.3 0.3 0.3
        </DataArray>
        <DataArray type="Float32" Name="x_l^H2O" NumberOfComponents="1" format="ascii">
          0.315477 0.315611 0.315477 0.315549 0.315672 0.315598 0.315704 0.315621 0.315492 0.315484 0.315482 0.315477
          0.315482 0.315477 0.315482 0.315477 0.315534 0.315526 0.317292 0.317192 0.317383 0.317288 0.317582 0.317486
          0.317896 0.317797 0.31834 0.318237 0.318936 0.318826 0.319712 0.319594 0.320705 0.320574 0.321965 0.321816
          0.323692 0.323495 0.328138 0.327587 0.358062 0.354521 0.557684 0.535833 0.999988 0.999988 0.999988 0.999988
          1 1 0.315477 0.315518 0.315549 0.315565 0.315481 0.315477 0.315477 0.315477 0.315521 0.317086
          0.317181 0.317375 0.317677 0.318104 0.318676 0.319418 0.320363 0.321553 0.323113 0.326418 0.346928 0.499195
          0.999988 0.999988 1 0.315477 0.315499 0.315517 0.315526 0.315479 0.315477 0.315477 0.315477 0.315517
          0.316974 0.317065 0.31725 0.317539 0.317945 0.318488 0.31919 0.320081 0.321194 0.322601 0.324994 0.336985
          0.436422 0.999988 0.999988 1 0.315477 0.315484 0.315493 0.315498 0.315478 0.315477 0.315477 0.315477
          0.315513 0.316854 0.31694 0.317114 0.317384 0.317764 0.318269 0.318919 0.31974 0.320758 0.322007 0.32361
          0.326936 0.346239 0.490772 0.999988 1 0.315468 0.31547 0.315473 0.315476 0.315477 0.315477 0.315477
          0.315477 0.315509 0.316729 0.316808 0.316969 0.317217 0.317565 0.318025 0.318615 0.319354 0.320266 0.321384
          0.322992 0.329481 0.390766 0.791667 0.999988 0.999989 0.315452 0.315452 0.315454 0.315455 0.315476 0.315477
          0.315477 0.315477 0.315505 0.3166 0.316672 0.316817 0.317042 0.317354 0.317765 0.318289 0.31894 0.319735
          0.320692 0.321871 0.324084 0.337423 0.431468 0.693833 0.490083 0.315432 0.315432 0.315433 0.315434 0.315475
          0.315477 0.315477 0.315477 0.315501 0.316469 0.316533 0.316663 0.316862 0.317137 0.317498 0.317953 0.318514
          0.319189 0.319987 0.320913 0.322031 0.32428 0.33605 0.373437 0.335426 0.31541 0.31541 0.31541 0.315411
          0.315475 0.315477 0.315477 0.315477 0.315497 0.316338 0.316394 0.316508 0.316681 0.31692 0.317231 0.317619
          0.318091 0.31865 0.319297 0.320019 0.320792 0.321598 0.322898 0.32609 0.323186 0.315383 0.315384 0.315384
          0.315384 0.315474 0.315477 0.315477 0.315477 0.315494 0.316208 0.316257 0.316355 0.316504 0.316709 0.316972
          0.317297 0.317687 0.318141 0.318653 0.319206 0.319769 0.320288 0.320725 0.32112 0.32105 0.315353 0.315353
          0.315354 0.315354 0.315473 0.315477 0.315477 0.315477 0.31549 0.31608 0.316123 0.316207 0.316334 0.316507
          0.316727 0.316997 0.317315 0.317678 0.318078 0.318499 0.318914 0.319288 0.319584 0.319775 0.319833 0.315318
          0.315318 0.315319 0.31532 0.315471 0.315477 0.315477 0.315477 0.315486 0.315955 0.315992 0.316064 0.316173
          0.316319 0.316502 0.316723 0.316981 0.31727 0.317583 0.317904 0.318214 0.31849 0.318707 0.318845 0.318892
          0.315278 0.315278 0.315279 0.315279 0.31547 0.315476 0.315477 0.315477 0.315483 0.315834 0.315866 0.315929
          0.316022 0.316146 0.316299 0.316482 0.316691 0.316923 0.317168 0.317416 0.317653 0.31786 0.318022 0.318126
          0.318161 0.315231 0.315232 0.315233 0.315233 0.315468 0.315476 0.315477 0.315477 0.315479 0.315713 0.315744
          0.315801 0.315884 0.315991 0.316121 0.316274 0.316447 0.316635 0.316832 0.317029 0.317213 0.317374 0.317499
          0.317578 0.317605 0.315176 0.315178 0.315184 0.31518 0.31546 0.31547 0.315471 0.315472 0.315472 0.315589
          0.315625 0.315683 0.315759 0.315854 0.315968 0.316101 0.316248 0.316407 0.316572 0.316733 0.316884 0.317014
          0.317115 0.317178 0.3172 0.31511 0.315114 0.315127 0.315165 0.31519 0.315242 0.31529 0.31534 0.315397
          0.315456 0.315514 0.315575 0.315648 0.315737 0.315842 0.315962 0.316095 0.316236 0.316382 0.316524 0.316656
          0.316768 0.316855 0.31691 0.316929 0.315031 0.315036 0.315052 0.315079 0.315114 0.315156 0.315203 0.315253
          0.315306 0.315361 0.315419 0.315481 0.315553 0.31564 0.315741 0.315857 0.315985 0.316122 0.316261 0.316397
          0.316522 0.316629 0.316712 0.316763 0.316781
        </DataArray>
        <DataArray type="Float32" Name="x_l^N2" NumberOfComponents="1" format="ascii">
          1.14721e-05 1.1477e-05 1.14721e-05 1.14747e-05 1.14792e-05 1.14765e-05 1.14804e-05 1.14774e-05 1.14727e-05 1.14724e-05 1.14723e-05 1.14721e-05
          1.14723e-05 1.14721e-05 1.14723e-05 1.14721e-05 1.14742e-05 1.14739e-05 1.15381e-05 1.15345e-05 1.15414e-05 1.1538e-05 1.15487e-05 1.15452e-05
          1.15601e-05 1.15565e-05 1.15762e-05 1.15725e-05 1.15979e-05 1.15939e-05 1.16261e-05 1.16218e-05 1.16622e-05 1.16575e-05 1.17078e-05 1.17024e-05