<?xml version="1.0"?>
<VTKFile type="UnstructuredGrid" version="0.1" byte_order="LittleEndian">
  <UnstructuredGrid>
    <Piece NumberOfCells="384" NumberOfPoints="425">
      <PointData Scalars="S_l">
        <DataArray type="Float32" Name="S_l" NumberOfComponents="1" format="ascii">
          0 0 0 0 0 0 0 0 0 0 0 0
          0 0 0 0 0 0 0 0 0 0 0 0
          0 0 0 0 0 0 0 0 0 0 0 0
          0 0 0 0 0 0 0 0 0.00770779 0.00573577 0.641454 0.552429
          1 1 0 0 0 0 0 0 0 0 0 0
          0 0 0 0 0 0 0 0 0 0 0 0
          0.00495607 0.556682 1 0 0 0 0 0 0 0 0 0
          0 0 0 0 0 0 0 0 0 0 0 0
          0 0.00270698 0.559383 1 0 0 0 0 0 0 0 0
          0 0 0 0 0 0 0 0 0 0 0 0
          0 0 0 0.472732 1 0 0 0 0 0 0 0
          0 0 0 0 0 0 0 0 0 0 0 0
          0 0 0 0 0.00804771 0.291137 0 0 0 0 0 0
          0 0 0 0 0 0 0 0 0 0 0 0
          0 0 0 0 0 0 0 0 0 0 0 0
          0 0 0 0 0 0 0 0 0 0 0 0
          0 0 0 0 0 0 0 0 0 0 0 0
          0 0 0 0 0 0 0 0 0 0 0 0
          0 0 0 0 0 0 0 0 0 0 0 0
          0 0 0 0 0 0 0 0 0 0 0 0
          0 0 0 0 0 0 0 0 0 0 0 0
          0 0 0 0 0 0 0 0 0 0 0 0
          0 0 0 0 0 0 0 0 0 0 0 0
          0 0 0 0 0 0 0 0 0 0 0 0
          0 0 0 0 0 0 0 0 0 0 0 0
          0 0 0 0 0 0 0 0 0 0 0 0
          0 0 0 0 0 0 0 0 0 0 0 0
          0 0 0 0 0 0 0 0 0 0 0 0
          0 0 0 0 0 0 0 0 0 0 0 0
          0 0 0 0 0 0 0 0 0 0 0 0
          0 0 0 0 0 0 0 0 0 0 0 0
          0 0 0 0 0 0 0 0 0 0 0 0
          0 0 0 0 0 0 0 0 0 0 0 0
          0 0 0 0 0 0 0 0 0 0 0 0
          0 0 0 0 0 0 0 0 0 0 0 0
          0 0 0 0 0
        </DataArray>
        <DataArray type="Float32" Name="S_g" NumberOfComponents="1" format="ascii">
          1 1 1 1 1 1 1 1 1 1 1 1
          1 1 1 1 1 1 1 1 1 1 1 1
          1 1 1 1 1 1 1 1 1 1 1 1
          1 1 1 1 1 1 1 1 0.992292 0.994264 0.358546 0.447571
          0 0 1 1 1 1 1 1 1 1 1 1
          1 1 1 1 1 1 1 1 1 1 1 1
          0.995044 0.443318 0 1 1 1 1 1 1 1 1 1
          1 1 1 1 1 1 1 1 1 1 1 1
          1 0.997293 0.440617 0 1 1 1 1 1 1 1 1
          1 1 1 1 1 1 1 1 1 1 1 1
          1 1 1 0.527268 0 1 1 1 1 1 1 1
          1 1 1 1 1 1 1 1 1 1 1 1
          1 1 1 1 0.991952 0.708863 1 1 1 1 1 1
          1 1 1 1 1 1 1 1 1 1 1 1
          1 1 1 1 1 1 1 1 1 1 1 1
          1 1 1 1 1 1 1 1 1 1 1 1
          1 1 1 1 1 1 1 1 1 1 1 1
          1 1 1 1 1 1 1 1 1 1 1 1
          1 1 1 1 1 1 1 1 1 1 1 1
          1 1 1 1 1 1 1 1 1 1 1 1
          1 1 1 1 1 1 1 1 1 1 1 1
          1 1 1 1 1 1 1 1 1 1 1 1
          1 1 1 1 1 1 1 1 1 1 1 1
          1 1 1 1 1 1 1 1 1 1 1 1
          1 1 1 1 1 1 1 1 1 1 1 1
          1 1 1 1 1 1 1 1 1 1 1 1
          1 1 1 1 1 1 1 1 1 1 1 1
          1 1 1 1 1 1 1 1 1 1 1 1
          1 1 1 1 1 1 1 1 1 1 1 1
          1 1 1 1 1 1 1 1 1 1 1 1
          1 1 1 1 1 1 1 1 1 1 1 1
          1 1 1 1 1 1 1 1 1 1 1 1
          1 1 1 1 1 1 1 1 1 1 1 1
          1 1 1 1 1 1 1 1 1 1 1 1
          1 1 1 1 1 1 1 1 1 1 1 1
          1 1 1 1 1
        </DataArray>
        <DataArray type="Float32" Name="p_l" NumberOfComponents="1" format="ascii">
          100000 100043 100000 100023 100062 100038 100072 100046 100005 100002 100002 100000
          100002 100000 100002 100000 100019 100017 100583 100551 100611 100581 100673 100643
          100771 100740 100910 100877 101096 101062 101340 101302 101651 101610 102044 101998
          102538 102483 103154 103086 103927 103837 104906 104783 106085 106036 110614 109501
          200000 200000 100000 100013 100023 100028 100001 100000 100000 100000 100015 100517
          100547 100607 100702 100835 101014 101247 101543 101916 102378 102947 103640 104477
          105511 108631 200000 100000 100007 100013 100016 100001 100000 100000 100000 100014
          100482 100510 100568 100658 100785 100955 101175 101454 101803 102233 102756 103378
          104081 104741 106926 200000 100000 100002 100005 100007 100000 100000 100000 100000
          100012 100444 100471 100525 100610 100728 100886 101090 101347 101667 102058 102530
          103091 103734 104380 102529 200000 99997.2 99997.8 99999 99999.7 100000 100000 100000
          100000 100011 100404 100429 100479 100557 100666 100809 100994 101226 101512 101859
          102278 102779 103397 104296 107897 97941.7 99992.2 99992.4 99992.9 99993.2 99999.9 100000
          100000 100000 100010 100364 100386 100432 100502 100599 100728 100892 101096 101345
          101645 102002 102425 102936 103600 103548 103063 99986.1 99986.2 99986.4 99986.6 99999.6
          100000 100000 100000 100008 100322 100342 100383 100445 100531 100644 100786 100962
          101174 101424 101714 102043 102394 102675 102758 102739 99979 99979.1 99979.2 99979.4
          99999.4 100000 100000 100000 100007 100281 100299 100334 100388 100463 100560 100681
          100829 101004 101207 101434 101676 101908 102087 102183 102208 99970.9 99970.9 99971
          99971.2 99999.1 100000 100000 100000 100006 100240 100255 100286 100332 100396 100479
          100580 100702 100845 101005 101179 101355 101517 101645 101722 101747 99961.5 99961.5
          99961.6 99961.8 99998.8 100000 100000 100000 100005 100199 100213 100239 100279 100333
          100402 100486 100585 100699 100825 100956 101087 101204 101296 101355 101374 99950.6
          99950.6 99950.8 99951 99998.3 100000 100000 100000 100004 100160 100171 100194 100228
          100274 100331 100400 100481 100571 100669 100770 100867 100953 101021 101065 101079
          99938 99938.1 99938.3 99938.5 99997.8 100000 100000 100000 100002 100121 100131 100151
          100181 100219 100267 100325 100390 100462 100539 100617 100691 100756 100806 100839
          100850 99923.3 99923.6 99924 99924.2 99997.2 99999.9 100000 100000 100001 100083 100093
          100111 100137 100170 100211 100259 100313 100372 100434 100495 100553 100603 100642
          100667 100676 99906.1 99906.8 99908.7 99907.7 99994.9 99997.9 99998.4 99998.7 99999 100044
          100055 100073 100097 100127 100163 100205 100251 100301 100352 100403 100450 100491
          100522 100542 100549 99885.4 99886.7 99891 99903.3 99912.3 99929.7 99945.7 99962.3 99981.5
          100000 100019 100039 100062 100090 100123 100161 100203 100247 100293 100337 100378
          100414 100441 100458 100464 99860.3 99861.9 99867.3 99876.4 99888 99902.4 99918.2 99934.7
          99952.2 99970.4 99989 100009 100032 100059 100092 100128 100168 100211 100254 100297
          100336 100370 100395 100412 100417
        </DataArray>
        <DataArray type="Float32" Name="p_g" NumberOfComponents="1" format="ascii">
          100000 100043 100000 100023 100062 100038 100072 100046 100005 100002 100002 100000
          100002 100000 100002 100000 100019 100017 100583 100551 100611 100581 100673 100643
          100771 100740 100910 100877 101096 101062 101340 101302 101651 101610 102044 101998
          102538 102483 103154 103086 103927 103837 104906 104783 106085 106036 110614 109501
          200000 200000 100000 100013 100023 100028 100001 100000 100000 100000 100015 100517
          100547 100607 100702 100835 101014 101247 101543 101916 102378 102947 103640 104477
          105511 108631 200000 100000 100007 100013 100016 100001 100000 100000 100000 100014
          100482 100510 100568 100658 100785 100955 101175 101454 101803 102233 102756 103378
          104081 104741 106926 200000 100000 100002 100005 100007 100000 100000 100000 100000
          100012 100444 100471 100525 100610 100728 100886 101090 101347 101667 102058 102530
          103091 103734 104380 102529 200000 99997.2 99997.8 99999 99999.7 100000 100000 100000
          100000 100011 100404 100429 100479 100557 100666 100809 100994 101226 101512 101859
          102278 102779 103397 104296 107897 97941.7 99992.2 99992.4 99992.9 99993.2 99999.9 100000
          100000 100000 100010 100364 100386 100432 100502 100599 100728 100892 101096 101345
          101645 102002 102425 102936 103600 103548 103063 99986.1 99986.2 99986.4 99986.6 99999.6
          100000 100000 100000 100008 100322 100342 100383 100445 100531 100644 100786 100962
          101174 101424 101714 102043 102394 102675 102758 102739 99979 99979.1 99979.2 99979.4
          99999.4 100000 100000 100000 100007 100281 100299 100334 100388 100463 100560 100681
          100829 101004 101207 101434 101676 101908 102087 102183 102208 99970.9 99970.9 99971
          99971.2 99999.1 100000 100000 100000 100006 100240 100255 100286 100332 100396 100479
          100580 100702 100845 101005 101179 101355 101517 101645 101722 101747 99961.5 99961.5
          99961.6 99961.8 99998.8 100000 100000 100000 100005 100199 100213 100239 100279 100333
          100402 100486 100585 100699 100825 100956 101087 101204 101296 101355 101374 99950.6
          99950.6 99950.8 99951 99998.3 100000 100000 100000 100004 100160 100171 100194 100228
          100274 100331 100400 100481 100571 100669 100770 100867 100953 101021 101065 101079
          99938 99938.1 99938.3 99938.5 99997.8 100000 100000 100000 100002 100121 100131 100151
          100181 100219 100267 100325 100390 100462 100539 100617 100691 100756 100806 100839
          100850 99923.3 99923.6 99924 99924.2 99997.2 99999.9 100000 100000 100001 100083 100093
          100111 100137 100170 100211 100259 100313 100372 100434 100495 100553 100603 100642
          100667 100676 99906.1 99906.8 99908.7 99907.7 99994.9 99997.9 99998.4 99998.7 99999 100044
          100055 100073 100097 100127 100163 100205 100251 100301 100352 100403 100450 100491
          100522 100542 100549 99885.4 99886.7 99891 99903.3 99912.3 99929.7 99945.7 99962.3 99981.5
          100000 100019 100039 100062 100090 100123 100161 100203 100247 100293 100337 100378
          100414 100441 100458 100464 99860.3 99861.9 99867.3 99876.4 99888 99902.4 99918.2 99934.7
          99952.2 99970.4 99989 100009 100032 100059 100092 100128 100168 100211 100254 100297
          100336 100370 100395 100412 100417
        </DataArray>
        <DataArray type="Float32" Name="rho_l" NumberOfComponents="1" format="ascii">
          997.048 997.048 997.048 997.048 997.048 997.048 997.048 997.048 997.048 997.048 997.048 997.048
          997.048 997.048 997.048 997.048 997.048 997.048 997.048 997.048 997.048 997.048 997.048 997.048
          997.048 997.048 997.048 997.048 997.048 997.048 997.048 997.048 997.048 997.048 997.049 997.049
          997.049 997.049 997.049 997.049 997.049 997.049 997.05 997.05 997.05 997.05 997.052 997.052
          997.093 997.093 997.048 997.048 997.048 997.048 997.048 997.048 997.048 997.048 997.048 997.048
          997.048 997.048 997.048 997.048 997.048 997.048 997.048 997.049 997.049 997.049 997.049 997.05
          997.05 997.052 997.093 997.048 997.048 997.048 997.048 997.048 997.048 997.048 997.048 997.048
          997.048 997.048 997.048 997.048 997.048 997.048 997.048 997.048 997.048 997.049 997.049 997.049
          997.049 997.05 997.051 997.093 997.048 997.048 997.048 997.048 997.048 997.048 997.048 997.048
          997.048 997.048 997.048 997.048 997.048 997.048 997.048 997.048 997.048 997.048 997.049 997.049
          997.049 997.049 997.05 997.049 997.093 997.048 997.048 997.048 997.048 997.048 997.048 997.048
          997.048 997.048 997.048 997.048 997.048 997.048 997.048 997.048 997.048 997.048 997.048 997.049
          997.049 997.049 997.049 997.05 997.051 997.047 997.048 997.048 997.048 997.048 997.048 997.048
          997.048 997.048 997.048 997.048 997.048 997.048 997.048 997.048 997.048 997.048 997.048 997.048
          997.048 997.049 997.049 997.049 997.049 997.049 997.049 997.048 997.048 997.048 997.048 997.048
          997.048 997.048 997.048 997.048 997.048 997.048 997.048 997.048 997.048 997.048 997.048 997.048
          997.048 997.048 997.048 997.049 997.049 997.049 997.049 997.049 997.048 997.048 997.048 997.048
          997.048 997.048 997.048 997.048 997.048 997.048 997.048 997.048 997.048 997.048 997.048 997.048
          997.048 997.048 997.048 997.048 997.048 997.049 997.049 997.049 997.049 997.048 997.048 997.048
          997.048 997.048 997.048 997.048 997.048 997.048 997.048 997.048 997.048 997.048 997.048 997.048
          997.048 997.048 997.048 997.048 997.048 997.048 997.048 997.048 997.048 997.048 997.048 997.048
          997.048 997.048 997.048 997.048 997.048 997.048 997.048 997.048 997.048 997.048 997.048 997.048
          997.048 997.048 997.048 997.048 997.048 997.048 997.048 997.048 997.048 997.048 997.048 997.048
          997.048 997.048 997.048 997.048 997.048 997.048 997.048 997.048 997.048 997.048 997.048 997.048
          997.048 997.048 997.048 997.048 997.048 997.048 997.048 997.048 997.048 997.048 997.048 997.048
          997.048 997.048 997.048 997.048 997.048 997.048 997.048 997.048 997.048 997.048 997.048 997.048
          997.048 997.048 997.048 997.048 997.048 997.048 997.048 997.048 997.048 997.048 997.048 997.048
          997.048 997.048 997.048 997.048 997.048 997.048 997.048 997.048 997.048 997.048 997.048 997.048
          997.048 997.048 997.048 997.048 997.048 997.048 997.048 997.048 997.048 997.048 997.048 997.048
          997.048 997.048 997.048 997.048 997.048 997.048 997.048 997.048 997.048 997.048 997.048 997.048
          997.048 997.048 997.048 997.048 997.048 997.048 997.048 997.048 997.048 997.048 997.048 997.048
          997.048 997.048 997.048 997.048 997.048 997.048 997.048 997.048 997.048 997.048 997.048 997.048
          997.048 997.048 997.048 997.048 997.048 997.048 997.048 997.048 997.048 997.048 997.048 997.048
          997.048 997.048 997.048 997.048 997.048 997.048 997.048 997.048 997.048 997.048 997.048 997.048
          997.048 997.048 997.048 997.048 997.048 997.048 997.048 997.048 997.048 997.048 997.048 997.048
          997.048 997.048 997.048 997.048 997.048
        </DataArray>
        <DataArray type="Float32" Name="rho_g" NumberOfComponents="1" format="ascii">
          1.12601 1.12649 1.12601 1.12627 1.12671 1.12645 1.12682 1.12653 1.12607 1.12604 1.12603 1.12601
          1.12603 1.12601 1.12603 1.12602 1.12623 1.1262 1.13257 1.13221 1.13289 1.13255 1.13359 1.13325
          1.13469 1.13434 1.13626 1.13589 1.13836 1.13797 1.1411 1.14068 1.1446 1.14414 1.14903 1.14851
          1.15458 1.15397 1.16149 1.16073 1.16982 1.16886 1.17823 1.17717 1.18602 1.18547 1.23721 1.22463
          1.45345 1.45345 1.12601 1.12616 1.12627 1.12633 1.12603 1.12601 1.12601 1.12602 1.12618 1.13184
          1.13217 1.13285 1.13392 1.13542 1.13743 1.14005 1.14339 1.14758 1.15279 1.15918 1.16673 1.1742
          1.17954 1.21479 1.45345 1.12601 1.12609 1.12616 1.12619 1.12602 1.12601 1.12601 1.12602 1.12617
          1.13144 1.13176 1.13241 1.13343 1.13486 1.13677 1.13925 1.14239 1.14632 1.15116 1.15704 1.1639
          1.17055 1.17084 1.19553 1.45345 1.12601 1.12604 1.12607 1.12609 1.12602 1.12601 1.12601 1.12602
          1.12615 1.13101 1.13131 1.13193 1.13288 1.13421 1.13599 1.13828 1.14118 1.14478 1.14918 1.1545
          1.16079 1.16781 1.17325 1.14584 1.45345 1.12598 1.12599 1.126 1.12601 1.12601 1.12601 1.12601
          1.12601 1.12614 1.13057 1.13085 1.13141 1.13228 1.13351 1.13513 1.13721 1.13982 1.14304 1.14695
          1.15165 1.15724 1.16342 1.16836 1.2065 1.094 1.12593 1.12593 1.12593 1.12594 1.12601 1.12601
          1.12601 1.12601 1.12612 1.13011 1.13036 1.13087 1.13166 1.13276 1.13421 1.13605 1.13835 1.14116
          1.14454 1.14855 1.1533 1.15891 1.16519 1.16131 1.15841 1.12586 1.12586 1.12586 1.12586 1.12601
          1.12601 1.12601 1.12601 1.12611 1.12964 1.12987 1.13032 1.13102 1.13199 1.13326 1.13487 1.13684
          1.13923 1.14205 1.14532 1.14901 1.15296 1.15597 1.15644 1.15671 1.12578 1.12578 1.12578 1.12578
          1.12601 1.12601 1.12601 1.12601 1.12609 1.12918 1.12937 1.12977 1.13038 1.13122 1.13232 1.13368
          1.13535 1.13732 1.13961 1.14216 1.14489 1.1475 1.14951 1.15054 1.15087 1.12569 1.12569 1.12569
          1.12569 1.126 1.12601 1.12601 1.12601 1.12608 1.12871 1.12889 1.12923 1.12976 1.13048 1.1314
          1.13255 1.13392 1.13552 1.13733 1.13928 1.14127 1.1431 1.14453 1.1454 1.14569 1.12558 1.12558
          1.12558 1.12558 1.126 1.12601 1.12601 1.12601 1.12607 1.12826 1.12841 1.1287 1.12915 1.12976
          1.13054 1.13149 1.13261 1.13389 1.1353 1.13678 1.13825 1.13957 1.14061 1.14127 1.14149 1.12546
          1.12546 1.12546 1.12546 1.12599 1.12601 1.12601 1.12601 1.12605 1.12781 1.12794 1.1282 1.12858
          1.12909 1.12974 1.13052 1.13143 1.13245 1.13355 1.13468 1.13578 1.13675 1.13751 1.138 1.13817
          1.12531 1.12532 1.12532 1.12532 1.12599 1.12601 1.12601 1.12601 1.12604 1.12738 1.12749 1.12772
          1.12805 1.12848 1.12902 1.12967 1.13041 1.13122 1.13208 1.13296 1.13379 1.13452 1.13509 1.13546
          1.13558 1.12515 1.12515 1.12516 1.12516 1.12598 1.12601 1.12601 1.12601 1.12603 1.12695 1.12706
          1.12726 1.12755 1.12793 1.12839 1.12893 1.12954 1.13021 1.1309 1.13159 1.13224 1.13281 1.13325
          1.13352 1.13362 1.12496 1.12496 1.12499 1.12497 1.12596 1.12599 1.126 1.126 1.126 1.1265
          1.12663 1.12684 1.12711 1.12745 1.12785 1.12832 1.12884 1.1294 1.12998 1.13055 1.13108 1.13154
          1.13189 1.13212 1.13219 1.12472 1.12474 1.12479 1.12492 1.12503 1.12522 1.1254 1.12559 1.12581
          1.12602 1.12623 1.12645 1.12671 1.12703 1.1274 1.12783 1.1283 1.1288 1.12931 1.12981 1.13027
          1.13067 1.13098 1.13117 1.13123 1.12444 1.12446 1.12452 1.12462 1.12475 1.12491 1.12509 1.12528
          1.12548 1.12568 1.12589 1.12611 1.12637 1.12668 1.12704 1.12745 1.12791 1.12839 1.12888 1.12936
          1.1298 1.13017 1.13047 1.13065 1.13071
        </DataArray>
        <DataArray type="Float32" Name="lambda_l" NumberOfComponents="1" format="ascii">
          0 0 0 0 0 0 0 0 0 0 0 0
          0 0 0 0 0 0 0 0 0 0 0 0
          0 0 0 0 0 0 0 0 0 0 0 0
          0 0 0 0 0 0 0 0 0.604777 0.333283 729.547 623.965
          1123.58 1123.58 0 0 0 0 0 0 0 0 0 0
          0 0 0 0 0 0 0 0 0 0 0 0
          0.248353 629.009 1123.58 0 0 0 0 0 0 0 0 0
          0 0 0 0 0 0 0 0 0 0 0 0
          0 0.0736794 632.212 1123.58 0 0 0 0 0 0 0 0
          0 0 0 0 0 0 0 0 0 0 0 0
          0 0 0 529.444 1123.58 0 0 0 0 0 0 0
          0 0 0 0 0 0 0 0 0 0 0 0
          0 0 0 0 0.659847 314.075 0 0 0 0 0 0
          0 0 0 0 0 0 0 0 0 0 0 0
          0 0 0 0 0 0 0 0 0 0 0 0
          0 0 0 0 0 0 0 0 0 0 0 0
          0 0 0 0 0 0 0 0 0 0 0 0
          0 0 0 0 0 0 0 0 0 0 0 0
          0 0 0 0 0 0 0 0 0 0 0 0
          0 0 0 0 0 0 0 0 0 0 0 0
          0 0 0 0 0 0 0 0 0 0 0 0
          0 0 0 0 0 0 0 0 0 0 0 0
          0 0 0 0 0 0 0 0 0 0 0 0
          0 0 0 0 0 0 0 0 0 0 0 0
          0 0 0 0 0 0 0 0 0 0 0 0
          0 0 0 0 0 0 0 0 0 0 0 0
          0 0 0 0 0 0 0 0 0 0 0 0
          0 0 0 0 0 0 0 0 0 0 0 0
          0 0 0 0 0 0 0 0 0 0 0 0
          0 0 0 0 0 0 0 0 0 0 0 0
          0 0 0 0 0 0 0 0 0 0 0 0
          0 0 0 0 0 0 0 0 0 0 0 0
          0 0 0 0 0 0 0 0 0 0 0 0
          0 0 0 0 0 0 0 0 0 0 0 0
          0 0 0 0 0 0 0 0 0 0 0 0
          0 0 0 0 0
        </DataArray>
        <DataArray type="Float32" Name="lambda_g" NumberOfComponents="1" format="ascii">
          56746.7 56746.7 56746.7 56746.7 56746.7 56746.7 56746.7 56746.7 56746.7 56746.7 56746.7 56746.7
          56746.7 56746.7 56746.7 56746.7 56746.7 56746.7 56746.7 56746.7 56746.7 56746.7 56746.7 56746.7
          56746.7 56746.7 56746.7 56746.7 56746.7 56746.7 56746.7 56746.7 56746.7 56746.7 56746.7 56746.7
          56746.7 56746.7 56746.7 56746.7 56746.7 56746.7 56746.7 56746.7 56716.2 56729.9 19900.4 25232.9
          0 0 56746.7 56746.7 56746.7 56746.7 56746.7 56746.7 56746.7 56746.7 56746.7 56746.7
          56746.7 56746.7 56746.7 56746.7 56746.7 56746.7 56746.7 56746.7 56746.7 56746.7 56746.7 56746.7
          56734.2 24978.1 0 56746.7 56746.7 56746.7 56746.7 56746.7 56746.7 56746.7 56746.7 56746.7
          56746.7 56746.7 56746.7 56746.7 56746.7 56746.7 56746.7 56746.7 56746.7 56746.7 56746.7 56746.7
          56746.7 56743 24816.3 0 56746.7 56746.7 56746.7 56746.7 56746.7 56746.7 56746.7 56746.7
          56746.7 56746.7 56746.7 56746.7 56746.7 56746.7 56746.7 56746.7 56746.7 56746.7 56746.7 56746.7
          56746.7 56746.7 56746.7 30006.7 0 56746.7 56746.7 56746.7 56746.7 56746.7 56746.7 56746.7
          56746.7 56746.7 56746.7 56746.7 56746.7 56746.7 56746.7 56746.7 56746.7 56746.7 56746.7 56746.7
          56746.7 56746.7 56746.7 56746.7 56713.4 40884.1 56746.7 56746.7 56746.7 56746.7 56746.7 56746.7
          56746.7 56746.7 56746.7 56746.7 56746.7 56746.7 56746.7 56746.7 56746.7 56746.7 56746.7 56746.7
          56746.7 56746.7 56746.7 56746.7 56746.7 56746.7 56746.7 56746.7 56746.7 56746.7 56746.7 56746.7
          56746.7 56746.7 56746.7 56746.7 56746.7 56746.7 56746.7 56746.7 56746.7 56746.7 56746.7 56746.7
          56746.7 56746.7 56746.7 56746.7 56746.7 56746.7 56746.7 56746.7 56746.7 56746.7 56746.7 56746.7
          56746.7 56746.7 56746.7 56746.7 56746.7 56746.7 56746.7 56746.7 56746.7 56746.7 56746.7 56746.7
          56746.7 56746.7 56746.7 56746.7 56746.7 56746.7 56746.7 56746.7 56746.7 56746.7 56746.7 56746.7
          56746.7 56746.7 56746.7 56746.7 56746.7 56746.7 56746.7 56746.7 56746.7 56746.7 56746.7 56746.7
          56746.7 56746.7 56746.7 56746.7 56746.7 56746.7 56746.7 56746.7 56746.7 56746.7 56746.7 56746.7
          56746.7 56746.7 56746.7 56746.7 56746.7 56746.7 56746.7 56746.7 56746.7 56746.7 56746.7 56746.7
          56746.7 56746.7 56746.7 56746.7 56746.7 56746.7 56746.7 56746.7 56746.7 56746.7 56746.7 56746.7
          56746.7 56746.7 56746.7 56746.7 56746.7 56746.7 56746.7 56746.7 56746.7 56746.7 56746.7 56746.7
          56746.7 56746.7 56746.7 56746.7 56746.7 56746.7 56746.7 56746.7 56746.7 56746.7 56746.7 56746.7
          56746.7 56746.7 56746.7 56746.7 56746.7 56746.7 56746.7 56746.7 56746.7 56746.7 56746.7 56746.7
          56746.7 56746.7 56746.7 56746.7 56746.7 56746.7 56746.7 56746.7 56746.7 56746.7 56746.7 56746.7
          56746.7 56746.7 56746.7 56746.7 56746.7 56746.7 56746.7 56746.7 56746.7 56746.7 56746.7 56746.7
          56746.7 56746.7 56746.7 56746.7 56746.7 56746.7 56746.7 56746.7 56746.7 56746.7 56746.7 56746.7
          56746.7 56746.7 56746.7 56746.7 56746.7 56746.7 56746.7 56746.7 56746.7 56746.7 56746.7 56746.7
          56746.7 56746.7 56746.7 56746.7 56746.7 56746.7 56746.7 56746.7 56746.7 56746.7 56746.7 56746.7
          56746.7 56746.7 56746.7 56746.7 56746.7 56746.7 56746.7 56746.7 56746.7 56746.7 56746.7 56746.7
          56746.7 56746.7 56746.7 56746.7 56746.7 56746.7 56746.7 56746.7 56746.7 56746.7 56746.7 56746.7
          56746.7 56746.7 56746.7 56746.7 56746.7 56746.7 56746.7 56746.7 56746.7 56746.7 56746.7 56746.7
          56746.7 56746.7 56746.7 56746.7 56746.7 56746.7 56746.7 56746.7 56746.7 56746.7 56746.7 56746.7
          56746.7 56746.7 56746.7 56746.7 56746.7
        </DataArray>
        <DataArray type="Float32" Name="porosity" NumberOfComponents="1" format="ascii">
          0.3 0.3 0.3 0.3 0.3 0.3 0.3 0.3 0.3 0.3 0.3 0.3
          0.3 0.3 0.3 0.3 0.3 0.3 0.3 0.3 0.3 0.3 0.3 0.3
          0.3 0.3 0.3 0.3 0.3 0.3 0.3 0.3 0.3 0.3 0.3 0.3
          0.3 0.3 0.3 0.3 0.3 0.3 0.3 0.3 0.3 0.3 0.3 0.3
          0.3 0.3 0.3 0.3 0.3 0.3 0.3 0.3 0.3 0.3 0.3 0.3
          0.3 0.3 0.3 0.3 0.3 0.3 0.3 0.3 0.3 0.3 0.3 0.3
          0.3 0.3 0.3 0.3 0.3 0.3 0.3 0.3 0.3 0.3 0.3 0.3
          0.3 0.3 0.3 0.3 0.3 0.3 0.3 0.3 0.3 0.3 0.3 0.3
          0.3 0.3 0.3 0.3 0.3 0.3 0.3 0.3 0.3 0.3 0.3 0.3
          0.3 0.3 0.3 0.3 0.3 0.3 0.3 0.3 0.3 0.3 0.3 0.3
          0.3 0.3 0.3 0.3 0.3 0.3 0.3 0.3 0.3 0.3 0.3 0.3
          0.3 0.3 0.3 0.3 0.3 0.3 0.3 0.3 0.3 0.3 0.3 0.3
          0.3 0.3 0.3 0.3 0.3 0.3 0.3 0.3 0.3 0.3 0.3 0.3
          0.3 0.3 0.3 0.3 0.3 0.3 0.3 0.3 0.3 0.3 0.3 0.3
          0.3 0.3 0.3 0.3 0.3 0.3 0.3 0.3 0.3 0.3 0.3 0.3
          0.3 0.3 0.3 0.3 0.3 0.3 0.3 0.3 0.3 0.3 0.3 0.3
          0.3 0.3 0.3 0.3 0.3 0.3 0.3 0.3 0.3 0.3 0.3 0.3
          0.3 0.3 0.3 0.3 0.3 0.3 0.3 0.3 0.3 0.3 0.3 0.3
          0.3 0.3 0.3 0.3 0.3 0.3 0.3 0.3 0.3 0.3 0.3 0.3
          0.3 0.3 0.3 0.3 0.3 0.3 0.3 0.3 0.3 0.3 0.3 0.3
          0.3 0.3 0.3 0.3 0.3 0.3 0.3 0.3 0.3 0.3 0.3 0.3
          0.3 0.3 0.3 0.3 0.3 0.3 0.3 0.3 0.3 0.3 0.3 0.3
          0.3 0.3 0.3 0.3 0.3 0.3 0.3 0.3 0.3 0.3 0.3 0.3
          0.3 0.3 0.3 0.3 0.3 0.3 0.3 0.3 0.3 0.3 0.3 0.3
          0.3 0.3 0.3 0.3 0.3 0.3 0.3 0.3 0.3 0.3 0.3 0.3
          0.3 0.3 0.3 0.3 0.3 0.3 0.3 0.3 0.3 0.3 0.3 0.3
          0.3 0.3 0.3 0.3 0.3 0.3 0.3 0.3 0.3 0.3 0.3 0.3
          0.3 0.3 0.3 0.3 0.3 0.3 0.3 0.3 0.3 0.3 0.3 0.3
          0.3 0.3 0.3 0.3 0.3 0.3 0.3 0.3 0.3 0.3 0.3 0.3
          0.3 0.3 0.3 0.3 0.3 0.3 0.3 0.3 0.3 0.3 0.3 0.3
          0.3 0.3 0.3 0.3 0.3 0.3 0.3 0.3 0.3 0.3 0.3 0.3
          0.3 0.3 0.3 0.3 0.3 0.3 0.3 0.3 0.3 0.3 0.3 0.3
          0.3 0.3 0.3 0.3 0.3 0.3 0.3 0.3 0.3 0.3 0.3 0.3
          0.3 0.3 0.3 0.3 0.3 0.3 0.3 0.3 0.3 0.3 0.3 0.3
          0.3 0.3 0.3 0.3 0.3 0.3 0.3 0.3 0.3 0.3 0.3 0.3
          0.3 0.3 0.3 0.3 0.3
        </DataArray>
        <DataArray type="Float32" Name="x_l^H2O" NumberOfComponents="1" format="ascii">
          0.315483 0.315617 0.315483 0.315554 0.315677 0.315604 0.315709 0.315627 0.315498 0.31549 0.315488 0.315483
          0.315488 0.315483 0.315488 0.315483 0.315543 0.315535 0.31732 0.31722 0.31741 0.317315 0.317606 0.31751
          0.317915 0.317816 0.318353 0.31825 0.318942 0.318832 0.319709 0.319591 0.320692 0.320561 0.321943 0.321794
          0.323692 0.323488 0.328425 0.327809 0.360118 0.35601 0.56778 0.541555 0.999988 0.999988 0.999988 0.999988
          1 1 0.315483 0.315524 0.315555 0.31557 0.315487 0.315483 0.315483 0.315483 0.31553 0.317115
          0.317208 0.317399 0.317697 0.318118 0.318683 0.319416 0.320351 0.321532 0.323098 0.326558 0.347984 0.50313
          0.999988 0.999988 1 0.315483 0.315505 0.315523 0.315532 0.315485 0.315483 0.315483 0.315483 0.315526
          0.317002 0.317092 0.317275 0.317559 0.31796 0.318496 0.31919 0.320071 0.321174 0.32258 0.32505 0.337565
          0.438333 0.999988 0.999988 1 0.315483 0.31549 0.315499 0.315504 0.315484 0.315483 0.315483 0.315483
          0.315521 0.316883 0.316968 0.317139 0.317406 0.31778 0.318278 0.318921 0.319732 0.320741 0.321982 0.323596
          0.327081 0.347109 0.492318 0.999988 1 0.315474 0.315476 0.315479 0.315482 0.315483 0.315483 0.315483
          0.315483 0.315517 0.316758 0.316837 0.316995 0.31724 0.317582 0.318036 0.318619 0.31935 0.320252 0.321364
          0.322998 0.32977 0.392486 0.800597 0.999988 0.999989 0.315458 0.315459 0.31546 0.315461 0.315482 0.315483
          0.315483 0.315483 0.315513 0.31663 0.316701 0.316844 0.317065 0.317373 0.317779 0.318296 0.31894 0.319726
          0.320675 0.321855 0.324157 0.33807 0.433468 0.690115 0.48907 0.315439 0.315439 0.31544 0.31544 0.315481
          0.315483 0.315483 0.315483 0.315509 0.316499 0.316563 0.31669 0.316886 0.317158 0.317513 0.317963 0.318517
          0.319185 0.319975 0.320896 0.322021 0.324386 0.336655 0.373538 0.335695 0.315416 0.315417 0.315417 0.315417
          0.315481 0.315483 0.315483 0.315483 0.315505 0.316369 0.316424 0.316536 0.316707 0.316943 0.317249 0.317632
          0.318098 0.318651 0.319291 0.320007 0.320776 0.32159 0.322962 0.326218 0.323217 0.315391 0.315391 0.315391
          0.315392 0.31548 0.315483 0.315483 0.315483 0.315501 0.316239 0.316287 0.316384 0.316532 0.316733 0.316992
          0.317313 0.317698 0.318147 0.318653 0.319201 0.319758 0.320274 0.320714 0.32112 0.321034 0.315361 0.315361
          0.315362 0.315362 0.315479 0.315483 0.315483 0.315483 0.315498 0.316111 0.316153 0.316236 0.316362 0.316533
          0.31675 0.317016 0.31733 0.317688 0.318084 0.3185 0.318911 0.319281 0.319574 0.319764 0.31982 0.315327
          0.315327 0.315327 0.315328 0.315477 0.315483 0.315483 0.315483 0.315494 0.315987 0.316023 0.316095 0.316202
          0.316346 0.316527 0.316745 0.317 0.317285 0.317593 0.317911 0.318218 0.31849 0.318705 0.318841 0.318888
          0.315287 0.315287 0.315288 0.315289 0.315476 0.315482 0.315483 0.315483 0.31549 0.315865 0.315897 0.31596
          0.316052 0.316174 0.316326 0.316506 0.316713 0.316941 0.317184 0.317429 0.317662 0.317867 0.318027 0.318129
          0.318164 0.315241 0.315242 0.315243 0.315244 0.315474 0.315482 0.315483 0.315483 0.315486 0.315744 0.315775
          0.315832 0.315914 0.31602 0.316149 0.316301 0.316471 0.316657 0.316852 0.317045 0.317228 0.317386 0.317509
          0.317587 0.317614 0.315186 0.315189 0.315195 0.315191 0.315466 0.315476 0.315478 0.315479 0.31548 0.31562
          0.315656 0.315713 0.315789 0.315884 0.315998 0.316129 0.316275 0.316432 0.316594 0.316753 0.316902 0.31703
          0.317129 0.317192 0.317214 0.315121 0.315125 0.315139 0.315178 0.315206 0.315261 0.315311 0.315364 0.315424
          0.315484 0.315544 0.315605 0.315679 0.315767 0.315872 0.315991 0.316122 0.316262 0.316406 0.316546 0.316676
          0.316787 0.316873 0.316927 0.316945 0.315042 0.315047 0.315064 0.315093 0.315129 0.315175 0.315224 0.315276
          0.315332 0.315389 0.315448 0.315511 0.315584 0.31567 0.315771 0.315886 0.316013 0.316148 0.316285 0.316419
          0.316543 0.316649 0.31673 0.316781 0.316799
        </DataArray>
        <DataArray type="Float32" Name="x_l^N2" NumberOfComponents="1" format="ascii">
          1.14721e-05 1.1477e-05 1.14721e-05 1.14747e-05 1.14792e-05 1.14765e-05 1.14804e-05 1.14774e-05 1.14727e-05 1.14724e-05 1.14723e-05 1.14721e-05
          1.14723e-05 1.14721e-05 1.14723e-05 1.14721e-05 1.14743e-05 1.1474e-05 1.15389e-05 1.15353e-05 1.15422e-05 1.15387e-05 1.15493e-05 1.15458e-05
          1.15606e-05 1.1557e-05 1.15765e-05 1.15727e-05 1.15979e-05 1.15939e-05 1.16258e-05 1.16215e-05 1.16615e-05 1.16568e-05 1.17066e-05 1.17013e-05