<?xml version="1.0"?>
<VTKFile type="UnstructuredGrid" version="0.1" byte_order="LittleEndian">
  <UnstructuredGrid>
    <Piece NumberOfCells="324" NumberOfPoints="361">
      <PointData Scalars="pg" Vectors="v">
        <DataArray type="Float32" Name="pg" NumberOfComponents="1" format="ascii">
          100000 100000 100000 100000 100000 100000 100000 100000 100000 100000 100000 100000
          100000 100000 100000 100000 100000 100000 100000 100000 100000 100000 100000 100000
          100000 100000 100000 100000 100000 100000 100000 100000 100000 100000 100000 100000
          100000 100000 100000 100000 100000 100000 100000 100000 100000 100000 100000 100000
          100000 100000 100000 100000 100000 100000 100000 100000 100000 100000 100000 100000
          100000 100000 100000 100000 100000 100000 100000 100000 100000 100000 100000 100000
          100000 100000 100000 100000 100000 100000 100000 100000 100000 100000 100000 100000
          100000 100000 100000 100000 100000 100000 100000 100000 100000 100000 100000 100000
          100000 100000 100000 100000 100000 100000 100000 100000 100000 100000 100000 100000
          100000 100000 100000 100000 100000 100000 100000 100000 100000 100000 100000 100000
          100000 100000 100000 100000 100000 100000 100000 100000 100000 100000 100000 100000
          100000 100000 100000 100000 100000 100000 100000 100000 100000 100000 100000 100000
          100000 100000 100000 100000 100000 100000 100000 100000 100000 100000 100000 100000
          100000 100000 100000 100000 100000 100000 100000 100000 100000 100000 100000 100000
          100000 100000 100000 100000 100000 100000 100000 100000 100000 100000 100000 100000
          100000 100000 100000 100000 100000 100000 100000 100000 100000 100000 100000 100000
          100000 100000 100000 100000 100000 100000 100000 100000 100000 100000 100000 100000
          100000 100000 100000 100000 100000 100000 100000 100000 100000 100000 100000 100000
          100000 100000 100000 100000 100000 100000 100000 100000 100000 100000 100000 100000
          100000 100000 100000 100000 100000 100000 100000 100000 100000 100000 100000 100000
          100000 100000 100000 100000 100000 100000 100000 100000 100000 100000 100000 100000
          100000 100000 100000 100000 100000 100000 100000 100000 100000 100000 100000 100000
          100000 100000 100000 100000 100000 100000 100000 100000 100000 100000 100000 100000
          100000 100000 100000 100000 100000 100000 100000 100000 100000 100000 100000 100000
          100000 100000 100000 100000 100000 100000 100000 100000 100000 100000 100000 100000
          100000 100000 100000 100000 100000 100000 100000 100000 100000 100000 100000 100000
          100000 100000 100000 100000 100000 100000 100000 100000 100000 100000 100000 100000
          100000 100000 100000 100000 100000 100000 100000 100000 100000 100000 100000 100000
          100000 100000 100000 100000 100000 100000 100000 100000 100000 100000 100000 100000
          100000 100000 100000 100000 100000 100000 100000 100000 100000 100000 100000 100000
          100000
        </DataArray>
        <DataArray type="Float32" Name="delP" NumberOfComponents="1" format="ascii">
          1.18733e-06 -2.74531e-06 1.11772e-06 -2.81492e-06 -6.46476e-06 -6.51043e-06 -1.03934e-05 -1.04116e-05 -1.40753e-05 -1.40864e-05 -1.78879e-05 -1.78934e-05
          -2.15238e-05 -2.153e-05 -2.52351e-05 -2.52403e-05 -2.8813e-05 -2.88194e-05 -3.24187e-05 -3.24248e-05 -3.59129e-05 -3.59197e-05 -3.93978e-05 -3.94047e-05
          -4.27792e-05 -4.27867e-05 -4.61266e-05 -4.61345e-05 -4.93727e-05 -4.93812e-05 -5.25738e-05 -5.25831e-05 -5.56777e-05 -5.56882e-05 -5.87444e-05 -5.87569e-05
          -6.17326e-05 -6.17451e-05 1.33536e-06 -2.66133e-06 -6.35438e-06 -1.02892e-05 -1.39667e-05 -1.77891e-05 -2.14297e-05 -2.5145e-05 -2.87274e-05 -3.23335e-05
          -3.58299e-05 -3.93139e-05 -4.26958e-05 -4.60424e-05 -4.92879e-05 -5.249e-05 -5.55957e-05 -5.86712e-05 -6.16709e-05 1.01578e-06 -3.07745e-06 -6.72271e-06
          -1.06004e-05 -1.42678e-05 -1.80423e-05 -2.17015e-05 -2.53982e-05 -2.90097e-05 -3.2616e-05 -3.61431e-05 -3.96349e-05 -4.30429e-05 -4.63937e-05 -4.96517e-05
          -5.28399e-05 -5.5928e-05 -5.89508e-05 -6.18816e-05 1.42718e-06 -2.66118e-06 -6.35681e-06 -1.02903e-05 -1.40075e-05 -1.78081e-05 -2.14971e-05 -2.52066e-05
          -2.88354e-05 -3.24487e-05 -3.59853e-05 -3.94808e-05 -4.28928e-05 -4.6245e-05 -4.95029e-05 -5.2691e-05 -5.5775e-05 -5.88005e-05 -6.17351e-05 1.24724e-07
          -3.38109e-06 -7.17392e-06 -1.08053e-05 -1.45711e-05 -1.82661e-05 -2.20049e-05 -2.56896e-05 -2.93755e-05 -3.3001e-05 -3.65979e-05 -4.01188e-05 -4.35855e-05
          -4.69551e-05 -5.02475e-05 -5.34158e-05 -5.64847e-05 -5.93835e-05 -6.21402e-05 6.49627e-07 -2.84442e-06 -6.70466e-06 -1.03709e-05 -1.41931e-05 -1.7913e-05
          -2.16848e-05 -2.53844e-05 -2.90859e-05 -3.27188e-05 -3.63207e-05 -3.98447e-05 -4.3311e-05 -4.66831e-05 -4.9974e-05 -5.31481e-05 -5.62181e-05 -5.91352e-05
          -6.19129e-05 5.25906e-08 -3.49818e-06 -7.33648e-06 -1.09316e-05 -1.47492e-05 -1.83965e-05 -2.21836e-05 -2.58442e-05 -2.95753e-05 -3.31972e-05 -3.68346e-05
          -4.03614e-05 -4.38591e-05 -4.72312e-05 -5.0535e-05 -5.36863e-05 -5.67291e-05 -5.95794e-05 -6.22752e-05 5.4641e-07 -2.99346e-06 -6.83607e-06 -1.04452e-05
          -1.42872e-05 -1.79665e-05 -2.17723e-05 -2.54547e-05 -2.91901e-05 -3.28209e-05 -3.6452e-05 -3.99806e-05 -4.34687e-05 -4.68433e-05 -5.01426e-05 -5.33068e-05
          -5.63618e-05 -5.92477e-05 -6.1984e-05 0 -3.5277e-06 -7.38572e-06 -1.0972e-05 -1.48047e-05 -1.84386e-05 -2.22394e-05 -2.58901e-05 -2.96347e-05
          -3.32521e-05 -3.69016e-05 -4.04272e-05 -4.39332e-05 -4.73037e-05 -5.06088e-05 -5.37539e-05 -5.6788e-05 -5.96285e-05 -6.23134e-05 5.46686e-07 -2.99318e-06
          -6.83578e-06 -1.04449e-05 -1.42868e-05 -1.79661e-05 -2.17719e-05 -2.54543e-05 -2.91897e-05 -3.28204e-05 -3.64515e-05 -3.99801e-05 -4.34682e-05 -4.68428e-05
          -5.01421e-05 -5.33064e-05 -5.63614e-05 -5.92474e-05 -6.19838e-05 5.31727e-08 -3.4976e-06 -7.3359e-06 -1.09309e-05 -1.47485e-05 -1.83957e-05 -2.21828e-05
          -2.58434e-05 -2.95744e-05 -3.31963e-05 -3.68337e-05 -4.03604e-05 -4.38581e-05 -4.72302e-05 -5.05341e-05 -5.36855e-05 -5.67285e-05 -5.95788e-05 -6.22748e-05
          6.50442e-07 -2.8436e-06 -6.70379e-06 -1.037e-05 -1.41921e-05 -1.7912e-05 -2.16836e-05 -2.53831e-05 -2.90845e-05 -3.27174e-05 -3.63192e-05 -3.98432e-05
          -4.33095e-05 -4.66817e-05 -4.99726e-05 -5.31469e-05 -5.6217e-05 -5.91343e-05 -6.19123e-05 1.2583e-07 -3.38e-06 -7.17276e-06 -1.08041e-05 -1.45698e-05
          -1.82646e-05 -2.20032e-05 -2.56878e-05 -2.93736e-05 -3.2999e-05 -3.65958e-05 -4.01167e-05 -4.35833e-05 -4.6953e-05 -5.02455e-05 -5.3414e-05 -5.64832e-05
          -5.93824e-05 -6.21394e-05 1.42849e-06 -2.65987e-06 -6.35543e-06 -1.02888e-05 -1.40058e-05 -1.78063e-05 -2.14951e-05 -2.52045e-05 -2.88331e-05 -3.24464e-05
          -3.59829e-05 -3.94783e-05 -4.28903e-05 -4.62427e-05 -4.95008e-05 -5.26891e-05 -5.57734e-05 -5.87993e-05 -6.17342e-05 1.01712e-06 -3.0761e-06 -6.7213e-06
          -1.05989e-05 -1.42662e-05 -1.80406e-05 -2.16997e-05 -2.53963e-05 -2.90076e-05 -3.26138e-05 -3.61409e-05 -3.96327e-05 -4.30407e-05 -4.63915e-05 -4.96497e-05
          -5.2838e-05 -5.59263e-05 -5.89495e-05 -6.18805e-05 1.33681e-06 -2.65986e-06 -6.35287e-06 -1.02876e-05 -1.3965e-05 -1.77874e-05 -2.14278e-05 -2.5143e-05
          -2.87253e-05 -3.23313e-05 -3.58277e-05 -3.93118e-05 -4.26936e-05 -4.60404e-05 -4.9286e-05 -5.24883e-05 -5.55941e-05 -5.867e-05 -6.16699e-05 1.11919e-06
          -2.81347e-06 -6.50893e-06 -1.04101e-05 -1.40848e-05 -1.78917e-05 -2.15282e-05 -2.52383e-05 -2.88174e-05 -3.24228e-05 -3.59176e-05 -3.94025e-05 -4.27846e-05
          -4.61325e-05 -4.93793e-05 -5.25814e-05 -5.56867e-05 -5.87556e-05 -6.1744e-05 1.1888e-06 -2.74385e-06 -6.46325e-06 -1.03919e-05 -1.40737e-05 -1.78862e-05
          -2.1522e-05 -2.52331e-05 -2.8811e-05 -3.24167e-05 -3.59108e-05 -3.93957e-05 -4.27771e-05 -4.61246e-05 -4.93708e-05 -5.2572e-05 -5.56762e-05 -5.87431e-05
          -6.17316e-05
        </DataArray>
        <DataArray type="Float32" Name="X_gH2O" NumberOfComponents="1" format="ascii">
          0.0001 0.0001 0.0001 0.0001 0.0001 0.0001 0.0001 0.0001 0.0001 0.0001 0.0001 0.0001
          0.0001 0.0001 0.0001 0.0001 0.0001 9.99999e-05 0.0001 9.99999e-05 0.0001 9.99999e-05 0.0001 9.99999e-05
          0.0001 9.99999e-05 0.0001 9.99999e-05 0.0001 9.99999e-05 0.0001 9.99999e-05 0.0001 9.99999e-05 0.0001 9.99999e-05
          0.0001 9.99999e-05 0.0001 0.0001 0.0001 0.0001 0.0001 0.0001 0.0001 0.0001 0.0001 0.0001
          0.0001 0.0001 0.0001 0.0001 0.0001 0.0001 0.0001 0.0001 0.0001 0.0001 0.0001 9.99999e-05
          9.99998e-05 9.99997e-05 9.99996e-05 9.99995e-05 9.99993e-05 9.99991e-05 9.9999e-05 9.99987e-05 9.99985e-05 9.99983e-05 9.9998e-05 9.99978e-05
          9.99975e-05 9.99972e-05 9.99969e-05 9.99968e-05 0.0001 9.99876e-05 9.99753e-05 9.99631e-05 9.99509e-05 9.99387e-05 9.99267e-05 9.99147e-05
          9.99027e-05 9.98909e-05 9.98791e-05 9.98675e-05 9.9856e-05 9.98447e-05 9.98335e-05 9.98226e-05 9.98118e-05 9.98012e-05 9.97959e-05 9e-05
          9.00303e-05 9.00575e-05 9.00788e-05 9.00971e-05 9.01134e-05 9.01289e-05 9.01442e-05 9.016e-05 9.01768e-05 9.01949e-05 9.02148e-05 9.02369e-05
          9.02614e-05 9.02887e-05 9.03191e-05 9.03527e-05 9.03899e-05 9.04095e-05 9e-05 9.00001e-05 9.00002e-05 9.00005e-05 9.00011e-05 9.00019e-05
          9.00033e-05 9.00053e-05 9.00081e-05 9.0012e-05 9.00171e-05 9.00237e-05 9.0032e-05 9.00422e-05 9.00546e-05 9.00693e-05 9.00865e-05 9.01064e-05
          9.01171e-05 9e-05 9e-05 9.00001e-05 9.00002e-05 9.00005e-05 9.0001e-05 9.00019e-05 9.00033e-05 9.00053e-05 9.00081e-05 9.00119e-05
          9.00169e-05 9.00231e-05 9.00309e-05 9.00404e-05 9.00517e-05 9.0065e-05 9.00806e-05 9.00889e-05 9e-05 9e-05 9.00001e-05 9.00002e-05
          9.00004e-05 9.00009e-05 9.00016e-05 9.00028e-05 9.00045e-05 9.0007e-05 9.00102e-05 9.00145e-05 9.00199e-05 9.00266e-05 9.00348e-05 9.00446e-05
          9.00562e-05 9.00697e-05 9.0077e-05 9e-05 9e-05 9e-05 9.00001e-05 9.00004e-05 9.00008e-05 9.00015e-05 9.00026e-05 9.00043e-05
          9.00066e-05 9.00096e-05 9.00137e-05 9.00188e-05 9.00252e-05 9.0033e-05 9.00424e-05 9.00535e-05 9.00664e-05 9.00733e-05 9e-05 9e-05
          9.00001e-05 9.00002e-05 9.00004e-05 9.00009e-05 9.00016e-05 9.00028e-05 9.00045e-05 9.0007e-05 9.00102e-05 9.00145e-05 9.00199e-05 9.00266e-05
          9.00348e-05 9.00446e-05 9.00562e-05 9.00698e-05 9.00771e-05 9e-05 9e-05 9.00001e-05 9.00002e-05 9.00005e-05 9.0001e-05 9.00019e-05
          9.00033e-05 9.00053e-05 9.00082e-05 9.0012e-05 9.00169e-05 9.00232e-05 9.0031e-05 9.00404e-05 9.00518e-05 9.00652e-05 9.00807e-05 9.00891e-05
          9e-05 9.00001e-05 9.00003e-05 9.00007e-05 9.00012e-05 9.00021e-05 9.00035e-05 9.00055e-05 9.00084e-05 9.00123e-05 9.00175e-05 9.00241e-05
          9.00325e-05 9.00427e-05 9.00551e-05 9.00699e-05 9.00872e-05 9.01071e-05 9.01178e-05 9e-05 9.00303e-05 9.00574e-05 9.00787e-05 9.0097e-05
          9.01132e-05 9.01287e-05 9.01439e-05 9.01597e-05 9.01764e-05 9.01945e-05 9.02143e-05 9.02363e-05 9.02607e-05 9.02878e-05 9.0318e-05 9.03515e-05
          9.03885e-05 9.0408e-05 0.0001 9.99876e-05 9.99752e-05 9.99629e-05 9.99507e-05 9.99385e-05 9.99263e-05 9.99142e-05 9.99022e-05 9.98903e-05
          9.98784e-05 9.98667e-05 9.9855e-05 9.98435e-05 9.98321e-05 9.98209e-05 9.98099e-05 9.9799e-05 9.97936e-05 0.0001 0.0001 0.0001
          9.99999e-05 9.99999e-05 9.99998e-05 9.99997e-05 9.99996e-05 9.99994e-05 9.99993e-05 9.99991e-05 9.99989e-05 9.99987e-05 9.99985e-05 9.99982e-05
          9.9998e-05 9.99977e-05 9.99974e-05 9.99973e-05 0.0001 0.0001 0.0001 0.0001 0.0001 0.0001 0.0001 0.0001
          0.0001 0.0001 0.0001 0.0001 0.0001 0.0001 0.0001 0.0001 0.0001 0.0001 0.0001 0.0001
          0.0001 0.0001 0.0001 0.0001 0.0001 0.0001 0.0001 9.99999e-05 9.99999e-05 9.99999e-05 9.99999e-05 9.99999e-05
          9.99999e-05 9.99999e-05 9.99999e-05 9.99999e-05 9.99999e-05 9.99999e-05 0.0001 0.0001 0.0001 0.0001 0.0001 0.0001
          0.0001 0.0001 0.0001 0.0001 0.0001 0.0001 0.0001 0.0001 0.0001 0.0001 0.0001 0.0001
          0.0001
        </DataArray>
        <DataArray type="Float32" Name="temperature" NumberOfComponents="1" format="ascii">
          283.15 283.15 283.15 283.15 283.15 283.15 283.15 283.15 283.15 283.15 283.15 283.15
          283.15 283.15 283.15 283.15 283.15 283.15 283.15 283.15 283.15 283.15 283.15 283.15
          283.15 283.15 283.15 283.15 283.15 283.15 283.15 283.15 283.15 283.15 283.15 283.15
          283.15 283.15 283.15 283.15 283.15 283.15 283.15 283.15 283.15 283.15 283.15 283.15
          283.15 283.15 283.15 283.15 283.15 283.15 283.15 283.15 283.15 283.15 283.15 283.15
          283.15 283.15 283.15 283.15 283.15 283.15 283.15 283.15 283.15 283.15 283.15 283.15
          283.15 283.15 283.15 283.15 283.15 283.151 283.152 283.153 283.154 283.156 283.157 283.158
          283.159 283.16 283.161 283.162 283.163 283.164 283.165 283.166 283.167 283.168 283.168 284.15
          284.147 284.144 284.142 284.141 284.139 284.138 284.136 284.135 284.133 284.132 284.13 284.128
          284.125 284.122 284.12 284.116 284.113 284.111 284.15 284.15 284.15 284.15 284.15 284.15
          284.15 284.15 284.149 284.149 284.148 284.148 284.147 284.146 284.145 284.143 284.142 284.14
          284.138 284.15 284.15 284.15 284.15 284.15 284.15 284.15 284.15 284.149 284.149 284.149
          284.148 284.148 284.147 284.146 284.145 284.143 284.142 284.141 284.15 284.15 284.15 284.15
          284.15 284.15 284.15 284.15 284.15 284.149 284.149 284.149 284.148 284.147 284.147 284.146
          284.145 284.143 284.142 284.15 284.15 284.15 284.15 284.15 284.15 284.15 284.15 284.15
          284.149 284.149 284.149 284.148 284.147 284.147 284.146 284.144 284.143 284.142 284.15 284.15
          284.15 284.15 284.15 284.15 284.15 284.15 284.15 284.149 284.149 284.149 284.148 284.147
          284.147 284.146 284.145 284.143 284.142 284.15 284.15 284.15 284.15 284.15 284.15 284.15
          284.15 284.149 284.149 284.149 284.148 284.148 284.147 284.146 284.145 284.143 284.142 284.141
          284.15 284.15 284.15 284.15 284.15 284.15 284.15 284.15 284.149 284.149 284.148 284.148
          284.147 284.146 284.145 284.143 284.142 284.14 284.138 284.15 284.147 284.144 284.142 284.141
          284.139 284.138 284.136 284.135 284.133 284.132 284.13 284.128 284.125 284.123 284.12 284.116
          284.113 284.111 283.15 283.151 283.152 283.153 283.154 283.156 283.157 283.158 283.159 283.16
          283.161 283.162 283.163 283.164 283.165 283.166 283.167 283.168 283.169 283.15 283.15 283.15
          283.15 283.15 283.15 283.15 283.15 283.15 283.15 283.15 283.15 283.15 283.15 283.15
          283.15 283.15 283.15 283.15 283.15 283.15 283.15 283.15 283.15 283.15 283.15 283.15
          283.15 283.15 283.15 283.15 283.15 283.15 283.15 283.15 283.15 283.15 283.15 283.15
          283.15 283.15 283.15 283.15 283.15 283.15 283.15 283.15 283.15 283.15 283.15 283.15
          283.15 283.15 283.15 283.15 283.15 283.15 283.15 283.15 283.15 283.15 283.15 283.15
          283.15 283.15 283.15 283.15 283.15 283.15 283.15 283.15 283.15 283.15 283.15 283.15
          283.15
        </DataArray>
        <DataArray type="Float32" Name="rhoG" NumberOfComponents="1" format="ascii">
          1.18985 1.18985 1.18985 1.18985 1.18985 1.18985 1.18985 1.18985 1.18985 1.18985 1.18985 1.18985
          1.18985 1.18985 1.18985 1.18985 1.18985 1.18985 1.18985 1.18985 1.18985 1.18985 1.18985 1.18985
          1.18985 1.18985 1.18985 1.18985 1.18985 1.18985 1.18985 1.18985 1.18985 1.18985 1.18985 1.18985
          1.18985 1.18985 1.18985 1.18985 1.18985 1.18985 1.18985 1.18985 1.18984 1.18984 1.18984 1.18984
          1.18984 1.18984 1.18984 1.18984 1.18984 1.18984 1.18984 1.18984 1.18984 1.18985 1.18985 1.18985
          1.18985 1.18985 1.18985 1.18985 1.18985 1.18985 1.18985 1.18985 1.18985 1.18985 1.18985 1.18985
          1.18985 1.18985 1.18985 1.18985 1.18985 1.18984 1.18984 1.18983 1.18983 1.18982 1.18982 1.18981
          1.18981 1.1898 1.1898 1.1898 1.18979 1.18979 1.18978 1.18978 1.18977 1.18977 1.18977 1.18566
          1.18568 1.18569 1.1857 1.1857 1.18571 1.18572 1.18572 1.18573 1.18573 1.18574 1.18575 1.18576
          1.18577 1.18578 1.18579 1.18581 1.18582 1.18583 1.18566 1.18566 1.18566 1.18566 1.18566 1.18567
          1.18567 1.18567 1.18567 1.18567 1.18567 1.18567 1.18568 1.18568 1.18569 1.18569 1.1857 1.18571
          1.18571 1.18566 1.18566 1.18566 1.18566 1.18566 1.18567 1.18567 1.18567 1.18567 1.18567 1.18567
          1.18567 1.18567 1.18568 1.18568 1.18569 1.18569 1.1857 1.1857 1.18566 1.18566 1.18566 1.18566
          1.18566 1.18566 1.18567 1.18567 1.18567 1.18567 1.18567 1.18567 1.18567 1.18568 1.18568 1.18568
          1.18569 1.18569 1.1857 1.18566 1.18566 1.18566 1.18566 1.18566 1.18567 1.18567 1.18567 1.18567
          1.18567 1.18567 1.18567 1.18567 1.18568 1.18568 1.18568 1.18569 1.18569 1.1857 1.18566 1.18566
          1.18566 1.18566 1.18566 1.18566 1.18567 1.18567 1.18567 1.18567 1.18567 1.18567 1.18567 1.18568
          1.18568 1.18568 1.18569 1.18569 1.1857 1.18566 1.18566 1.18566 1.18566 1.18566 1.18567 1.18567
          1.18567 1.18567 1.18567 1.18567 1.18567 1.18567 1.18568 1.18568 1.18569 1.18569 1.1857 1.1857
          1.18566 1.18566 1.18566 1.18566 1.18566 1.18567 1.18567 1.18567 1.18567 1.18567 1.18567 1.18567
          1.18568 1.18568 1.18569 1.18569 1.1857 1.18571 1.18571 1.18566 1.18568 1.18569 1.1857 1.1857
          1.18571 1.18572 1.18572 1.18573 1.18573 1.18574 1.18575 1.18576 1.18577 1.18578 1.18579 1.1858
          1.18582 1.18583 1.18985 1.18984 1.18984 1.18983 1.18983 1.18982 1.18982 1.18981 1.18981 1.1898
          1.1898 1.18979 1.18979 1.18979 1.18978 1.18978 1.18977 1.18977 1.18977 1.18985 1.18985 1.18985
          1.18985 1.18985 1.18985 1.18985 1.18985 1.18985 1.18985 1.18985 1.18985 1.18985 1.18985 1.18985
          1.18985 1.18985 1.18985 1.18985 1.18985 1.18985 1.18985 1.18985 1.18985 1.18985 1.18984 1.18984
          1.18984 1.18984 1.18984 1.18984 1.18984 1.18984 1.18984 1.18984 1.18984 1.18984 1.18984 1.18985
          1.18985 1.18985 1.18985 1.18985 1.18985 1.18985 1.18985 1.18985 1.18985 1.18985 1.18985 1.18985
          1.18985 1.18985 1.18985 1.18985 1.18985 1.18985 1.18985 1.18985 1.18985 1.18985 1.18985 1.18985
          1.18985 1.18985 1.18985 1.18985 1.18985 1.18985 1.18985 1.18985 1.18985 1.18985 1.18985 1.18985
          1.18985
        </DataArray>
        <DataArray type="Float32" Name="mu" NumberOfComponents="1" format="ascii">
          1.69323e-05 1.69323e-05 1.69323e-05 1.69323e-05 1.69323e-05 1.69323e-05 1.69323e-05 1.69323e-05 1.69323e-05 1.69323e-05 1.69323e-05 1.69323e-05
          1.69323e-05 1.69323e-05 1.69323e-05 1.69323e-05 1.69323e-05 1.69323e-05 1.69323e-05 1.69323e-05 1.69323e-05 1.69323e-05 1.69323e-05 1.69323e-05
          1.69323e-05 1.69323e-05 1.69323e-05 1.69323e-05 1.69323e-05 1.69323e-05 1.69323e-05 1.69323e-05 1.69323e-05 1.69323e-05 1.69323e-05 1.69323e-05
          1.69323e-05 1.69323e-05 1.69323e-05 1.69323e-05 1.69323e-05 1.69323e-05 1.69323e-05 1.69323e-05 1.69323e-05 1.69323e-05 1.69323e-05 1.69323e-05
          1.69323e-05 1.69323e-05 1.69323e-05 1.69323e-05 1.69323e-05 1.69323e-05 1.69323e-05 1.69323e-05 1.69323e-05 1.69323e-05 1.69323e-05 1.69323e-05
          1.69323e-05 1.69323e-05 1.69323e-05 1.69323e-05 1.69323e-05 1.69323e-05 1.69323e-05 1.69323e-05 1.69323e-05 1.69323e-05 1.69323e-05 1.69323e-05
          1.69323e-05 1.69323e-05 1.69323e-05 1.69323e-05 1.69323e-05 1.69323e-05 1.69324e-05 1.69324e-05 1.69325e-05 1.69325e-05 1.69326e-05 1.69326e-05
          1.69327e-05 1.69327e-05 1.69328e-05 1.69328e-05 1.69329e-05 1.69329e-05 1.6933e-05 1.6933e-05 1.69331e-05 1.69331e-05 1.69331e-05 1.69788e-05
          1.69787e-05 1.69785e-05 1.69784e-05 1.69784e-05 1.69783e-05 1.69782e-05 1.69782e-05 1.69781e-05 1.6978e-05 1.69779e-05 1.69779e-05 1.69778e-05
          1.69776e-05 1.69775e-05 1.69774e-05 1.69772e-05 1.69771e-05 1.6977e-05 1.69788e-05 1.69788e-05 1.69788e-05 1.69788e-05 1.69788e-05 1.69788e-05
          1.69788e-05 1.69788e-05 1.69788e-05 1.69788e-05 1.69787e-05 1.69787e-05 1.69787e-05 1.69786e-05 1.69786e-05 1.69785e-05 1.69784e-05 1.69783e-05
          1.69783e-05 1.69788e-05 1.69788e-05 1.69788e-05 1.69788e-05 1.69788e-05 1.69788e-05 1.69788e-05 1.69788e-05 1.69788e-05 1.69788e-05 1.69787e-05
          1.69787e-05 1.69787e-05 1.69787e-05 1.69786e-05 1.69786e-05 1.69785e-05 1.69784e-05 1.69784e-05 1.69788e-05 1.69788e-05 1.69788e-05 1.69788e-05
          1.69788e-05 1.69788e-05 1.69788e-05 1.69788e-05 1.69788e-05 1.69788e-05 1.69788e-05 1.69787e-05 1.69787e-05 1.69787e-05 1.69786e-05 1.69786e-05
          1.69785e-05 1.69785e-05 1.69784e-05 1.69788e-05 1.69788e-05 1.69788e-05 1.69788e-05 1.69788e-05 1.69788e-05 1.69788e-05 1.69788e-05 1.69788e-05
          1.69788e-05 1.69788e-05 1.69787e-05 1.69787e-05 1.69787e-05 1.69786e-05 1.69786e-05 1.69785e-05 1.69785e-05 1.69784e-05 1.69788e-05 1.69788e-05
          1.69788e-05 1.69788e-05 1.69788e-05 1.69788e-05 1.69788e-05 1.69788e-05 1.69788e-05 1.69788e-05 1.69788e-05 1.69787e-05 1.69787e-05 1.69787e-05
          1.69786e-05 1.69786e-05 1.69785e-05 1.69785e-05 1.69784e-05 1.69788e-05 1.69788e-05 1.69788e-05 1.69788e-05 1.69788e-05 1.69788e-05 1.69788e-05
          1.69788e-05 1.69788e-05 1.69788e-05 1.69787e-05 1.69787e-05 1.69787e-05 1.69787e-05 1.69786e-05 1.69786e-05 1.69785e-05 1.69784e-05 1.69784e-05
          1.69788e-05 1.69788e-05 1.69788e-05 1.69788e-05 1.69788e-05 1.69788e-05 1.69788e-05 1.69788e-05 1.69788e-05 1.69787e-05 1.69787e-05 1.69787e-05
          1.69787e-05 1.69786e-05 1.69786e-05 1.69785e-05 1.69784e-05 1.69783e-05 1.69783e-05 1.69788e-05 1.69787e-05 1.69785e-05 1.69785e-05 1.69784e-05
          1.69783e-05 1.69782e-05 1.69782e-05 1.69781e-05 1.6978e-05 1.69779e-05 1.69779e-05 1.69778e-05 1.69776e-05 1.69775e-05 1.69774e-05 1.69772e-05
          1.69771e-05 1.6977e-05 1.69323e-05 1.69323e-05 1.69324e-05 1.69324e-05 1.69325e-05 1.69325e-05 1.69326e-05 1.69326e-05 1.69327e-05 1.69327e-05
          1.69328e-05 1.69328e-05 1.69329e-05 1.69329e-05 1.6933e-05 1.6933e-05 1.69331e-05 1.69331e-05 1.69331e-05 1.69323e-05 1.69323e-05 1.69323e-05
          1.69323e-05 1.69323e-05 1.69323e-05 1.69323e-05 1.69323e-05 1.69323e-05 1.69323e-05 1.69323e-05 1.69323e-05 1.69323e-05 1.69323e-05 1.69323e-05
          1.69323e-05 1.69323e-05 1.69323e-05 1.69323e-05 1.69323e-05 1.69323e-05 1.69323e-05 1.69323e-05 1.69323e-05 1.69323e-05 1.69323e-05 1.69323e-05
          1.69323e-05 1.69323e-05 1.69323e-05 1.69323e-05 1.69323e-05 1.69323e-05 1.69323e-05 1.69323e-05 1.69323e-05 1.69323e-05 1.69323e-05 1.69323e-05
          1.69323e-05 1.69323e-05 1.69323e-05 1.69323e-05 1.69323e-05 1.69323e-05 1.69323e-05 1.69323e-05 1.69323e-05 1.69323e-05 1.69323e-05 1.69323e-05
          1.69323e-05 1.69323e-05 1.69323e-05 1.69323e-05 1.69323e-05 1.69323e-05 1.69323e-05 1.69323e-05 1.69323e-05 1.69323e-05 1.69323e-05 1.69323e-05
          1.69323e-05 1.69323e-05 1.69323e-05 1.69323e-05 1.69323e-05 1.69323e-05 1.69323e-05 1.69323e-05 1.69323e-05 1.69323e-05 1.69323e-05 1.69323e-05
          1.69323e-05
        </DataArray>
        <DataArray type="Float32" Name="h" NumberOfComponents="1" format="ascii">
          302226 302226 302226 302226 302226 302226 302226 302226 302226 302226 302226 302226
          302226 302226 302226 302226 302226 302226 302226 302226 302226 302226 302226 302226
          302226 302226 302226 302226 302226 302226 302226 302226 302226 302226 302226 302226
          302226 302226 302226 302226 302226 302226 302226 302226 302226 302226 302226 302226
          302226 302226 302226 302226 302226 302226 302226 302226 302226 302226 302226 302226
          302226 302226 302226 302226 302226 302226 302226 302226 302226 302226 302226 302226
          302226 302226 302226 302226 302226 302227 302228 302230 302231 302232 302233 302234
          302235 302236 302237 302238 302239 302240 302242 302243 302244 302245 302245 303246
          303243 303240 303238 303237 303235 303234 303232 303231 303229 303227 303225 303223
          303221 303218 303215 303212 303208 303206 303246 303246 303246 303246 303246 303246
          303246 303246 303245 303245 303244 303244 303243 303242 303241 303239 303238 303236
          303234 303246 303246 303246 303246 303246 303246 303246 303246 303246 303245 303245
          303244 303244 303243 303242 303241 303239 303238 303237 303246 303246 303246 303246
          303246 303246 303246 303246 303246 303246 303245 303245 303244 303244 303243 303242
          303241 303239 303238 303246 303246 303246 303246 303246 303246 303246 303246 303246
          303245 303245 303245 303244 303243 303243 303242 303240 303239 303238 303246 303246
          303246 303246 303246 303246 303246 303246 303246 303246 303245 303245 303244 303244
          303243 303242 303241 303239 303238 303246 303246 303246 303246 303246 303246 303246
          303246 303246 303245 303245 303244 303244 303243 303242 303241 303239 303238 303237
          303246 303246 303246 303246 303246 303246 303246 303246 303245 303245 303244 303244
          303243 303242 303241 303239 303237 303235 303234 303246 303243 303240 303238 303237
          303235 303234 303232 303231 303229 303227 303225 303223 303221 303218 303215 303212
          303208 303206 302226 302227 302228 302230 302231 302232 302233 302234 302235 302236
          302237 302238 302240 302241 302242 302243 302244 302245 302245 302226 302226 302226
          302226 302226 302226 302226 302226 302226 302226 302226 302226 302226 302226 302226
          302226 302226 302226 302226 302226 302226 302226 302226 302226 302226 302226 302226
          302226 302226 302226 302226 302226 302226 302226 302226 302226 302226 302226 302226
          302226 302226 302226 302226 302226 302226 302226 302226 302226 302226 302226 302226
          302226 302226 302226 302226 302226 302226 302226 302226 302226 302226 302226 302226
          302226 302226 302226 302226 302226 302226 302226 302226 302226 302226 302226 302226
          302226
        </DataArray>
        <DataArray type="Float32" Name="v" NumberOfComponents="3" format="ascii">
          0 0 0 0 0 0 0.104938 0 0 0.104787 -1.31895e-05 0
          0 0 0 0.104599 3.94263e-06 0 0 0 0 0.104464 1.05245e-05 0
          0 0 0 0.104353 8.79121e-06 0 0 0 0 0.104284 7.63525e-06 0
          0 0 0 0.104225 4.03619e-06 0 0 0 0 0.104192 2.35978e-06 0
          0 0 0 0.104161 1.9569e-07 0 0 0 0 0.104146 -8.32856e-07 0
          0 0 0 0.10413 -1.81714e-06 0 0 0 0 0.104124 -2.51263e-06 0
          0 0 0 0.104115 -3.07209e-06 0 0 0 0 0.104111 -3.56468e-06 0
          0 0 0 0.104106 -3.93398e-06 0 0 0 0 0.104103 -4.4281e-06 0
          0 0 0 0.104097 -4.87908e-06 0 0 0 0 0.104092 -5.57671e-06 0
          0 0 0 0.104084 -6.11739e-06 0 0.197531 0 0 0.197377 0.000350972 0
          0.197176 0.000286814 0 0.197026 0.000216364 0 0.196908 0.000157466 0 0.196838 0.000110078 0
          0.196779 7.95206e-05 0 0.196748 5.36566e-05 0 0.196718 3.94482e-05 0 0.196705 2.59061e-05 0
          0.196689 1.97261e-05 0 0.196683 1.28313e-05 0 0.196675 1.06425e-05 0 0.196672 7.45625e-06 0
          0.196667 7.524e-06 0 0.196664 7.00701e-06 0 0.196659 9.19443e-06 0 0.196654 1.16004e-05 0
          0.196646 1.56699e-05 0 0.277778 0 0 0.277547 0.000422528 0 0.277281 0.000356851 0
          0.277164 0.000265625 0 0.27707 0.000187507 0 0.277026 0.000128032 0 0.276985 9.01516e-05 0
          0.276966 5.88717e-05 0 0.276946 4.18613e-05 0 0.276938 2.58499e-05 0 0.276928 1.87627e-05 0
          0.276924 1.04457e-05 0 0.27692 7.68562e-06 0 0.276918 3.79947e-06 0 0.276915 3.64411e-06 0
          0.276914 2.68326e-06 0 0.276911 4.7081e-06 0 0.276909 6.46071e-06 0 0.276904 9.97713e-06 0
          0.345679 0 0 0.345421 0.000934007 0 0.345142 0.000659988 0 0.34505 0.000414658 0
          0.344974 0.00029728 0 0.344948 0.000192308 0 0.344919 0.000141396 0 0.344909 9.12177e-05 0
          0.344896 6.83744e-05 0 0.344892 4.3387e-05 0 0.344887 3.33375e-05 0 0.344885 2.0991e-05 0
          0.344883 1.7504e-05 0 0.344882 1.17952e-05 0 0.34488 1.19222e-05 0 0.34488 1.09332e-05 0
          0.344878 1.47058e-05 0 0.344877 1.91518e-05 0 0.344873 2.6403e-05 0 0.401235 0 0
          0.401409 0.000937928 0 0.401591 0.000649458 0 0.401637 0.000393607 0 0.401676 0.000279006 0
          0.401686 0.000175575 0 0.401698 0.000128549 0 0.401701 8.08434e-05 0 0.401706 6.03632e-05 0
          0.401706 3.71258e-05 0 0.401708 2.82365e-05 0 0.401707 1.68857e-05 0 0.401707 1.38136e-05 0
          0.401705 8.5174e-06 0 0.401705 8.53295e-06 0 0.401703 7.40694e-06 0 0.401702 1.05069e-05 0
          0.401701 1.40373e-05 0 0.401702 2.00405e-05 0 0.444444 0 0 0.444647 0.000618659 0
          0.444876 0.000499356 0 0.444964 0.000360447 0 0.445034 0.000257532 0 0.445062 0.000175786 0
          0.44509 0.00012637 0 0.445101 8.38208e-05 0 0.445114 6.14842e-05 0 0.445118 3.9719e-05 0
          0.445124 3.03986e-05 0 0.445125 1.92777e-05 0 0.445128 1.59455e-05 0 0.445128 1.09895e-05 0
          0.445129 1.13142e-05 0 0.445129 1.05416e-05 0 0.445129 1.40318e-05 0 0.445129 1.71415e-05 0
          0.445131 2.26197e-05 0 0.475309 0 0 0.475455 0.000441712 0 0.475643 0.000347989 0
          0.475778 0.000248056 0 0.475885 0.000177692 0 0.475949 0.00012017 0 0.476003 8.64015e-05 0
          0.476031 5.67582e-05 0 0.476058 4.16586e-05 0 0.476071 2.66185e-05 0 0.476085 2.02497e-05 0
          0.476091 1.27507e-05 0 0.476098 1.0573e-05 0 0.476101 7.16242e-06 0 0.476106 7.30443e-06 0
          0.476108 6.69384e-06 0 0.476113 8.90326e-06 0 0.476117 1.11015e-05 0 0.476124 1.49602e-05 0