<?xml version="1.0"?>
<VTKFile type="UnstructuredGrid" version="0.1" byte_order="LittleEndian">
  <UnstructuredGrid>
    <Piece NumberOfCells="324" NumberOfPoints="361">
      <PointData Scalars="pg" Vectors="v">
        <DataArray type="Float32" Name="pg" NumberOfComponents="1" format="ascii">
          100024 100024 100023 100023 100024 100023 100024 100023 100024 100023 100024 100023
          100024 100023 100024 100023 100024 100023 100024 100023 100024 100023 100024 100023
          100024 100023 100024 100023 100024 100023 100024 100023 100024 100023 100024 100023
          100024 100023 100022 100022 100022 100022 100022 100022 100022 100022 100022 100022
          100022 100022 100022 100022 100022 100022 100022 100022 100022 100022 100022 100022
          100022 100022 100022 100022 100022 100022 100022 100022 100022 100022 100022 100022
          100022 100022 100022 100022 100021 100021 100021 100021 100021 100021 100021 100021
          100021 100021 100021 100021 100021 100021 100021 100021 100021 100021 100021 100020
          100020 100020 100020 100020 100020 100020 100020 100020 100020 100020 100020 100020
          100020 100020 100020 100020 100020 100020 100020 100020 100020 100020 100020 100020
          100020 100020 100020 100020 100020 100020 100020 100020 100020 100020 100020 100020
          100020 100019 100019 100019 100019 100019 100019 100019 100019 100019 100019 100019
          100019 100019 100019 100019 100019 100019 100019 100019 100018 100018 100018 100018
          100018 100018 100018 100018 100018 100018 100018 100018 100018 100018 100018 100018
          100018 100018 100018 100018 100018 100018 100018 100018 100018 100018 100018 100018
          100018 100018 100018 100018 100018 100018 100018 100018 100018 100018 100017 100017
          100017 100017 100017 100017 100017 100017 100017 100017 100017 100017 100017 100017
          100017 100017 100017 100017 100017 100016 100016 100016 100016 100016 100016 100016
          100016 100016 100016 100016 100016 100016 100016 100016 100016 100016 100016 100016
          100016 100016 100016 100016 100016 100016 100016 100016 100016 100016 100016 100016
          100016 100016 100016 100016 100016 100016 100016 100015 100015 100015 100015 100015
          100015 100015 100015 100015 100015 100015 100015 100015 100015 100015 100015 100015
          100015 100015 100014 100014 100014 100014 100014 100014 100014 100014 100014 100014
          100014 100014 100014 100014 100014 100014 100014 100014 100014 100014 100014 100014
          100014 100014 100014 100014 100014 100014 100014 100014 100014 100014 100014 100014
          100014 100014 100014 100014 100013 100013 100013 100013 100013 100013 100013 100013
          100013 100013 100013 100013 100013 100013 100013 100013 100013 100013 100013 100012
          100012 100012 100012 100012 100012 100012 100012 100012 100012 100012 100012 100012
          100012 100012 100012 100012 100012 100012 100012 100012 100012 100012 100012 100012
          100012 100012 100012 100012 100012 100012 100012 100012 100012 100012 100012 100012
          100012
        </DataArray>
        <DataArray type="Float32" Name="delP" NumberOfComponents="1" format="ascii">
          23.7322 23.7322 23.0617 23.0617 23.7322 23.0617 23.7322 23.0617 23.7322 23.0617 23.7322 23.0617
          23.7322 23.0617 23.7322 23.0617 23.7322 23.0617 23.7322 23.0617 23.7322 23.0617 23.7322 23.0617
          23.7322 23.0617 23.7322 23.0617 23.7322 23.0617 23.7322 23.0617 23.7322 23.0617 23.7322 23.0617
          23.7322 23.0617 22.3911 22.3911 22.3911 22.3911 22.3912 22.3911 22.3912 22.3911 22.3912 22.3911
          22.3912 22.3911 22.3912 22.3911 22.3912 22.3911 22.3911 22.3911 22.3911 21.7206 21.7206 21.7206
          21.7206 21.7206 21.7206 21.7206 21.7206 21.7206 21.7206 21.7206 21.7206 21.7206 21.7206 21.7206
          21.7206 21.7206 21.7206 21.7206 21.0501 21.0501 21.0501 21.0501 21.0501 21.0501 21.0501 21.0501
          21.0501 21.0501 21.0501 21.0501 21.0501 21.0501 21.0501 21.0501 21.0501 21.0501 21.0501 20.3796
          20.3796 20.3796 20.3796 20.3796 20.3796 20.3796 20.3796 20.3796 20.3796 20.3796 20.3796 20.3796
          20.3796 20.3796 20.3796 20.3796 20.3796 20.3796 19.7091 19.7091 19.7091 19.7091 19.7091 19.7091
          19.7091 19.7091 19.7091 19.7091 19.7091 19.7091 19.7091 19.7091 19.7091 19.7091 19.7091 19.7091
          19.7091 19.0386 19.0386 19.0386 19.0386 19.0386 19.0386 19.0386 19.0385 19.0386 19.0385 19.0386
          19.0385 19.0386 19.0386 19.0386 19.0386 19.0386 19.0386 19.0386 18.3681 18.3681 18.3681 18.3681
          18.3681 18.3681 18.3681 18.368 18.3681 18.368 18.3681 18.368 18.3681 18.3681 18.3681 18.3681
          18.3681 18.3681 18.3681 17.6976 17.6976 17.6976 17.6976 17.6976 17.6976 17.6976 17.6975 17.6976
          17.6975 17.6976 17.6975 17.6976 17.6976 17.6976 17.6976 17.6976 17.6976 17.6976 17.0272 17.0272
          17.0272 17.0271 17.0272 17.0271 17.0271 17.0271 17.0271 17.027 17.0271 17.0271 17.0271 17.0271
          17.0272 17.0271 17.0272 17.0272 17.0272 16.3567 16.3567 16.3567 16.3567 16.3567 16.3566 16.3566
          16.3566 16.3566 16.3566 16.3566 16.3566 16.3566 16.3566 16.3567 16.3567 16.3567 16.3567 16.3567
          15.6863 15.6863 15.6863 15.6862 15.6863 15.6861 15.6862 15.6861 15.6862 15.6861 15.6862 15.6861
          15.6862 15.6861 15.6863 15.6862 15.6863 15.6863 15.6863 15.0159 15.0159 15.0159 15.0158 15.0158
          15.0157 15.0158 15.0157 15.0157 15.0157 15.0157 15.0157 15.0158 15.0157 15.0159 15.0158 15.0159
          15.0159 15.0159 14.3455 14.3455 14.3455 14.3454 14.3455 14.3453 14.3454 14.3453 14.3453 14.3453
          14.3453 14.3453 14.3454 14.3453 14.3455 14.3454 14.3455 14.3455 14.3455 13.6751 13.6751 13.6751
          13.6751 13.6751 13.6749 13.675 13.6749 13.675 13.6749 13.675 13.6749 13.675 13.6749 13.6751
          13.6751 13.6751 13.6751 13.6751 13.0048 13.0048 13.0048 13.0047 13.0047 13.0046 13.0046 13.0046
          13.0046 13.0046 13.0046 13.0046 13.0046 13.0046 13.0047 13.0047 13.0048 13.0048 13.0048 12.3344
          12.3344 12.3344 12.3344 12.3344 12.3343 12.3343 12.3343 12.3343 12.3343 12.3343 12.3343 12.3343
          12.3343 12.3344 12.3344 12.3344 12.3344 12.3344 11.6641 11.6641 11.6641 11.6641 11.6641 11.6641
          11.6641 11.6641 11.6641 11.6641 11.6641 11.6641 11.6641 11.6641 11.6641 11.6641 11.6641 11.6641
          11.6641
        </DataArray>
        <DataArray type="Float32" Name="X^H2O" NumberOfComponents="1" format="ascii">
          0.0001 0.0001 0.0001 9.99999e-05 0.0001 0.0001 0.0001 9.99999e-05 0.0001 0.0001 0.0001 9.99999e-05
          0.0001 0.0001 0.0001 9.99999e-05 0.0001 0.0001 0.0001 9.99999e-05 0.0001 0.0001 0.0001 9.99999e-05
          0.0001 0.0001 0.0001 9.99999e-05 0.0001 0.0001 0.0001 9.99999e-05 0.0001 0.0001 0.0001 9.99999e-05
          0.0001 0.0001 0.0001 9.99999e-05 0.0001 9.99999e-05 0.0001 9.99999e-05 0.0001 9.99999e-05 0.0001 9.99999e-05
          0.0001 9.99999e-05 0.0001 9.99999e-05 0.0001 9.99999e-05 0.0001 9.99999e-05 0.0001 0.0001 9.99998e-05 0.000100001
          9.99997e-05 0.0001 9.99998e-05 0.0001 9.99998e-05 0.0001 9.99998e-05 0.0001 9.99998e-05 0.0001 9.99998e-05 0.0001
          9.99997e-05 0.000100001 9.99998e-05 0.0001 0.0001 9.99997e-05 0.000100001 9.99996e-05 0.000100001 9.99996e-05 0.0001 9.99997e-05
          0.0001 9.99997e-05 0.0001 9.99997e-05 0.0001 9.99996e-05 0.000100001 9.99996e-05 0.000100001 9.99997e-05 0.0001 0.0001
          9.99995e-05 0.000100001 9.99994e-05 0.000100001 9.99982e-05 9.99999e-05 9.99989e-05 0.0001 9.99991e-05 0.0001 9.99989e-05 9.99999e-05
          9.99983e-05 0.000100001 9.99994e-05 0.000100001 9.99995e-05 0.0001 0.0001 9.99992e-05 0.000100002 9.99991e-05 0.000100001 9.99924e-05
          9.99965e-05 9.9996e-05 9.99982e-05 9.99967e-05 9.99982e-05 9.9996e-05 9.99965e-05 9.99925e-05 0.000100001 9.99991e-05 0.000100002 9.99992e-05
          0.0001 0.0001 9.99987e-05 0.000100002 9.99986e-05 0.000100001 9.99768e-05 9.99863e-05 9.99879e-05 9.9992e-05 9.99902e-05 9.9992e-05
          9.99878e-05 9.99862e-05 9.99771e-05 0.000100002 9.99986e-05 0.000100002 9.99987e-05 0.0001 0.0001 9.99983e-05 0.000100003 9.99981e-05
          0.000100001 9.99454e-05 9.99643e-05 9.99706e-05 9.99782e-05 9.99764e-05 9.99782e-05 9.99706e-05 9.99641e-05 9.9946e-05 0.000100002 9.99981e-05
          0.000100003 9.99983e-05 0.0001 0.0001 9.99978e-05 0.000100004 9.99973e-05 0.000100001 9.98917e-05 9.99248e-05 9.99396e-05 9.99526e-05
          9.99511e-05 9.99525e-05 9.99394e-05 9.99246e-05 9.98927e-05 0.000100003 9.99973e-05 0.000100004 9.99978e-05 0.0001 0.0001 9.99975e-05
          0.000100005 9.99965e-05 0.000100001 9.98099e-05 9.98626e-05 9.989e-05 9.99109e-05 9.99103e-05 9.99108e-05 9.98897e-05 9.98622e-05 9.98116e-05
          0.000100003 9.99965e-05 0.000100005 9.99975e-05 0.0001 0.0001 9.99971e-05 0.000100005 9.99956e-05 9.99994e-05 9.96954e-05 9.97727e-05
          9.98175e-05 9.98492e-05 9.98499e-05 9.9849e-05 9.98172e-05 9.97723e-05 9.96979e-05 0.000100003 9.99956e-05 0.000100005 9.99971e-05 0.0001
          0.0001 9.9997e-05 0.000100006 9.99946e-05 9.99978e-05 9.95451e-05 9.9652e-05 9.97188e-05 9.97639e-05 9.97668e-05 9.97637e-05 9.97183e-05
          9.96515e-05 9.95485e-05 0.000100003 9.99947e-05 0.000100006 9.9997e-05 0.0001 0.0001 9.9997e-05 0.000100006 9.99936e-05 9.99953e-05
          9.9356e-05 9.94984e-05 9.95913e-05 9.96524e-05 9.96581e-05 9.96522e-05 9.95907e-05 9.94977e-05 9.93604e-05 0.000100002 9.99937e-05 0.000100006
          9.9997e-05 0.0001 0.0001 9.99973e-05 0.000100007 9.99928e-05 9.99918e-05 9.91273e-05 9.93119e-05 9.94343e-05 9.95136e-05 9.95228e-05
          9.95133e-05 9.94336e-05 9.93111e-05 9.91328e-05 9.99998e-05 9.99929e-05 0.000100007 9.99973e-05 0.0001 0.0001 9.99976e-05 0.000100007
          9.9992e-05 9.99865e-05 9.8863e-05 9.9095e-05 9.92492e-05 9.9348e-05 9.93612e-05 9.93476e-05 9.92484e-05 9.90941e-05 9.88697e-05 9.99959e-05
          9.99922e-05 0.000100007 9.99976e-05 0.0001 0.0001 9.99983e-05 0.000100007 9.99916e-05 9.99789e-05 9.85717e-05 9.88528e-05 9.90395e-05
          9.91583e-05 9.91761e-05 9.91579e-05 9.90386e-05 9.88518e-05 9.85795e-05 9.99895e-05 9.99919e-05 0.000100007 9.99983e-05 0.0001 0.0001
          9.99988e-05 0.000100006 9.99915e-05 9.99691e-05 9.82658e-05 9.85927e-05 9.88109e-05 9.89489e-05 9.89715e-05 9.89484e-05 9.881e-05 9.85917e-05
          9.82742e-05 9.99804e-05 9.99918e-05 0.000100006 9.99988e-05 0.0001 0.0001 0.00010001 0.000100013 9.99965e-05 9.99675e-05 9.81182e-05
          9.84638e-05 9.8695e-05 9.88411e-05 9.88657e-05 9.88406e-05 9.86941e-05 9.84628e-05 9.81269e-05 9.99789e-05 9.99969e-05 0.000100013 0.00010001
          0.0001
        </DataArray>
        <DataArray type="Float32" Name="temperature" NumberOfComponents="1" format="ascii">
          283.15 283.15 283.15 283.15 283.15 283.15 283.15 283.15 283.15 283.15 283.15 283.15
          283.15 283.15 283.15 283.15 283.15 283.15 283.15 283.15 283.15 283.15 283.15 283.15
          283.15 283.15 283.15 283.15 283.15 283.15 283.15 283.15 283.15 283.15 283.15 283.15
          283.15 283.15 283.15 283.151 283.15 283.15 283.15 283.15 283.15 283.15 283.15 283.15
          283.15 283.15 283.15 283.15 283.15 283.15 283.15 283.151 283.15 283.15 283.153 283.151
          283.15 283.15 283.15 283.15 283.15 283.15 283.15 283.15 283.15 283.15 283.15 283.15
          283.15 283.151 283.153 283.15 283.15 283.155 283.151 283.15 283.15 283.15 283.15 283.15
          283.15 283.15 283.15 283.15 283.15 283.15 283.15 283.15 283.151 283.155 283.15 283.15
          283.157 283.152 283.151 283.15 283.15 283.15 283.15 283.15 283.15 283.15 283.15 283.15
          283.15 283.15 283.151 283.152 283.157 283.15 283.15 283.159 283.153 283.151 283.151 283.151
          283.151 283.15 283.151 283.15 283.151 283.15 283.151 283.151 283.151 283.151 283.153 283.159
          283.15 283.15 283.16 283.155 283.152 283.151 283.153 283.152 283.151 283.151 283.151 283.151
          283.151 283.152 283.153 283.151 283.152 283.155 283.16 283.15 283.15 283.161 283.156 283.153
          283.152 283.156 283.155 283.153 283.153 283.152 283.153 283.153 283.155 283.156 283.152 283.153
          283.156 283.161 283.15 283.15 283.161 283.157 283.153 283.153 283.162 283.159 283.156 283.156
          283.155 283.156 283.156 283.159 283.162 283.152 283.153 283.157 283.161 283.15 283.15 283.161
          283.158 283.154 283.153 283.17 283.166 283.162 283.16 283.159 283.16 283.162 283.166 283.17
          283.153 283.154 283.158 283.161 283.15 283.15 283.161 283.159 283.155 283.154 283.182 283.175
          283.169 283.167 283.166 283.167 283.169 283.175 283.182 283.154 283.155 283.159 283.161 283.15
          283.15 283.16 283.16 283.155 283.155 283.197 283.188 283.179 283.176 283.174 283.176 283.179
          283.188 283.197 283.155 283.155 283.16 283.16 283.15 283.15 283.16 283.16 283.156 283.156
          283.217 283.204 283.192 283.188 283.185 283.188 283.192 283.204 283.216 283.156 283.156 283.16
          283.16 283.15 283.15 283.159 283.16 283.156 283.158 283.24 283.223 283.208 283.202 283.199
          283.202 283.208 283.223 283.24 283.157 283.156 283.16 283.159 283.15 283.15 283.158 283.16
          283.157 283.159 283.267 283.246 283.227 283.219 283.215 283.219 283.227 283.246 283.266 283.158
          283.157 283.16 283.158 283.15 283.15 283.157 283.16 283.157 283.16 283.296 283.27 283.248
          283.239 283.234 283.239 283.248 283.271 283.296 283.159 283.157 283.16 283.157 283.15 283.15
          283.156 283.159 283.157 283.161 283.327 283.297 283.271 283.26 283.255 283.26 283.272 283.297
          283.327 283.161 283.157 283.159 283.156 283.15 283.15 283.157 283.16 283.158 283.163 283.344
          283.311 283.284 283.272 283.266 283.272 283.284 283.311 283.343 283.162 283.158 283.16 283.157
          283.15
        </DataArray>
        <DataArray type="Float32" Name="rhoG" NumberOfComponents="1" format="ascii">
          1.23034 1.23034 1.23033 1.23033 1.23034 1.23033 1.23034 1.23033 1.23034 1.23033 1.23034 1.23033
          1.23034 1.23033 1.23034 1.23033 1.23034 1.23033 1.23034 1.23033 1.23034 1.23033 1.23034 1.23033
          1.23034 1.23033 1.23034 1.23033 1.23034 1.23033 1.23034 1.23033 1.23034 1.23033 1.23034 1.23033
          1.23034 1.23033 1.23032 1.23031 1.23032 1.23032 1.23032 1.23032 1.23032 1.23032 1.23032 1.23032
          1.23032 1.23032 1.23032 1.23032 1.23032 1.23032 1.23032 1.23031 1.23032 1.23031 1.2303 1.23031
          1.23031 1.23031 1.23031 1.23031 1.23031 1.23031 1.23031 1.23031 1.23031 1.23031 1.23031 1.23031
          1.23031 1.23031 1.2303 1.23031 1.2303 1.23028 1.2303 1.2303 1.2303 1.2303 1.2303 1.2303
          1.2303 1.2303 1.2303 1.2303 1.2303 1.2303 1.2303 1.2303 1.2303 1.23028 1.2303 1.2303
          1.23026 1.23029 1.23029 1.23029 1.23029 1.23029 1.2303 1.23029 1.2303 1.23029 1.2303 1.23029
          1.23029 1.23029 1.23029 1.23029 1.23026 1.2303 1.23029 1.23025 1.23027 1.23028 1.23028 1.23028
          1.23028 1.23029 1.23028 1.23029 1.23028 1.23029 1.23028 1.23028 1.23028 1.23028 1.23027 1.23025
          1.23029 1.23028 1.23023 1.23026 1.23027 1.23027 1.23027 1.23027 1.23027 1.23027 1.23027 1.23027
          1.23027 1.23027 1.23027 1.23027 1.23027 1.23026 1.23024 1.23028 1.23027 1.23022 1.23024 1.23026
          1.23026 1.23024 1.23025 1.23026 1.23026 1.23026 1.23026 1.23026 1.23025 1.23024 1.23026 1.23026
          1.23024 1.23022 1.23027 1.23026 1.23021 1.23023 1.23025 1.23025 1.23021 1.23022 1.23023 1.23024
          1.23024 1.23024 1.23023 1.23022 1.23021 1.23025 1.23025 1.23023 1.23021 1.23026 1.23025 1.23021
          1.23022 1.23024 1.23024 1.23017 1.23019 1.2302 1.23021 1.23021 1.23021 1.2302 1.23019 1.23017
          1.23024 1.23024 1.23022 1.23021 1.23025 1.23025 1.2302 1.23021 1.23023 1.23023 1.23011 1.23014
          1.23016 1.23017 1.23018 1.23017 1.23016 1.23014 1.23011 1.23023 1.23023 1.23021 1.2302 1.23025
          1.23024 1.23019 1.2302 1.23021 1.23021 1.23003 1.23007 1.23011 1.23012 1.23013 1.23012 1.23011
          1.23007 1.23003 1.23022 1.23021 1.2302 1.23019 1.23024 1.23023 1.23019 1.23019 1.2302 1.2302
          1.22994 1.23 1.23005 1.23007 1.23008 1.23007 1.23005 1.23 1.22994 1.2302 1.2302 1.23019
          1.23019 1.23023 1.23022 1.23018 1.23018 1.23019 1.23019 1.22983 1.2299 1.22997 1.23 1.23001
          1.23 1.22997 1.2299 1.22983 1.23019 1.23019 1.23018 1.23018 1.23022 1.23021 1.23018 1.23017
          1.23018 1.23018 1.22971 1.2298 1.22988 1.22991 1.22993 1.22991 1.22988 1.2298 1.22971 1.23018
          1.23018 1.23017 1.23018 1.23021 1.2302 1.23017 1.23016 1.23017 1.23016 1.22957 1.22968 1.22978
          1.22982 1.22984 1.22982 1.22978 1.22968 1.22957 1.23016 1.23017 1.23016 1.23017 1.2302 1.2302
          1.23017 1.23016 1.23016 1.23015 1.22943 1.22956 1.22967 1.22972 1.22974 1.22972 1.22967 1.22956
          1.22943 1.23015 1.23017 1.23016 1.23017 1.2302 1.23019 1.23016 1.23015 1.23015 1.23013 1.22935
          1.22949 1.22961 1.22966 1.22969 1.22966 1.22961 1.22949 1.22935 1.23014 1.23015 1.23015 1.23016
          1.23019
        </DataArray>
        <DataArray type="Float32" Name="mu" NumberOfComponents="1" format="ascii">
          1.75168e-05 1.75168e-05 1.75168e-05 1.75169e-05 1.75168e-05 1.75168e-05 1.75168e-05 1.75168e-05 1.75168e-05 1.75168e-05 1.75168e-05 1.75168e-05
          1.75168e-05 1.75168e-05 1.75168e-05 1.75168e-05 1.75168e-05 1.75168e-05 1.75168e-05 1.75168e-05 1.75168e-05 1.75168e-05 1.75168e-05 1.75168e-05
          1.75168e-05 1.75168e-05 1.75168e-05 1.75168e-05 1.75168e-05 1.75168e-05 1.75168e-05 1.75168e-05 1.75168e-05 1.75168e-05 1.75168e-05 1.75169e-05
          1.75168e-05 1.75168e-05 1.75168e-05 1.75169e-05 1.75169e-05 1.75168e-05 1.75168e-05 1.75168e-05 1.75168e-05 1.75168e-05 1.75168e-05 1.75168e-05
          1.75168e-05 1.75168e-05 1.75168e-05 1.75168e-05 1.75168e-05 1.75168e-05 1.75169e-05 1.75169e-05 1.75168e-05 1.75168e-05 1.7517e-05 1.75169e-05
          1.75168e-05 1.75168e-05 1.75168e-05 1.75168e-05 1.75168e-05 1.75168e-05 1.75168e-05 1.75168e-05 1.75168e-05 1.75168e-05 1.75168e-05 1.75168e-05
          1.75168e-05 1.75169e-05 1.7517e-05 1.75168e-05 1.75168e-05 1.75171e-05 1.75169e-05 1.75169e-05 1.75169e-05 1.75168e-05 1.75168e-05 1.75168e-05
          1.75168e-05 1.75168e-05 1.75168e-05 1.75168e-05 1.75168e-05 1.75168e-05 1.75169e-05 1.75169e-05 1.75169e-05 1.75171e-05 1.75168e-05 1.75168e-05
          1.75172e-05 1.7517e-05 1.75169e-05 1.75169e-05 1.75169e-05 1.75169e-05 1.75168e-05 1.75168e-05 1.75168e-05 1.75168e-05 1.75168e-05 1.75169e-05
          1.75169e-05 1.75169e-05 1.75169e-05 1.7517e-05 1.75172e-05 1.75168e-05 1.75168e-05 1.75173e-05 1.7517e-05 1.75169e-05 1.75169e-05 1.75169e-05
          1.75169e-05 1.75169e-05 1.75169e-05 1.75169e-05 1.75169e-05 1.75169e-05 1.75169e-05 1.75169e-05 1.75169e-05 1.75169e-05 1.7517e-05 1.75173e-05
          1.75168e-05 1.75168e-05 1.75173e-05 1.75171e-05 1.75169e-05 1.75169e-05 1.7517e-05 1.75169e-05 1.75169e-05 1.75169e-05 1.75169e-05 1.75169e-05
          1.75169e-05 1.75169e-05 1.7517e-05 1.75169e-05 1.75169e-05 1.75171e-05 1.75173e-05 1.75168e-05 1.75168e-05 1.75174e-05 1.75171e-05 1.7517e-05
          1.75169e-05 1.75171e-05 1.75171e-05 1.7517e-05 1.7517e-05 1.7517e-05 1.7517e-05 1.7517e-05 1.75171e-05 1.75171e-05 1.75169e-05 1.7517e-05
          1.75171e-05 1.75174e-05 1.75168e-05 1.75168e-05 1.75174e-05 1.75172e-05 1.7517e-05 1.7517e-05 1.75174e-05 1.75173e-05 1.75171e-05 1.75171e-05
          1.75171e-05 1.75171e-05 1.75172e-05 1.75173e-05 1.75174e-05 1.7517e-05 1.7517e-05 1.75172e-05 1.75174e-05 1.75168e-05 1.75168e-05 1.75174e-05
          1.75172e-05 1.7517e-05 1.7517e-05 1.75178e-05 1.75176e-05 1.75174e-05 1.75173e-05 1.75173e-05 1.75173e-05 1.75174e-05 1.75176e-05 1.75178e-05
          1.7517e-05 1.7517e-05 1.75172e-05 1.75174e-05 1.75168e-05 1.75168e-05 1.75174e-05 1.75173e-05 1.75171e-05 1.7517e-05 1.75184e-05 1.75181e-05
          1.75178e-05 1.75177e-05 1.75176e-05 1.75177e-05 1.75178e-05 1.75181e-05 1.75184e-05 1.7517e-05 1.75171e-05 1.75173e-05 1.75174e-05 1.75168e-05
          1.75168e-05 1.75173e-05 1.75173e-05 1.75171e-05 1.75171e-05 1.75191e-05 1.75187e-05 1.75183e-05 1.75181e-05 1.7518e-05 1.75181e-05 1.75183e-05
          1.75187e-05 1.75191e-05 1.75171e-05 1.75171e-05 1.75173e-05 1.75173e-05 1.75168e-05 1.75168e-05 1.75173e-05 1.75173e-05 1.75171e-05 1.75171e-05
          1.75201e-05 1.75195e-05 1.75189e-05 1.75187e-05 1.75186e-05 1.75187e-05 1.75189e-05 1.75195e-05 1.75201e-05 1.75171e-05 1.75171e-05 1.75173e-05
          1.75173e-05 1.75168e-05 1.75168e-05 1.75173e-05 1.75173e-05 1.75172e-05 1.75172e-05 1.75212e-05 1.75204e-05 1.75197e-05 1.75194e-05 1.75192e-05
          1.75194e-05 1.75197e-05 1.75204e-05 1.75212e-05 1.75172e-05 1.75172e-05 1.75173e-05 1.75173e-05 1.75168e-05 1.75168e-05 1.75172e-05 1.75173e-05
          1.75172e-05 1.75173e-05 1.75225e-05 1.75215e-05 1.75206e-05 1.75202e-05 1.752e-05 1.75202e-05 1.75206e-05 1.75215e-05 1.75225e-05 1.75172e-05
          1.75172e-05 1.75173e-05 1.75172e-05 1.75168e-05 1.75168e-05 1.75172e-05 1.75173e-05 1.75172e-05 1.75173e-05 1.7524e-05 1.75227e-05 1.75216e-05
          1.75212e-05 1.75209e-05 1.75212e-05 1.75216e-05 1.75227e-05 1.75239e-05 1.75173e-05 1.75172e-05 1.75173e-05 1.75172e-05 1.75168e-05 1.75168e-05
          1.75171e-05 1.75173e-05 1.75172e-05 1.75174e-05 1.75255e-05 1.7524e-05 1.75228e-05 1.75222e-05 1.7522e-05 1.75222e-05 1.75228e-05 1.7524e-05
          1.75254e-05 1.75173e-05 1.75172e-05 1.75173e-05 1.75171e-05 1.75168e-05 1.75168e-05 1.75172e-05 1.75173e-05 1.75172e-05 1.75175e-05 1.75263e-05
          1.75247e-05 1.75234e-05 1.75228e-05 1.75225e-05 1.75228e-05 1.75234e-05 1.75247e-05 1.75262e-05 1.75174e-05 1.75172e-05 1.75173e-05 1.75172e-05
          1.75168e-05
        </DataArray>
        <DataArray type="Float32" Name="h" NumberOfComponents="1" format="ascii">
          10292.9 10292.9 10292.9 10293.3 10292.9 10293 10292.9 10292.9 10292.9 10292.9 10292.9 10292.9
          10292.9 10292.9 10292.9 10292.9 10292.9 10292.9 10292.9 10292.9 10292.9 10292.9 10292.9 10292.9
          10292.9 10292.9 10292.9 10292.9 10292.9 10292.9 10292.9 10292.9 10292.9 10293 10292.9 10293.3
          10292.9 10292.9 10292.9 10294.4 10293.2 10293 10293 10292.9 10293 10292.9 10293 10292.9
          10293 10292.9 10293 10292.9 10293 10293 10293.2 10294.4 10292.9 10292.9 10296.1 10293.6
          10293.1 10293.1 10293 10293 10292.9 10293 10292.9 10293 10292.9 10293 10293 10293.1
          10293.1 10293.6 10296.1 10292.9 10292.9 10298.1 10294.3 10293.3 10293.2 10293 10293.1 10292.9
          10293 10292.9 10293 10292.9 10293.1 10293 10293.2 10293.3 10294.4 10298.1 10292.9 10292.9
          10300.1 10295.3 10293.7 10293.4 10293.2 10293.2 10293 10293.1 10293 10293.1 10293 10293.2
          10293.2 10293.4 10293.7 10295.3 10300.1 10292.9 10292.9 10301.8 10296.4 10294.2 10293.7 10293.9
          10293.7 10293.4 10293.5 10293.3 10293.5 10293.4 10293.7 10293.9 10293.7 10294.2 10296.4 10301.8
          10292.9 10292.9 10303.1 10297.7 10294.8 10294.2 10295.6 10295 10294.2 10294.3 10293.9 10294.3
          10294.2 10295 10295.6 10294.1 10294.8 10297.7 10303.1 10292.9 10292.9 10303.9 10298.9 10295.5
          10294.8 10298.9 10297.5 10296 10295.9 10295.4 10295.9 10296 10297.5 10298.9 10294.7 10295.5
          10298.9 10303.9 10292.9 10292.9 10304.2 10300.1 10296.2 10295.5 10304.5 10301.7 10299.2 10298.7
          10298 10298.7 10299.2 10301.8 10304.4 10295.3 10296.2 10300.1 10304.2 10292.9 10292.9 10304.2
          10301.1 10297 10296.3 10312.8 10308.3 10304.3 10303.1 10302.1 10303.2 10304.3 10308.4 10312.7
          10296.1 10297 10301.1 10304.2 10292.9 10292.9 10303.8 10302 10297.7 10297.2 10324.4 10317.7
          10311.6 10309.6 10308.2 10309.7 10311.6 10317.7 10324.2 10296.9 10297.7 10302 10303.8 10292.9
          10292.9 10303.3 10302.6 10298.4 10298.3 10339.5 10330.2 10321.5 10318.5 10316.5 10318.5 10321.5
          10330.2 10339.2 10297.8 10298.4 10302.6 10303.3 10292.9 10292.9 10302.5 10303 10298.9 10299.3
          10358.4 10345.9 10334.3 10330 10327.4 10330 10334.3 10345.9 10358.1 10298.8 10298.9 10303
          10302.5 10292.9 10292.9 10301.7 10303.2 10299.4 10300.5 10381.3 10364.9 10350 10344.2 10341
          10344.2 10350 10364.9 10380.8 10299.8 10299.4 10303.2 10301.7 10292.9 10292.9 10300.8 10303.1
          10299.8 10301.7 10407.6 10386.8 10368.5 10361 10357.1 10361 10368.5 10386.9 10407 10300.9
          10299.8 10303.1 10300.8 10292.9 10292.9 10299.9 10302.9 10300.1 10303 10436.6 10411.2 10389.4
          10380.2 10375.6 10380.2 10389.5 10411.3 10435.9 10302.1 10300 10302.8 10299.9 10292.9 10292.9
          10299 10302.4 10300.3 10304.4 10467 10437.3 10412.2 10401.2 10396 10401.3 10412.3 10437.4
          10466.3 10303.5 10300.2 10302.4 10299 10292.9 10292.9 10299.6 10302.9 10300.8 10305.5 10483.2
          10451.2 10424.2 10412.3 10406.7 10412.3 10424.3 10451.3 10482.5 10304.5 10300.8 10302.9 10299.6
          10292.9
        </DataArray>
        <DataArray type="Float32" Name="v" NumberOfComponents="3" format="ascii">
          0 0 0 0 0.104938 0 0 0 0 -0.000234478 0.104726 0
          0 0.197531 0 0.00063835 0.197204 0 0 0.277778 0 0.000643341 0.277568 0
          0 0.345679 0 0.00128813 0.34552 0 0 0.401235 0 0.00105571 0.401368 0
          0 0.444444 0 0.00117807 0.444588 0 0 0.475309 0 0.000722258 0.475634 0
          0 0.493827 0 0.000450353 0.494084 0 0 0.5 0 -3.06157e-06 0.500371 0
          0 0.493827 0 -0.000456461 0.494084 0 0 0.475309 0 -0.000728018 0.475634 0
          0 0.444444 0 -0.00118334 0.444588 0 0 0.401235 0 -0.00105997 0.401368 0
          0 0.345679 0 -0.00129118 0.345519 0 0 0.277778 0 -0.000645192 0.277567 0
          0 0.197531 0 -0.00064021 0.197205 0 0 0.104938 0 0.000233132 0.104725 0
          0 0 0 0 0 0 0 0 0 -0.000218743 0.104299 0
          0.000872525 0.196675 0 0.000873853 0.277211 0 0.00169091 0.345249 0 0.00138605 0.401427 0
          0.00139591 0.444718 0 0.000855553 0.476047 0 0.000505354 0.494433 0 -3.21859e-06 0.500884 0
          -0.0005118 0.494433 0 -0.00086178 0.476047 0 -0.00140166 0.444717 0 -0.00139077 0.401425 0
          -0.00169373 0.345247 0 -0.000875323 0.27721 0 -0.000873853 0.196675 0 0.000218039 0.104297 0
          0 0 0 0 0 0 -0.000225837 0.103746 0 0.0011966 0.196025 0
          0.00121407 0.276766 0 0.00228232 0.344893 0 0.00188929 0.401799 0 0.0017586 0.44508 0
          0.00107273 0.476631 0 0.000594316 0.4949 0 -3.3471e-06 0.501476 0 -0.000601155 0.4949 0
          -0.00107953 0.47663 0 -0.0017655 0.445078 0 -0.00189531 0.401795 0 -0.00228425 0.344888 0
          -0.0012143 0.276765 0 -0.00119725 0.196025 0 0.000225911 0.103743 0 0 0 0
          0 0 0 -0.00027988 0.10293 0 0.00170698 0.195141 0 0.00170346 0.276087 0
          0.00360966 0.344325 0 0.00300094 0.402269 0 0.00213079 0.445559 0 0.00133084 0.477304 0
          0.000649004 0.495465 0 -3.48683e-06 0.502132 0 -0.000656359 0.495465 0 -0.00133838 0.477304 0
          -0.00213957 0.445558 0 -0.00300921 0.402261 0 -0.00361001 0.344315 0 -0.00170155 0.276086 0
          -0.00170674 0.195141 0 0.000281016 0.102927 0 0 0 0 0 0 0
          -0.000356022 0.101799 0 0.00225934 0.19402 0 0.0022357 0.274826 0 0.0052158 0.343109 0
          0.00442766 0.403824 0 0.00261088 0.446764 0 0.00167773 0.478126 0 0.000729223 0.496233 0
          -3.60971e-06 0.502791 0 -0.000736944 0.496234 0 -0.00168584 0.478127 0 -0.00262074 0.446764 0
          -0.00443706 0.40381 0 -0.00521522 0.343092 0 -0.00223252 0.274826 0 -0.00225839 0.194021 0
          0.000357895 0.101796 0 0 0 0 0 0 0 -0.000374574 0.10036 0
          0.00268069 0.192629 0 0.00269462 0.273143 0 0.00616186 0.34141 0 0.00532322 0.405657 0
          0.00318602 0.448278 0 0.00204685 0.479087 0 0.000881814 0.497185 0 -3.7159e-06 0.503548 0
          -0.000889745 0.497186 0 -0.00205532 0.479088 0 -0.00319616 0.44828 0 -0.0053327 0.405637 0
          -0.00616098 0.341385 0 -0.00269101 0.273144 0 -0.0026792 0.19263 0 0.000376903 0.100358 0
          0 0 0 0 0 0 -0.000371991 0.0987439 0 0.00296521 0.19105 0
          0.00301718 0.271319 0 0.00670258 0.339574 0 0.00581546 0.407804 0 0.00355707 0.450071 0
          0.00227739 0.480284 0 0.000985303 0.498315 0 -3.69477e-06 0.504452 0 -0.000993172 0.498316 0
          -0.00228586 0.480287 0 -0.00356711 0.450075 0 -0.00582468 0.407778 0 -0.00670151 0.339542 0
          -0.00301339 0.27132 0 -0.00296342 0.191052 0 0.000374509 0.098743 0 0 0 0
          0 0 0 -0.000347463 0.0969808 0 0.00311295 0.189331 0 0.003201 0.269372 0
          0.00694861 0.337628 0 0.00606446 0.409865 0 0.00379706 0.451867 0 0.00243016 0.481523 0
          0.0010658 0.499503 0 -3.57117e-06 0.505416 0 -0.00107338 0.499505 0 -0.00243835 0.481527 0
          -0.00380667 0.451871 0 -0.0060731 0.409832 0 -0.00694747 0.337588 0 -0.00319727 0.269374 0
          -0.00311104 0.189333 0 0.000349968 0.0969811 0 0 0 0 0 0 0
          -0.000318038 0.0951944 0 0.00313293 0.187581 0 0.00324765 0.267451 0 0.00695363 0.335713 0
          0.00609344 0.412033 0 0.00385265 0.453766 0 0.00246763 0.482889 0 0.00108891 0.500775 0
          -3.3017e-06 0.506476 0 -0.00109595 0.500777 0 -0.00247522 0.482894 0 -0.00386158 0.453771 0
          -0.00610134 0.411995 0 -0.00695244 0.335667 0 -0.00324409 0.267454 0 -0.00313104 0.187584 0
          0.00032037 0.0951959 0 0 0 0 0 0 0 -0.000286225 0.093406 0
          0.00304468 0.185837 0 0.00317758 0.265517 0 0.00678608 0.333791 0 0.00597212 0.414029 0
          0.00375565 0.45556 0 0.00241637 0.48417 0 0.00106329 0.502001 0 -2.9295e-06 0.507491 0
          -0.00106955 0.502004 0 -0.00242306 0.484176 0 -0.00376355 0.455567 0 -0.00597899 0.413985 0
          -0.00678498 0.333738 0 -0.00317446 0.26552 0 -0.003043 0.18584 0 0.000288208 0.0934086 0
          0 0 0 0 0 0 -0.00023724 0.0917245 0 0.00281285 0.184198 0