<?xml version="1.0"?>
<VTKFile type="UnstructuredGrid" version="0.1" byte_order="LittleEndian">
  <UnstructuredGrid>
    <Piece NumberOfCells="324" NumberOfPoints="361">
      <PointData Scalars="pg" Vectors="v">
        <DataArray type="Float32" Name="pg" NumberOfComponents="1" format="ascii">
          100006 100006 100005 100005 100006 100005 100006 100005 100006 100005 100006 100005
          100006 100005 100006 100005 100006 100005 100006 100005 100006 100005 100006 100005
          100006 100005 100006 100005 100006 100005 100006 100005 100006 100005 100006 100005
          100006 100005 100005 100005 100005 100005 100005 100005 100005 100005 100005 100005
          100005 100005 100005 100005 100005 100005 100005 100005 100005 100004 100004 100004
          100004 100004 100004 100004 100004 100004 100004 100004 100004 100004 100004 100004
          100004 100004 100004 100004 100003 100003 100003 100003 100003 100003 100003 100003
          100003 100003 100003 100003 100003 100003 100003 100003 100003 100003 100003 100003
          100003 100003 100003 100003 100003 100003 100003 100003 100003 100003 100003 100003
          100003 100003 100003 100003 100003 100003 100002 100002 100002 100002 100002 100002
          100002 100002 100002 100002 100002 100002 100002 100002 100002 100002 100002 100002
          100002 100001 100001 100001 100001 100001 100001 100001 100001 100001 100001 100001
          100001 100001 100001 100001 100001 100001 100001 100001 100001 100001 100001 100001
          100001 100001 100001 100001 100001 100001 100001 100001 100001 100001 100001 100001
          100001 100001 100001 100000 100000 100000 100000 100000 100000 100000 100000 100000
          100000 100000 100000 100000 100000 100000 100000 100000 100000 100000 99999.4 99999.4
          99999.4 99999.4 99999.4 99999.4 99999.4 99999.4 99999.4 99999.4 99999.4 99999.4 99999.4 99999.4
          99999.4 99999.4 99999.4 99999.4 99999.4 99998.7 99998.7 99998.7 99998.7 99998.7 99998.7 99998.7
          99998.7 99998.7 99998.7 99998.7 99998.7 99998.7 99998.7 99998.7 99998.7 99998.7 99998.7 99998.7
          99998.1 99998.1 99998.1 99998.1 99998.1 99998.1 99998.1 99998.1 99998.1 99998.1 99998.1 99998.1
          99998.1 99998.1 99998.1 99998.1 99998.1 99998.1 99998.1 99997.4 99997.4 99997.4 99997.4 99997.4
          99997.4 99997.4 99997.4 99997.4 99997.4 99997.4 99997.4 99997.4 99997.4 99997.4 99997.4 99997.4
          99997.4 99997.4 99996.8 99996.8 99996.8 99996.8 99996.8 99996.8 99996.8 99996.8 99996.8 99996.8
          99996.8 99996.8 99996.8 99996.8 99996.8 99996.8 99996.8 99996.8 99996.8 99996.1 99996.1 99996.1
          99996.1 99996.1 99996.1 99996.1 99996.1 99996.1 99996.1 99996.1 99996.1 99996.1 99996.1 99996.1
          99996.1 99996.1 99996.1 99996.1 99995.5 99995.5 99995.5 99995.5 99995.5 99995.5 99995.5 99995.5
          99995.5 99995.5 99995.5 99995.5 99995.5 99995.5 99995.5 99995.5 99995.5 99995.5 99995.5 99994.8
          99994.8 99994.8 99994.8 99994.8 99994.8 99994.8 99994.8 99994.8 99994.8 99994.8 99994.8 99994.8
          99994.8 99994.8 99994.8 99994.8 99994.8 99994.8 99994.2 99994.2 99994.2 99994.2 99994.2 99994.2
          99994.2 99994.2 99994.2 99994.2 99994.2 99994.2 99994.2 99994.2 99994.2 99994.2 99994.2 99994.2
          99994.2
        </DataArray>
        <DataArray type="Float32" Name="delP" NumberOfComponents="1" format="ascii">
          5.82598 5.82597 5.17749 5.17749 5.82591 5.17743 5.82583 5.17735 5.8257 5.17721 5.82556 5.17706
          5.82538 5.17686 5.82519 5.17666 5.82497 5.17642 5.82475 5.17619 5.82451 5.17594 5.82427 5.17569
          5.82403 5.17544 5.82379 5.17519 5.82354 5.17494 5.82329 5.17469 5.82305 5.17444 5.8228 5.1742
          5.82257 5.17397 4.52886 4.52886 4.52884 4.52881 4.52875 4.52868 4.52858 4.52847 4.52833 4.52819
          4.52802 4.52786 4.52767 4.52749 4.52728 4.52708 4.52686 4.52664 4.52638 3.88063 3.88063 3.88053
          3.88043 3.88028 3.88012 3.87992 3.87973 3.87953 3.87933 3.87913 3.87895 3.87876 3.8786 3.87844
          3.87831 3.87817 3.87804 3.87791 3.23188 3.23187 3.2319 3.23192 3.23193 3.23194 3.23193 3.23192
          3.23188 3.23185 3.2318 3.23176 3.2317 3.23166 3.2316 3.23156 3.23148 3.23141 3.23127 2.58398
          2.58398 2.58391 2.58385 2.58377 2.58371 2.58365 2.58363 2.58363 2.58365 2.5837 2.58377 2.58385
          2.58397 2.58407 2.5842 2.58431 2.58443 2.5845 1.93941 1.93941 1.93945 1.9395 1.93957 1.93964
          1.9397 1.93975 1.93979 1.93983 1.93985 1.93987 1.93987 1.93988 1.93987 1.93986 1.93982 1.93979
          1.93972 1.29202 1.29201 1.29201 1.292 1.292 1.292 1.29201 1.29205 1.29209 1.29215 1.29222
          1.29231 1.2924 1.29251 1.29261 1.29272 1.29282 1.29291 1.29299 0.646879 0.646874 0.646889 0.646912
          0.646952 0.646995 0.647045 0.647093 0.647138 0.647181 0.647217 0.647254 0.647283 0.647318 0.647343 0.647377
          0.647396 0.647423 0.647416 0 -3.52618e-06 1.34908e-06 7.98143e-06 1.72731e-05 3.49657e-05 5.98107e-05 0.000100906 0.000153899
          0.0002274 0.000312171 0.000416318 0.000525704 0.000650116 0.000771174 0.0009021 0.00102099 0.00114426 0.00125065 -0.645645 -0.64565
          -0.645622 -0.645583 -0.645516 -0.645443 -0.645354 -0.645267 -0.645177 -0.645095 -0.645016 -0.644942 -0.644871 -0.6448
          -0.644729 -0.644651 -0.644573 -0.644488 -0.644414 -1.29207 -1.29207 -1.29208 -1.29209 -1.2921 -1.2921 -1.29209
          -1.29207 -1.29202 -1.29195 -1.29185 -1.29174 -1.29161 -1.29147 -1.29132 -1.29116 -1.29101 -1.29085 -1.29073
          -1.93818 -1.93819 -1.93812 -1.93804 -1.93791 -1.93779 -1.93764 -1.9375 -1.93736 -1.93723 -1.93712 -1.93702
          -1.93693 -1.93685 -1.93677 -1.93669 -1.93661 -1.93653 -1.93643 -2.58418 -2.58418 -2.58424 -2.58429 -2.58434
          -2.58437 -2.58439 -2.58439 -2.58435 -2.5843 -2.58422 -2.58415 -2.58406 -2.58398 -2.5839 -2.58384 -2.58379
          -2.58376 -2.58372 -3.23083 -3.23084 -3.23075 -3.23065 -3.23051 -3.23037 -3.23023 -3.23014 -3.23009 -3.2301
          -3.23015 -3.23025 -3.23037 -3.23052 -3.23066 -3.23083 -3.23095 -3.23109 -3.23112 -3.88074 -3.88074 -3.88075
          -3.88078 -3.88081 -3.88086 -3.8809 -3.88092 -3.88091 -3.8809 -3.88086 -3.88083 -3.88078 -3.88075 -3.88071
          -3.88069 -3.88065 -3.88062 -3.88059 -4.52822 -4.52823 -4.52818 -4.52813 -4.52804 -4.52795 -4.52785 -4.5278
          -4.52777 -4.52778 -4.5278 -4.52787 -4.52793 -4.52802 -4.52808 -4.52816 -4.52819 -4.52822 -4.5282 -5.1773
          -5.17731 -5.17724 -5.17718 -5.17708 -5.177 -5.1769 -5.17683 -5.17675 -5.17672 -5.17668 -5.17669 -5.17668
          -5.17672 -5.17673 -5.17677 -5.17676 -5.17678 -5.17669 -5.82568 -5.82569 -5.82562 -5.82558 -5.8255 -5.82544
          -5.82535 -5.8253 -5.82524 -5.82522 -5.82519 -5.82521 -5.82521 -5.82525 -5.82526 -5.82531 -5.8253 -5.82531
          -5.82522
        </DataArray>
        <DataArray type="Float32" Name="X_gH2O" NumberOfComponents="1" format="ascii">
          0.0001 0.0001 0.0001 0.000100002 0.0001 0.000100004 0.0001 0.000100005 0.0001 0.000100004 0.0001 0.000100004
          0.0001 0.000100001 0.0001 9.99986e-05 0.0001 9.9995e-05 0.0001 9.99909e-05 0.0001 9.99851e-05 0.0001 9.99766e-05
          0.0001 9.99632e-05 0.0001 9.9943e-05 0.0001 9.99135e-05 0.0001 9.98735e-05 0.0001 9.98225e-05 0.0001 9.97603e-05
          0.0001 9.97179e-05 0.0001 9.9998e-05 9.99964e-05 9.99956e-05 9.99956e-05 9.99969e-05 9.99988e-05 0.000100001 0.0001 9.99956e-05
          9.99825e-05 9.99579e-05 9.99175e-05 9.98586e-05 9.97788e-05 9.96775e-05 9.95551e-05 9.9413e-05 9.93356e-05 0.0001 0.000100003 0.000100004
          0.000100005 0.000100005 0.0001 9.99874e-05 9.99615e-05 9.99163e-05 9.98464e-05 9.97465e-05 9.96138e-05 9.94461e-05 9.92444e-05 9.901e-05
          9.87469e-05 9.84596e-05 9.81531e-05 9.79882e-05 0.0001 9.99908e-05 9.99823e-05 9.99718e-05 9.99058e-05 9.97706e-05 9.95679e-05 9.9304e-05
          9.89848e-05 9.86204e-05 9.82188e-05 9.77913e-05 9.7346e-05 9.68928e-05 9.64376e-05 9.59879e-05 9.55465e-05 9.51197e-05 9.49107e-05 9e-05
          9.01291e-05 9.0224e-05 9.02591e-05 9.02793e-05 9.02977e-05 9.03141e-05 9.03285e-05 9.03411e-05 9.03521e-05 9.03615e-05 9.037e-05 9.03775e-05
          9.03847e-05 9.03914e-05 9.03981e-05 9.04045e-05 9.0411e-05 9.0413e-05 9e-05 9.00084e-05 9.0018e-05 9.00272e-05 9.00366e-05 9.00464e-05
          9.00563e-05 9.00663e-05 9.0076e-05 9.00855e-05 9.00945e-05 9.01032e-05 9.01115e-05 9.01196e-05 9.01276e-05 9.01357e-05 9.01441e-05 9.01531e-05
          9.016e-05 9e-05 8.9995e-05 8.99897e-05 8.99841e-05 8.99778e-05 8.99714e-05 8.99653e-05 8.99599e-05 8.99555e-05 8.99525e-05 8.99512e-05
          8.99519e-05 8.99548e-05 8.99603e-05 8.99683e-05 8.99789e-05 8.99923e-05 9.00083e-05 9.00149e-05 9e-05 9.00037e-05 9.00076e-05 9.00119e-05
          9.00168e-05 9.00221e-05 9.00276e-05 9.00334e-05 9.00392e-05 9.0045e-05 9.00507e-05 9.00565e-05 9.00623e-05 9.00683e-05 9.00745e-05 9.00814e-05
          9.0089e-05 9.00979e-05 9.01042e-05 9e-05 8.99974e-05 8.99947e-05 8.99919e-05 8.99887e-05 8.99853e-05 8.99821e-05 8.99792e-05 8.99769e-05
          8.99756e-05 8.99755e-05 8.99769e-05 8.99801e-05 8.99852e-05 8.99927e-05 9.00028e-05 9.00161e-05 9.00334e-05 9.00426e-05 9e-05 9.00016e-05
          9.00035e-05 9.00056e-05 9.00083e-05 9.00117e-05 9.00155e-05 9.00197e-05 9.00244e-05 9.00293e-05 9.00346e-05 9.00403e-05 9.00469e-05 9.00549e-05
          9.00653e-05 9.00798e-05 9.01008e-05 9.01315e-05 9.01512e-05 9e-05 8.99993e-05 8.99984e-05 8.99972e-05 8.99955e-05 8.99934e-05 8.99911e-05
          8.99889e-05 8.99874e-05 8.99873e-05 8.99899e-05 8.99967e-05 9.00102e-05 9.0033e-05 9.00691e-05 9.01232e-05 9.02019e-05 9.03117e-05 9.03747e-05
          9e-05 8.99997e-05 8.99999e-05 9.00006e-05 9.00023e-05 9.0005e-05 9.00094e-05 9.00173e-05 9.00323e-05 9.0059e-05 9.01027e-05 9.0169e-05
          9.02635e-05 9.0391e-05 9.05573e-05 9.07672e-05 9.10286e-05 9.13435e-05 9.15167e-05 9e-05 9.00072e-05 9.00134e-05 9.00187e-05 9.00234e-05
          9.00276e-05 9.00796e-05 9.02094e-05 9.04153e-05 9.06897e-05 9.10253e-05 9.14108e-05 9.18382e-05 9.22969e-05 9.27817e-05 9.32855e-05 9.38068e-05
          9.43361e-05 9.46004e-05 0.0001 9.97107e-05 9.94251e-05 9.92088e-05 9.90775e-05 9.90341e-05 9.90358e-05 9.90476e-05 9.90679e-05 9.90948e-05
          9.91269e-05 9.91625e-05 9.9201e-05 9.92414e-05 9.92835e-05 9.93268e-05 9.93714e-05 9.94167e-05 9.94414e-05 0.0001 9.99792e-05 9.99476e-05
          9.9914e-05 9.98858e-05 9.98669e-05 9.98518e-05 9.98395e-05 9.98308e-05 9.98258e-05 9.98247e-05 9.98266e-05 9.98315e-05 9.98384e-05 9.98473e-05
          9.98572e-05 9.98684e-05 9.988e-05 9.98822e-05 0.0001 0.000100009 0.000100016 0.000100025 0.000100036 0.000100051 0.000100065 0.000100076
          0.000100083 0.000100087 0.000100087 0.000100085 0.000100082 0.000100076 0.000100071 0.000100064 0.000100058 0.000100051 0.000100052 0.0001
          9.99915e-05 9.99837e-05 9.99739e-05 9.99613e-05 9.99438e-05 9.99285e-05 9.9916e-05 9.99081e-05 9.99035e-05 9.99027e-05 9.99037e-05 9.99071e-05
          9.99108e-05 9.99159e-05 9.99203e-05 9.99258e-05 9.99303e-05 9.99303e-05 0.0001 0.0001 0.0001 0.0001 0.0001 0.0001
          0.0001 0.0001 0.0001 0.0001 0.0001 0.0001 0.0001 0.0001 0.0001 0.0001 0.0001 0.0001
          0.0001
        </DataArray>
        <DataArray type="Float32" Name="temperature" NumberOfComponents="1" format="ascii">
          283.15 283.15 283.15 283.157 283.15 283.16 283.15 283.163 283.15 283.163 283.15 283.16
          283.15 283.154 283.15 283.147 283.15 283.138 283.15 283.131 283.15 283.126 283.15 283.124
          283.15 283.126 283.15 283.131 283.15 283.14 283.15 283.152 283.15 283.167 283.15 283.185
          283.15 283.174 283.15 283.144 283.139 283.137 283.137 283.141 283.149 283.159 283.173 283.188
          283.205 283.224 283.244 283.265 283.287 283.311 283.336 283.362 283.379 283.15 283.158 283.163
          283.167 283.168 283.167 283.165 283.164 283.164 283.168 283.175 283.188 283.206 283.23 283.26
          283.295 283.334 283.376 283.39 283.15 283.159 283.171 283.185 283.208 283.24 283.28 283.329
          283.384 283.443 283.505 283.568 283.631 283.693 283.752 283.808 283.859 283.907 283.937 284.15
          284.143 284.138 284.136 284.134 284.131 284.126 284.121 284.116 284.113 284.111 284.111 284.112
          284.116 284.12 284.127 284.134 284.142 284.143 284.15 284.172 284.195 284.22 284.247 284.274
          284.301 284.326 284.348 284.367 284.381 284.391 284.395 284.394 284.388 284.378 284.362 284.344
          284.341 284.15 284.134 284.116 284.098 284.076 284.054 284.032 284.011 283.991 283.974 283.959
          283.948 283.941 283.938 283.938 283.943 283.951 283.961 283.961 284.15 284.162 284.175 284.188
          284.203 284.219 284.235 284.251 284.265 284.277 284.287 284.295 284.299 284.3 284.298 284.293
          284.285 284.275 284.274 284.15 284.142 284.133 284.123 284.113 284.1 284.088 284.076 284.064
          284.054 284.045 284.039 284.034 284.033 284.033 284.036 284.041 284.046 284.047 284.15 284.155
          284.161 284.168 284.176 284.186 284.196 284.207 284.217 284.226 284.234 284.24 284.243 284.243
          284.241 284.235 284.225 284.213 284.21 284.15 284.148 284.145 284.14 284.134 284.126 284.116
          284.105 284.094 284.083 284.072 284.063 284.054 284.046 284.039 284.031 284.021 284.008 283.998
          284.15 284.149 284.149 284.151 284.155 284.162 284.171 284.179 284.187 284.192 284.192 284.187
          284.176 284.157 284.131 284.096 284.053 284.002 283.979 284.15 284.141 284.129 284.116 284.099
          284.079 284.051 284.013 283.967 283.916 283.861 283.803 283.744 283.685 283.626 283.568 283.511
          283.455 283.42 283.15 283.171 283.195 283.215 283.231 283.242 283.25 283.256 283.259 283.257
          283.251 283.241 283.228 283.212 283.194 283.174 283.156 283.138 283.132 283.15 283.121 283.091
          283.058 283.02 282.975 282.932 282.893 282.863 282.841 282.828 282.824 282.828 282.837 282.851
          282.869 282.89 282.912 282.913 283.15 283.176 283.204 283.233 283.27 283.315 283.355 283.386
          283.407 283.416 283.416 283.409 283.397 283.381 283.364 283.345 283.325 283.303 283.307 283.15
          283.125 283.103 283.076 283.039 282.988 282.943 282.907 282.883 282.87 282.867 282.87 282.879
          282.89 282.905 282.917 282.933 282.946 282.946 283.15 283.15 283.15 283.15 283.15 283.15
          283.15 283.15 283.15 283.15 283.15 283.15 283.15 283.15 283.15 283.15 283.15 283.15
          283.15
        </DataArray>
        <DataArray type="Float32" Name="rhoG" NumberOfComponents="1" format="ascii">
          1.18991 1.18991 1.18991 1.18988 1.18991 1.18986 1.18991 1.18985 1.18991 1.18985 1.18991 1.18986
          1.18991 1.18989 1.18991 1.18992 1.18991 1.18996 1.18991 1.18999 1.18991 1.19001 1.18991 1.19002
          1.18991 1.19001 1.18991 1.18999 1.18991 1.18995 1.18991 1.1899 1.18991 1.18983 1.18991 1.18976
          1.18991 1.1898 1.1899 1.18992 1.18994 1.18995 1.18995 1.18994 1.1899 1.18986 1.1898 1.18974
          1.18967 1.18959 1.18951 1.18942 1.18932 1.18922 1.18912 1.18901 1.18894 1.18989 1.18986 1.18984
          1.18982 1.18982 1.18982 1.18983 1.18983 1.18983 1.18982 1.18979 1.18973 1.18966 1.18956 1.18943
          1.18929 1.18912 1.18894 1.18889 1.18988 1.18984 1.1898 1.18974 1.18964 1.18951 1.18934 1.18913
          1.1889 1.18866 1.1884 1.18813 1.18787 1.18761 1.18736 1.18713 1.18691 1.18671 1.18659 1.1857
          1.18572 1.18575 1.18575 1.18576 1.18578 1.1858 1.18582 1.18583 1.18585 1.18586 1.18586 1.18585
          1.18584 1.18582 1.18579 1.18576 1.18573 1.18573 1.18569 1.1856 1.1855 1.1854 1.18528 1.18517
          1.18506 1.18495 1.18486 1.18478 1.18472 1.18468 1.18467 1.18467 1.18469 1.18474 1.1848 1.18488
          1.18489 1.18568 1.18575 1.18582 1.1859 1.18599 1.18608 1.18617 1.18626 1.18634 1.18642 1.18648
          1.18652 1.18655 1.18657 1.18656 1.18655 1.18651 1.18647 1.18647 1.18567 1.18562 1.18557 1.18551
          1.18545 1.18538 1.18532 1.18525 1.18519 1.18514 1.1851 1.18507 1.18505 1.18505 1.18505 1.18508
          1.18511 1.18515 1.18516 1.18566 1.1857 1.18574 1.18578 1.18582 1.18587 1.18592 1.18597 1.18602
          1.18607 1.1861 1.18613 1.18615 1.18615 1.18615 1.18614 1.18612 1.1861 1.18609 1.18566 1.18563
          1.18561 1.18558 1.18555 1.18551 1.18546 1.18542 1.18538 1.18534 1.18531 1.18528 1.18527 1.18527
          1.18528 1.1853 1.18534 1.1854 1.18541 1.18565 1.18566 1.18567 1.18569 1.18571 1.18575 1.18579
          1.18584 1.18588 1.18593 1.18597 1.18601 1.18605 1.18608 1.18611 1.18615 1.18619 1.18624 1.18628
          1.18564 1.18565 1.18564 1.18564 1.18562 1.18559 1.18556 1.18552 1.18549 1.18547 1.18546 1.18549
          1.18553 1.18561 1.18572 1.18587 1.18604 1.18626 1.18635 1.18563 1.18567 1.18572 1.18578 1.18585
          1.18593 1.18605 1.18621 1.1864 1.18661 1.18684 1.18708 1.18733 1.18758 1.18782 1.18807 1.1883
          1.18854 1.18869 1.18981 1.18972 1.18962 1.18953 1.18947 1.18942 1.18939 1.18936 1.18935 1.18936
          1.18938 1.18942 1.18948 1.18955 1.18962 1.1897 1.18978 1.18986 1.18988 1.1898 1.18992 1.19005
          1.19018 1.19034 1.19053 1.19072 1.19088 1.19101 1.1911 1.19115 1.19117 1.19116 1.19112 1.19106
          1.19098 1.19089 1.1908 1.1908 1.18979 1.18968 1.18957 1.18944 1.18929 1.1891 1.18893 1.1888
          1.18871 1.18868 1.18867 1.1887 1.18875 1.18882 1.18889 1.18897 1.18906 1.18915 1.18913 1.18978
          1.18989 1.18998 1.1901 1.19025 1.19046 1.19065 1.19081 1.19091 1.19096 1.19097 1.19096 1.19092
          1.19088 1.19082 1.19076 1.19069 1.19064 1.19064 1.18978 1.18978 1.18978 1.18978 1.18978 1.18978
          1.18978 1.18978 1.18978 1.18978 1.18978 1.18978 1.18978 1.18978 1.18978 1.18978 1.18978 1.18978
          1.18978
        </DataArray>
        <DataArray type="Float32" Name="mu" NumberOfComponents="1" format="ascii">
          1.69323e-05 1.69323e-05 1.69323e-05 1.69326e-05 1.69323e-05 1.69327e-05 1.69323e-05 1.69329e-05 1.69323e-05 1.69329e-05 1.69323e-05 1.69328e-05
          1.69323e-05 1.69325e-05 1.69323e-05 1.69321e-05 1.69323e-05 1.69317e-05 1.69323e-05 1.69314e-05 1.69323e-05 1.69311e-05 1.69323e-05 1.69311e-05
          1.69323e-05 1.69311e-05 1.69323e-05 1.69314e-05 1.69323e-05 1.69318e-05 1.69323e-05 1.69324e-05 1.69323e-05 1.69331e-05 1.69323e-05 1.69339e-05
          1.69323e-05 1.69334e-05 1.69323e-05 1.6932e-05 1.69318e-05 1.69317e-05 1.69317e-05 1.69319e-05 1.69322e-05 1.69327e-05 1.69333e-05 1.6934e-05
          1.69348e-05 1.69357e-05 1.69366e-05 1.69376e-05 1.69386e-05 1.69398e-05 1.69409e-05 1.69421e-05 1.69429e-05 1.69323e-05 1.69326e-05 1.69329e-05
          1.6933e-05 1.69331e-05 1.69331e-05 1.6933e-05 1.69329e-05 1.69329e-05 1.69331e-05 1.69334e-05 1.6934e-05 1.69349e-05 1.6936e-05 1.69374e-05
          1.6939e-05 1.69408e-05 1.69428e-05 1.69434e-05 1.69323e-05 1.69327e-05 1.69332e-05 1.69339e-05 1.69349e-05 1.69364e-05 1.69383e-05 1.69406e-05
          1.69431e-05 1.69459e-05 1.69488e-05 1.69517e-05 1.69546e-05 1.69575e-05 1.69603e-05 1.69629e-05 1.69653e-05 1.69675e-05 1.69689e-05 1.69788e-05
          1.69785e-05 1.69782e-05 1.69782e-05 1.69781e-05 1.69779e-05 1.69777e-05 1.69775e-05 1.69772e-05 1.69771e-05 1.6977e-05 1.6977e-05 1.6977e-05
          1.69772e-05 1.69774e-05 1.69777e-05 1.69781e-05 1.69784e-05 1.69785e-05 1.69788e-05 1.69798e-05 1.69809e-05 1.6982e-05 1.69833e-05 1.69846e-05
          1.69858e-05 1.6987e-05 1.6988e-05 1.69889e-05 1.69895e-05 1.699e-05 1.69901e-05 1.69901e-05 1.69898e-05 1.69894e-05 1.69886e-05 1.69878e-05
          1.69876e-05 1.69788e-05 1.6978e-05 1.69772e-05 1.69764e-05 1.69754e-05 1.69744e-05 1.69733e-05 1.69724e-05 1.69714e-05 1.69706e-05 1.697e-05
          1.69694e-05 1.69691e-05 1.6969e-05 1.6969e-05 1.69692e-05 1.69696e-05 1.69701e-05 1.697e-05 1.69788e-05 1.69794e-05 1.69799e-05 1.69806e-05
          1.69813e-05 1.6982e-05 1.69828e-05 1.69835e-05 1.69841e-05 1.69847e-05 1.69852e-05 1.69855e-05 1.69857e-05 1.69858e-05 1.69857e-05 1.69854e-05
          1.69851e-05 1.69846e-05 1.69845e-05 1.69788e-05 1.69784e-05 1.6978e-05 1.69776e-05 1.69771e-05 1.69765e-05 1.69759e-05 1.69754e-05 1.69748e-05
          1.69743e-05 1.69739e-05 1.69736e-05 1.69734e-05 1.69734e-05 1.69734e-05 1.69735e-05 1.69737e-05 1.6974e-05 1.6974e-05 1.69788e-05 1.6979e-05
          1.69793e-05 1.69796e-05 1.698e-05 1.69804e-05 1.69809e-05 1.69814e-05 1.69819e-05 1.69823e-05 1.69827e-05 1.6983e-05 1.69831e-05 1.69831e-05
          1.6983e-05 1.69827e-05 1.69823e-05 1.69817e-05 1.69816e-05 1.69788e-05 1.69787e-05 1.69786e-05 1.69784e-05 1.69781e-05 1.69777e-05 1.69772e-05
          1.69767e-05 1.69762e-05 1.69757e-05 1.69752e-05 1.69748e-05 1.69744e-05 1.6974e-05 1.69736e-05 1.69733e-05 1.69728e-05 1.69722e-05 1.69717e-05
          1.69788e-05 1.69787e-05 1.69788e-05 1.69789e-05 1.69791e-05 1.69794e-05 1.69798e-05 1.69802e-05 1.69805e-05 1.69807e-05 1.69808e-05 1.69805e-05
          1.698e-05 1.69791e-05 1.69779e-05 1.69763e-05 1.69743e-05 1.69719e-05 1.69709e-05 1.69788e-05 1.69784e-05 1.69778e-05 1.69772e-05 1.69764e-05
          1.69755e-05 1.69742e-05 1.69724e-05 1.69703e-05 1.69679e-05 1.69654e-05 1.69627e-05 1.69599e-05 1.69572e-05 1.69545e-05 1.69518e-05 1.69491e-05
          1.69465e-05 1.69449e-05 1.69323e-05 1.69333e-05 1.69344e-05 1.69353e-05 1.6936e-05 1.69365e-05 1.69369e-05 1.69372e-05 1.69373e-05 1.69373e-05
          1.6937e-05 1.69365e-05 1.69359e-05 1.69351e-05 1.69343e-05 1.69334e-05 1.69325e-05 1.69317e-05 1.69315e-05 1.69323e-05 1.69309e-05 1.69295e-05
          1.6928e-05 1.69262e-05 1.69242e-05 1.69221e-05 1.69203e-05 1.69189e-05 1.69179e-05 1.69173e-05 1.69171e-05 1.69173e-05 1.69177e-05 1.69184e-05
          1.69192e-05 1.69202e-05 1.69212e-05 1.69212e-05 1.69323e-05 1.69335e-05 1.69348e-05 1.69361e-05 1.69378e-05 1.69399e-05 1.69418e-05 1.69432e-05
          1.69442e-05 1.69446e-05 1.69446e-05 1.69443e-05 1.69437e-05 1.6943e-05 1.69422e-05 1.69413e-05 1.69404e-05 1.69394e-05 1.69396e-05 1.69323e-05
          1.69311e-05 1.69301e-05 1.69288e-05 1.69271e-05 1.69247e-05 1.69227e-05 1.6921e-05 1.69199e-05 1.69192e-05 1.69191e-05 1.69192e-05 1.69197e-05
          1.69202e-05 1.69209e-05 1.69215e-05 1.69222e-05 1.69228e-05 1.69228e-05 1.69323e-05 1.69323e-05 1.69323e-05 1.69323e-05 1.69323e-05 1.69323e-05
          1.69323e-05 1.69323e-05 1.69323e-05 1.69323e-05 1.69323e-05 1.69323e-05 1.69323e-05 1.69323e-05 1.69323e-05 1.69323e-05 1.69323e-05 1.69323e-05
          1.69323e-05
        </DataArray>
        <DataArray type="Float32" Name="h" NumberOfComponents="1" format="ascii">
          302226 302226 302226 302233 302226 302237 302226 302240 302226 302240 302226 302237
          302226 302231 302226 302223 302226 302214 302226 302207 302226 302201 302226 302199
          302226 302201 302226 302206 302226 302216 302226 302228 302226 302244 302226 302262
          302226 302251 302226 302220 302215 302213 302213 302217 302225 302236 302250 302266
          302284 302303 302324 302346 302369 302394 302419 302446 302464 302226 302234 302239
          302243 302245 302244 302242 302241 302241 302244 302252 302265 302283 302308 302338
          302374 302414 302458 302472 302226 302236 302248 302263 302286 302319 302361 302411
          302467 302528 302592 302657 302722 302785 302846 302903 302956 303004 303035 303246
          303239 303234 303233 303230 303227 303222 303217 303212 303208 303206 303206 303208
          303211 303216 303223 303230 303239 303239 303246 303269 303293 303319 303347 303376
          303404 303430 303453 303472 303487 303497 303501 303501 303495 303484 303468 303448
          303445 303246 303229 303211 303191 303169 303146 303123 303101 303080 303062 303047
          303036 303028 303025 303025 303030 303038 303050 303049 303246 303259 303272 303286
          303302 303318 303335 303351 303366 303379 303389 303397 303402 303403 303401 303395
          303387 303376 303375 303246 303237 303228 303218 303207 303194 303182 303169 303157
          303146 303137 303130 303126 303124 303124 303127 303132 303138 303139 303246 303252
          303258 303265 303273 303283 303294 303305 303316 303326 303334 303340 303343 303344
          303341 303335 303325 303312 303309 303246 303244 303241 303236 303230 303221 303211
          303200 303188 303176 303165 303155 303146 303138 303130 303122 303112 303099 303088
          303246 303245 303245 303247 303252 303259 303268 303277 303285 303290 303290 303285
          303274 303254 303227 303192 303148 303095 303072 303246 303236 303225 303211 303193
          303172 303143 303104 303057 303004 302947 302887 302827 302766 302706 302647 302589
          302532 302495 302226 302248 302272 302292 302308 302319 302328 302334 302337 302336
          302330 302320 302306 302289 302270 302250 302231 302212 302207 302226 302196 302165
          302130 302091 302044 301998 301958 301926 301904 301891 301886 301890 301899 301914
          301933 301954 301978 301979 302226 302254 302282 302313 302352 302398 302440 302472
          302494 302503 302504 302496 302484 302467 302449 302429 302409 302386 302390 302226
          302201 302178 302149 302111 302057 302011 301972 301948 301934 301931 301934 301944
          301955 301970 301984 302000 302014 302014 302226 302226 302226 302226 302226 302226
          302226 302226 302226 302226 302226 302226 302226 302226 302226 302226 302226 302226
          302226
        </DataArray>
        <DataArray type="Float32" Name="v" NumberOfComponents="3" format="ascii">
          0 0 0 0 0 0 0.104938 0 0 0.106826 0.0133468 0
          0 0 0 0.109263 0.0119515 0 0 -9.8984e-38 0 0.111648 0.00949626 0
          0 0 0 0.114059 0.00493205 0 0 0 0 0.116259 -0.000467293 0
          0 0 0 0.118277 -0.00727874 0 0 0 0 0.119932 -0.0145118 0
          0 0 0 0.121231 -0.0222232 0 0 0 0 0.122146 -0.0296107 0
          0 0 0 0.122721 -0.0365657 0 0 0 0 0.123068 -0.0425892 0
          0 0 0 0.123258 -0.0475909 0 0 0 0 0.123478 -0.0514031 0
          0 0 0 0.123793 -0.0539202 0 0 0 0 0.124384 -0.055259 0
          0 0 0 0.125265 -0.0550988 0 0 0 0 0.126544 -0.0537278 0
          0 0 0 0.128121 -0.0573497 0 0.197531 0 0 0.197604 -0.0037601 0
          0.197907 -0.00376577 0 0.198928 -0.00390013 0 0.200134 -0.00383161 0 0.201721 -0.00356903 0
          0.203228 -0.003159 0 0.204771 -0.00256552 0 0.206018 -0.00196187 0 0.207166 -0.00134684 0
          0.208001 -0.000882279 0 0.208839 -0.000561893 0 0.209512 -0.000483339 0 0.210447 -0.000611859 0
          0.211435 -0.00098248 0 0.213039 -0.00152068 0 0.214941 -0.00222967 0 0.217987 -0.00301566 0
          0.221416 -0.00329288 0 0.277778 0 0 0.279856 0.0118878 0 0.281949 0.00994993 0
          0.283162 0.0068928 0 0.284404 0.00194286 0 0.285457 -0.00358988 0 0.286311 -0.0102377 0
          0.286953 -0.0171045 0 0.287258 -0.0243499 0 0.287372 -0.0312567 0 0.287174 -0.0378639 0
          0.286934 -0.0436747 0 0.286542 -0.0487534 0 0.286366 -0.0528332 0 0.286301 -0.0560046 0
          0.286772 -0.0581844 0 0.287707 -0.0593752 0 0.289376 -0.0595956 0 0.291682 -0.0635447 0
          0.345679 0 0 0.342179 -0.00649544 0 0.338815 -0.00588891 0 0.33853 -0.00593387 0
          0.338374 -0.00601971 0 0.339115 -0.00555373 0 0.339623 -0.0048507 0 0.340447 -0.00378945 0
          0.340945 -0.00271679 0 0.341572 -0.00163001 0 0.341885 -0.000846736 0 0.342382 -0.000341039 0
          0.342685 -0.000359855 0 0.343421 -0.000811952 0 0.344176 -0.00187021 0 0.345836 -0.00343363 0
          0.347871 -0.00550212 0 0.351797 -0.00800018 0 0.356337 -0.00890076 0 0.401235 0 0
          0.401463 0.0176808 0 0.401256 0.0122071 0 0.400772 0.0068625 0 0.399866 0.00147581 0
          0.398741 -0.00450676 0 0.397256 -0.0110365 0 0.395699 -0.0178183 0 0.393954 -0.0248196 0
          0.392366 -0.0315417 0 0.390788 -0.0380547 0 0.389603 -0.0438815 0 0.388582 -0.0492658 0
          0.38819 -0.0537952 0 0.388106 -0.057943 0 0.388997 -0.0612877 0 0.390415 -0.0646965 0
          0.393697 -0.0676269 0 0.397641 -0.0720312 0 0.444444 0 0 0.442515 -0.00486108 0
          0.439808 -0.00434265 0 0.437897 -0.00445224 0 0.436432 -0.00431343 0 0.435837 -0.00363234 0
          0.435435 -0.00269357 0 0.435586 -0.00149954 0 0.435711 -0.000417194 0 0.436179 0.000546713 0
          0.436525 0.00101261 0 0.437163 0.0010951 0 0.437723 0.000391247 0 0.438666 -0.000833723 0
          0.439669 -0.00308857 0 0.441216 -0.00592556 0 0.443014 -0.0102383 0 0.445297 -0.0153444 0
          0.447761 -0.0166768 0 0.475309 0 0 0.474389 0.0220403 0 0.473092 0.0160766 0
          0.472283 0.00979784 0 0.471245 0.00349896 0 0.470306 -0.00320324 0 0.469174 -0.0102117 0
          0.468156 -0.0173656 0 0.467068 -0.0246035 0 0.466194 -0.031545 0 0.465378 -0.0382757 0
          0.46489 -0.0443897 0 0.464574 -0.0501726 0 0.464677 -0.0552369 0 0.465066 -0.0600806 0
          0.465877 -0.0643345 0 0.467027 -0.0686222 0 0.468123 -0.0724651 0 0.469282 -0.0770461 0
          0.493827 0 0 0.493162 -0.00197594 0 0.491976 -0.00187548 0 0.49064 -0.00237428 0
          0.489521 -0.00233969 0 0.48881 -0.00180804 0 0.488275 -0.000955346 0 0.48812 8.23636e-05 0
          0.488001 0.000986874 0 0.488141 0.00169287 0 0.488214 0.00183929 0 0.488461 0.00150702 0
          0.488608 0.000321892 0 0.488927 -0.00151901 0 0.489191 -0.00438676 0 0.489742 -0.00801521 0
          0.490377 -0.0127017 0 0.491723 -0.0180129 0 0.49338 -0.019481 0 0.5 0 0
          0.499397 0.0240956 0 0.498652 0.0184224 0 0.498265 0.0120421 0 0.497659 0.00526599 0
          0.496999 -0.00181916 0 0.496141 -0.00921562 0 0.495233 -0.0166659 0 0.494234 -0.0241379 0
          0.493303 -0.0312687 0 0.492398 -0.0381507 0 0.491686 -0.0444186 0 0.491085 -0.0503733 0
          0.490759 -0.0556625 0 0.490593 -0.0608286 0 0.490742 -0.0654995 0 0.491104 -0.0704805 0
          0.49172 -0.0752678 0 0.492533 -0.0800855 0 0.493827 0 0 0.492954 -0.000204155 0
          0.491666 -0.000409352 0 0.490372 -0.00105134 0 0.489246 -0.000913552 0 0.48845 -0.000342671 0