<?xml version="1.0"?>
<VTKFile type="UnstructuredGrid" version="0.1" byte_order="LittleEndian">
  <UnstructuredGrid>
    <Piece NumberOfCells="360" NumberOfPoints="217">
      <CellData Scalars="wetting pressure" Vectors="wetting-velocity">
        <DataArray type="Float32" Name="wetting pressure" NumberOfComponents="1" format="ascii">
          200000 200000 200000 200000 200000 200000 200000 200000 200000 200000 200000 200000
          200000 200000 200000 200000 200000 200000 199999 200000 199999 199999 199999 199999
          199999 199999 199999 199999 199999 199999 199999 199999 199999 199999 199999 199999
          199999 199999 199999 199999 199999 199999 199999 199999 199999 199999 199999 199999
          199999 199999 199999 199999 199999 199999 199999 199999 199999 199999 199999 199999
          200000 200000 200000 200000 200000 200000 200000 200000 200000 200000 200000 200000
          200000 200000 200000 200000 200000 200000 200000 200000 199999 199999 199999 199999
          199999 199999 199999 199999 199999 199999 199999 199999 199999 199999 199999 199999
          199999 199999 199999 199999 199999 199999 199999 199999 199999 199999 199999 199999
          199999 199999 199999 199999 199999 199999 199999 199999 199999 199999 199999 199999
          200000 200000 200000 200000 200000 200000 200000 200000 200000 200000 200000 200000
          200000 200000 200000 200000 200000 200000 200000 200000 199999 199999 199999 199999
          199999 199999 199999 199999 199999 199999 199999 199999 199999 199999 199999 199999
          199999 199999 199999 199999 199999 199999 199999 199999 199999 199999 199999 199999
          199999 199999 199999 199999 199999 199999 199999 199999 199999 199999 199999 199999
          200000 200000 200000 200000 200000 200000 200000 200000 200000 200000 200000 200000
          200000 200000 200000 200000 200000 200000 200000 200000 199999 200000 199999 199999
          199999 199999 199999 199999 199999 199999 199999 199999 199999 199999 199999 199999
          199999 199999 199999 199999 199999 199999 199999 199999 199999 199999 199999 199999
          199999 199999 199999 199999 199999 199999 199999 199999 199999 199999 199999 199999
          200000 200000 200000 200000 200000 200000 200000 200000 200000 200000 200000 200000
          200000 200000 200000 200000 200000 200000 200000 200000 200000 200000 199999 199999
          199999 199999 199999 199999 199999 199999 199999 199999 199999 199999 199999 199999
          199999 199999 199999 199999 199999 199999 199999 199999 199999 199999 199999 199999
          199999 199999 199999 199999 199999 199999 199999 199999 199999 199999 199999 199999
          200000 200000 200000 200000 200000 200000 200000 200000 200000 200000 200000 200000
          200000 200000 200000 200000 200000 200000 200000 200000 200000 200000 199999 199999
          199999 199999 199999 199999 199999 199999 199999 199999 199999 199999 199999 199999
          199999 199999 199999 199999 199999 199999 199999 199999 199999 199999 199999 199999
          199999 199999 199999 199999 199999 199999 199999 199999 199999 199999 199999 199999
        </DataArray>
        <DataArray type="Float32" Name="nonwetting pressure" NumberOfComponents="1" format="ascii">
          200000 200000 200000 200000 200000 200000 200000 200000 200000 200000 200000 200000
          200000 200000 200000 200000 200000 200000 199999 200000 199999 199999 199999 199999
          199999 199999 199999 199999 199999 199999 199999 199999 199999 199999 199999 199999
          199999 199999 199999 199999 199999 199999 199999 199999 199999 199999 199999 199999
          199999 199999 199999 199999 199999 199999 199999 199999 199999 199999 199999 199999
          200000 200000 200000 200000 200000 200000 200000 200000 200000 200000 200000 200000
          200000 200000 200000 200000 200000 200000 200000 200000 199999 199999 199999 199999
          199999 199999 199999 199999 199999 199999 199999 199999 199999 199999 199999 199999
          199999 199999 199999 199999 199999 199999 199999 199999 199999 199999 199999 199999
          199999 199999 199999 199999 199999 199999 199999 199999 199999 199999 199999 199999
          200000 200000 200000 200000 200000 200000 200000 200000 200000 200000 200000 200000
          200000 200000 200000 200000 200000 200000 200000 200000 199999 199999 199999 199999
          199999 199999 199999 199999 199999 199999 199999 199999 199999 199999 199999 199999
          199999 199999 199999 199999 199999 199999 199999 199999 199999 199999 199999 199999
          199999 199999 199999 199999 199999 199999 199999 199999 199999 199999 199999 199999
          200000 200000 200000 200000 200000 200000 200000 200000 200000 200000 200000 200000
          200000 200000 200000 200000 200000 200000 200000 200000 199999 200000 199999 199999
          199999 199999 199999 199999 199999 199999 199999 199999 199999 199999 199999 199999
          199999 199999 199999 199999 199999 199999 199999 199999 199999 199999 199999 199999
          199999 199999 199999 199999 199999 199999 199999 199999 199999 199999 199999 199999
          200000 200000 200000 200000 200000 200000 200000 200000 200000 200000 200000 200000
          200000 200000 200000 200000 200000 200000 200000 200000 200000 200000 199999 199999
          199999 199999 199999 199999 199999 199999 199999 199999 199999 199999 199999 199999
          199999 199999 199999 199999 199999 199999 199999 199999 199999 199999 199999 199999
          199999 199999 199999 199999 199999 199999 199999 199999 199999 199999 199999 199999
          200000 200000 200000 200000 200000 200000 200000 200000 200000 200000 200000 200000
          200000 200000 200000 200000 200000 200000 200000 200000 200000 200000 199999 199999
          199999 199999 199999 199999 199999 199999 199999 199999 199999 199999 199999 199999
          199999 199999 199999 199999 199999 199999 199999 199999 199999 199999 199999 199999
          199999 199999 199999 199999 199999 199999 199999 199999 199999 199999 199999 199999
        </DataArray>
        <DataArray type="Float32" Name="capillary pressure" NumberOfComponents="1" format="ascii">
          0 0 0 0 0 0 0 0 0 0 0 0
          0 0 0 0 0 0 0 0 0 0 0 0
          0 0 0 0 0 0 0 0 0 0 0 0
          0 0 0 0 0 0 0 0 0 0 0 0
          0 0 0 0 0 0 0 0 0 0 0 0
          0 0 0 0 0 0 0 0 0 0 0 0
          0 0 0 0 0 0 0 0 0 0 0 0
          0 0 0 0 0 0 0 0 0 0 0 0
          0 0 0 0 0 0 0 0 0 0 0 0
          0 0 0 0 0 0 0 0 0 0 0 0
          0 0 0 0 0 0 0 0 0 0 0 0
          0 0 0 0 0 0 0 0 0 0 0 0
          0 0 0 0 0 0 0 0 0 0 0 0
          0 0 0 0 0 0 0 0 0 0 0 0
          0 0 0 0 0 0 0 0 0 0 0 0
          0 0 0 0 0 0 0 0 0 0 0 0
          0 0 0 0 0 0 0 0 0 0 0 0
          0 0 0 0 0 0 0 0 0 0 0 0
          0 0 0 0 0 0 0 0 0 0 0 0
          0 0 0 0 0 0 0 0 0 0 0 0
          0 0 0 0 0 0 0 0 0 0 0 0
          0 0 0 0 0 0 0 0 0 0 0 0
          0 0 0 0 0 0 0 0 0 0 0 0
          0 0 0 0 0 0 0 0 0 0 0 0
          0 0 0 0 0 0 0 0 0 0 0 0
          0 0 0 0 0 0 0 0 0 0 0 0
          0 0 0 0 0 0 0 0 0 0 0 0
          0 0 0 0 0 0 0 0 0 0 0 0
          0 0 0 0 0 0 0 0 0 0 0 0
          0 0 0 0 0 0 0 0 0 0 0 0
        </DataArray>
        <DataArray type="Float32" Name="wetting saturation" NumberOfComponents="1" format="ascii">
          0.711576 0.749933 0.672116 0.691285 0.625102 0.654418 0.213375 0.514718 0.2 0.2 0.2 0.2
          0.2 0.2 0.2 0.2 0.2 0.2 0.2 0.2 0.2 0.2 0.2 0.2
          0.2 0.2 0.2 0.2 0.2 0.2 0.2 0.2 0.2 0.2 0.2 0.2
          0.2 0.2 0.2 0.2 0.2 0.2 0.2 0.2 0.2 0.2 0.2 0.2
          0.2 0.2 0.2 0.2 0.2 0.2 0.2 0.2 0.2 0.2 0.2 0.2
          0.698298 0.716573 0.666482 0.681086 0.625686 0.650319 0.223519 0.53434 0.2 0.2 0.2 0.2
          0.2 0.2 0.2 0.2 0.2 0.2 0.2 0.2 0.2 0.2 0.2 0.2
          0.2 0.2 0.2 0.2 0.2 0.2 0.2 0.2 0.2 0.2 0.2 0.2
          0.2 0.2 0.2 0.2 0.2 0.2 0.2 0.2 0.2 0.2 0.2 0.2
          0.2 0.2 0.2 0.2 0.2 0.2 0.2 0.2 0.2 0.2 0.2 0.2
          0.690707 0.712056 0.6601 0.673852 0.618201 0.643499 0.211648 0.48704 0.2 0.2 0.2 0.2
          0.2 0.2 0.2 0.2 0.2 0.2 0.2 0.2 0.2 0.2 0.2 0.2
          0.2 0.2 0.2 0.2 0.2 0.2 0.2 0.2 0.2 0.2 0.2 0.2
          0.2 0.2 0.2 0.2 0.2 0.2 0.2 0.2 0.2 0.2 0.2 0.2
          0.2 0.2 0.2 0.2 0.2 0.2 0.2 0.2 0.2 0.2 0.2 0.2
          0.687414 0.709528 0.655436 0.67012 0.605554 0.637276 0.202144 0.39964 0.2 0.2 0.2 0.2
          0.2 0.2 0.2 0.2 0.2 0.2 0.2 0.2 0.2 0.2 0.2 0.2
          0.2 0.2 0.2 0.2 0.2 0.2 0.2 0.2 0.2 0.2 0.2 0.2
          0.2 0.2 0.2 0.2 0.2 0.2 0.2 0.2 0.2 0.2 0.2 0.2
          0.2 0.2 0.2 0.2 0.2 0.2 0.2 0.2 0.2 0.2 0.2 0.2
          0.683789 0.705832 0.65096 0.665827 0.586792 0.630594 0.200138 0.314938 0.2 0.2 0.2 0.2
          0.2 0.2 0.2 0.2 0.2 0.2 0.2 0.2 0.2 0.2 0.2 0.2
          0.2 0.2 0.2 0.2 0.2 0.2 0.2 0.2 0.2 0.2 0.2 0.2
          0.2 0.2 0.2 0.2 0.2 0.2 0.2 0.2 0.2 0.2 0.2 0.2
          0.2 0.2 0.2 0.2 0.2 0.2 0.2 0.2 0.2 0.2 0.2 0.2
          0.670615 0.688775 0.638433 0.651567 0.554778 0.613287 0.200003 0.250634 0.2 0.2 0.2 0.2
          0.2 0.2 0.2 0.2 0.2 0.2 0.2 0.2 0.2 0.2 0.2 0.2
          0.2 0.2 0.2 0.2 0.2 0.2 0.2 0.2 0.2 0.2 0.2 0.2
          0.2 0.2 0.2 0.2 0.2 0.2 0.2 0.2 0.2 0.2 0.2 0.2
          0.2 0.2 0.2 0.2 0.2 0.2 0.2 0.2 0.2 0.2 0.2 0.2
        </DataArray>
        <DataArray type="Float32" Name="nonwetting saturation" NumberOfComponents="1" format="ascii">
          0.288424 0.250067 0.327884 0.308715 0.374898 0.345582 0.786625 0.485282 0.8 0.8 0.8 0.8
          0.8 0.8 0.8 0.8 0.8 0.8 0.8 0.8 0.8 0.8 0.8 0.8
          0.8 0.8 0.8 0.8 0.8 0.8 0.8 0.8 0.8 0.8 0.8 0.8
          0.8 0.8 0.8 0.8 0.8 0.8 0.8 0.8 0.8 0.8 0.8 0.8
          0.8 0.8 0.8 0.8 0.8 0.8 0.8 0.8 0.8 0.8 0.8 0.8
          0.301703 0.283427 0.333518 0.318914 0.374314 0.349681 0.776481 0.46566 0.8 0.8 0.8 0.8
          0.8 0.8 0.8 0.8 0.8 0.8 0.8 0.8 0.8 0.8 0.8 0.8
          0.8 0.8 0.8 0.8 0.8 0.8 0.8 0.8 0.8 0.8 0.8 0.8
          0.8 0.8 0.8 0.8 0.8 0.8 0.8 0.8 0.8 0.8 0.8 0.8
          0.8 0.8 0.8 0.8 0.8 0.8 0.8 0.8 0.8 0.8 0.8 0.8
          0.309293 0.287944 0.3399 0.326148 0.381799 0.356501 0.788352 0.51296 0.8 0.8 0.8 0.8
          0.8 0.8 0.8 0.8 0.8 0.8 0.8 0.8 0.8 0.8 0.8 0.8
          0.8 0.8 0.8 0.8 0.8 0.8 0.8 0.8 0.8 0.8 0.8 0.8
          0.8 0.8 0.8 0.8 0.8 0.8 0.8 0.8 0.8 0.8 0.8 0.8
          0.8 0.8 0.8 0.8 0.8 0.8 0.8 0.8 0.8 0.8 0.8 0.8
          0.312586 0.290472 0.344564 0.32988 0.394446 0.362724 0.797856 0.60036 0.8 0.8 0.8 0.8
          0.8 0.8 0.8 0.8 0.8 0.8 0.8 0.8 0.8 0.8 0.8 0.8
          0.8 0.8 0.8 0.8 0.8 0.8 0.8 0.8 0.8 0.8 0.8 0.8
          0.8 0.8 0.8 0.8 0.8 0.8 0.8 0.8 0.8 0.8 0.8 0.8
          0.8 0.8 0.8 0.8 0.8 0.8 0.8 0.8 0.8 0.8 0.8 0.8
          0.316211 0.294168 0.34904 0.334173 0.413208 0.369406 0.799862 0.685062 0.8 0.8 0.8 0.8
          0.8 0.8 0.8 0.8 0.8 0.8 0.8 0.8 0.8 0.8 0.8 0.8
          0.8 0.8 0.8 0.8 0.8 0.8 0.8 0.8 0.8 0.8 0.8 0.8
          0.8 0.8 0.8 0.8 0.8 0.8 0.8 0.8 0.8 0.8 0.8 0.8
          0.8 0.8 0.8 0.8 0.8 0.8 0.8 0.8 0.8 0.8 0.8 0.8
          0.329385 0.311225 0.361567 0.348433 0.445222 0.386713 0.799997 0.749366 0.8 0.8 0.8 0.8
          0.8 0.8 0.8 0.8 0.8 0.8 0.8 0.8 0.8 0.8 0.8 0.8
          0.8 0.8 0.8 0.8 0.8 0.8 0.8 0.8 0.8 0.8 0.8 0.8
          0.8 0.8 0.8 0.8 0.8 0.8 0.8 0.8 0.8 0.8 0.8 0.8
          0.8 0.8 0.8 0.8 0.8 0.8 0.8 0.8 0.8 0.8 0.8 0.8
        </DataArray>
        <DataArray type="Float32" Name="wetting-velocity" NumberOfComponents="3" format="ascii">
          -4.02031e-07 -2.00051e-07 0 -2.0198e-07 -2.95071e-07 0 -3.35298e-07 -1.65938e-07 0 -1.6936e-07 -2.28226e-07 0
          -2.69552e-07 -1.29229e-07 0 -1.40324e-07 -1.86731e-07 0 -3.81083e-08 -2.49457e-14 0 -3.81083e-08 -1.37607e-07 0
          0 0 0 0 -2.49457e-14 0 0 0 0 0 0 0
          0 0 0 0 0 0 0 0 0 0 0 0
          0 0 0 0 0 0 0 0 0 0 0 0
          0 0 0 0 0 0 0 0 0 0 0 0
          0 0 0 0 0 0 0 0 0 0 0 0
          0 0 0 0 0 0 0 0 0 0 0 0
          0 0 0 0 0 0 0 0 0 0 0 0
          0 0 0 0 0 0 0 0 0 0 0 0
          0 0 0 0 0 0 0 0 0 0 0 0
          0 0 0 0 0 0 0 0 0 0 0 0
          0 0 0 0 0 0 0 0 0 0 0 0
          0 0 0 0 0 0 0 0 0 0 0 0
          0 0 0 0 0 0 0 0 0 0 0 0
          -2.51968e-07 -1.71341e-07 0 -1.26977e-07 -2.18111e-07 0 -2.61658e-07 -1.57369e-07 0 -1.32465e-07 -2.07694e-07 0
          -2.32869e-07 -1.32239e-07 0 -1.21423e-07 -1.88653e-07 0 -4.07416e-08 -3.04714e-13 0 -4.91197e-08 -1.46129e-07 0
          0 0 0 0 -3.04714e-13 0 0 0 0 0 0 0
          0 0 0 0 0 0 0 0 0 0 0 0
          0 0 0 0 0 0 0 0 0 0 0 0
          0 0 0 0 0 0 0 0 0 0 0 0
          0 0 0 0 0 0 0 0 0 0 0 0
          0 0 0 0 0 0 0 0 0 0 0 0
          0 0 0 0 0 0 0 0 0 0 0 0
          0 0 0 0 0 0 0 0 0 0 0 0
          0 0 0 0 0 0 0 0 0 0 0 0
          0 0 0 0 0 0 0 0 0 0 0 0
          0 0 0 0 0 0 0 0 0 0 0 0
          0 0 0 0 0 0 0 0 0 0 0 0
          0 0 0 0 0 0 0 0 0 0 0 0
          -2.16214e-07 -1.51829e-07 0 -1.09168e-07 -1.93705e-07 0 -2.23771e-07 -1.46534e-07 0 -1.1359e-07 -1.87413e-07 0
          -2.03006e-07 -1.26925e-07 0 -1.07365e-07 -1.80553e-07 0 -9.22587e-09 -1.72335e-14 0 -2.31157e-08 -1.33169e-07 0
          0 0 0 0 -1.72335e-14 0 0 0 0 0 0 0
          0 0 0 0 0 0 0 0 0 0 0 0
          0 0 0 0 0 0 0 0 0 0 0 0
          0 0 0 0 0 0 0 0 0 0 0 0
          0 0 0 0 0 0 0 0 0 0 0 0
          0 0 0 0 0 0 0 0 0 0 0 0
          0 0 0 0 0 0 0 0 0 0 0 0
          0 0 0 0 0 0 0 0 0 0 0 0
          0 0 0 0 0 0 0 0 0 0 0 0
          0 0 0 0 0 0 0 0 0 0 0 0
          0 0 0 0 0 0 0 0 0 0 0 0
          0 0 0 0 0 0 0 0 0 0 0 0
          0 0 0 0 0 0 0 0 0 0 0 0
          -1.97173e-07 -1.38949e-07 0 -9.96629e-08 -1.72875e-07 0 -2.08234e-07 -1.37889e-07 0 -1.05929e-07 -1.69244e-07 0
          -1.86855e-07 -1.19048e-07 0 -1.01826e-07 -1.6801e-07 0 2.68434e-09 -1.73757e-17 0 -3.55941e-09 -1.19776e-07 0
          0 0 0 0 -1.73757e-17 0 0 0 0 0 0 0
          0 0 0 0 0 0 0 0 0 0 0 0
          0 0 0 0 0 0 0 0 0 0 0 0
          0 0 0 0 0 0 0 0 0 0 0 0
          0 0 0 0 0 0 0 0 0 0 0 0
          0 0 0 0 0 0 0 0 0 0 0 0
          0 0 0 0 0 0 0 0 0 0 0 0
          0 0 0 0 0 0 0 0 0 0 0 0
          0 0 0 0 0 0 0 0 0 0 0 0
          0 0 0 0 0 0 0 0 0 0 0 0
          0 0 0 0 0 0 0 0 0 0 0 0
          0 0 0 0 0 0 0 0 0 0 0 0
          0 0 0 0 0 0 0 0 0 0 0 0
          -1.76866e-07 -1.23148e-07 0 -8.94971e-08 -1.41323e-07 0 -1.99304e-07 -1.28058e-07 0 -1.01542e-07 -1.4199e-07 0
          -1.70778e-07 -1.02402e-07 0 -9.84975e-08 -1.50694e-07 0 4.68038e-10 -2.28347e-22 0 -2.59944e-10 -1.02429e-07 0
          0 0 0 0 -2.28347e-22 0 0 0 0 0 0 0
          0 0 0 0 0 0 0 0 0 0 0 0
          0 0 0 0 0 0 0 0 0 0 0 0
          0 0 0 0 0 0 0 0 0 0 0 0
          0 0 0 0 0 0 0 0 0 0 0 0
          0 0 0 0 0 0 0 0 0 0 0 0
          0 0 0 0 0 0 0 0 0 0 0 0
          0 0 0 0 0 0 0 0 0 0 0 0
          0 0 0 0 0 0 0 0 0 0 0 0
          0 0 0 0 0 0 0 0 0 0 0 0
          0 0 0 0 0 0 0 0 0 0 0 0
          0 0 0 0 0 0 0 0 0 0 0 0
          0 0 0 0 0 0 0 0 0 0 0 0
          -1.3882e-07 -9.34064e-08 0 -7.05169e-08 -7.23703e-08 0 -1.76706e-07 -1.05205e-07 0 -9.03429e-08 -9.34064e-08 0
          -1.48608e-07 -7.53292e-08 0 -9.59143e-08 -1.05205e-07 0 1.99643e-11 -1.74291e-29 0 -7.66338e-12 -7.53292e-08 0
          0 0 0 0 -1.74291e-29 0 0 0 0 0 0 0
          0 0 0 0 0 0 0 0 0 0 0 0
          0 0 0 0 0 0 0 0 0 0 0 0
          0 0 0 0 0 0 0 0 0 0 0 0
          0 0 0 0 0 0 0 0 0 0 0 0
          0 0 0 0 0 0 0 0 0 0 0 0
          0 0 0 0 0 0 0 0 0 0 0 0
          0 0 0 0 0 0 0 0 0 0 0 0
          0 0 0 0 0 0 0 0 0 0 0 0
          0 0 0 0 0 0 0 0 0 0 0 0
          0 0 0 0 0 0 0 0 0 0 0 0
          0 0 0 0 0 0 0 0 0 0 0 0
          0 0 0 0 0 0 0 0 0 0 0 0
        </DataArray>
        <DataArray type="Float32" Name="non-wetting-velocity" NumberOfComponents="3" format="ascii">
          -2.56728e-09 -2.24839e-09 0 -3.18893e-10 -7.31778e-11 0 -1.159e-08 -7.50603e-09 0 -4.08393e-09 -2.92781e-09 0
          -3.25692e-08 -2.18321e-08 0 -1.07371e-08 -9.097e-09 0 -2.09561e-07 -1.23835e-07 0 -8.57265e-08 -4.06797e-08 0
          -2.78858e-07 -1.39429e-07 0 -1.39429e-07 -1.0824e-07 0 -2.90038e-07 -1.45019e-07 0 -1.45019e-07 -1.33839e-07 0
          -2.94863e-07 -1.47432e-07 0 -1.47432e-07 -1.42606e-07 0 -2.97216e-07 -1.48608e-07 0 -1.48608e-07 -1.46256e-07 0
          -2.98448e-07 -1.49224e-07 0 -1.49224e-07 -1.47992e-07 0 -2.99121e-07 -1.49561e-07 0 -1.49561e-07 -1.48887e-07 0
          -2.99498e-07 -1.49749e-07 0 -1.49749e-07 -1.49372e-07 0 -2.99712e-07 -1.49856e-07 0 -1.49856e-07 -1.49642e-07 0
          -2.99834e-07 -1.49917e-07 0 -1.49917e-07 -1.49795e-07 0 -2.99904e-07 -1.49952e-07 0 -1.49952e-07 -1.49882e-07 0
          -2.99945e-07 -1.49972e-07 0 -1.49972e-07 -1.49932e-07 0 -2.99968e-07 -1.49984e-07 0 -1.49984e-07 -1.49961e-07 0
          -2.99981e-07 -1.49991e-07 0 -1.49991e-07 -1.49977e-07 0 -2.99989e-07 -1.49995e-07 0 -1.49995e-07 -1.49987e-07 0
          -2.99994e-07 -1.49997e-07 0 -1.49997e-07 -1.49992e-07 0 -2.99996e-07 -1.49998e-07 0 -1.49998e-07 -1.49996e-07 0
          -2.99998e-07 -1.49999e-07 0 -1.49999e-07 -1.49997e-07 0 -2.99999e-07 -1.49999e-07 0 -1.49999e-07 -1.49999e-07 0
          -2.99999e-07 -1.5e-07 0 -1.5e-07 -1.49999e-07 0 -3e-07 -1.5e-07 0 -1.5e-07 -1.5e-07 0
          -3e-07 -1.5e-07 0 -1.5e-07 -1.5e-07 0 -3e-07 -1.5e-07 0 -1.5e-07 -1.5e-07 0
          -3e-07 -1.5e-07 0 -1.5e-07 -1.5e-07 0 -3e-07 -1.5e-07 0 -1.5e-07 -1.5e-07 0
          -3e-07 -1.5e-07 0 -1.5e-07 -1.5e-07 0 -3e-07 -1.5e-07 0 -1.5e-07 -1.5e-07 0
          -4.30033e-09 -3.21576e-09 0 -1.15775e-09 -4.08332e-10 0 -1.22775e-08 -8.45381e-09 0 -4.50312e-09 -4.45159e-09 0
          -3.08332e-08 -2.19956e-08 0 -1.04286e-08 -1.11407e-08 0 -1.99729e-07 -1.47461e-07 0 -7.11156e-08 -4.21053e-08 0
          -3.19217e-07 -1.44014e-07 0 -1.59609e-07 -1.35313e-07 0 -3.03095e-07 -1.45958e-07 0 -1.51547e-07 -1.36481e-07 0
          -3.00046e-07 -1.4761e-07 0 -1.50023e-07 -1.41892e-07 0 -2.99598e-07 -1.48623e-07 0 -1.49799e-07 -1.45421e-07 0
          -2.99651e-07 -1.49209e-07 0 -1.49826e-07 -1.47421e-07 0 -2.99764e-07 -1.49545e-07 0 -1.49882e-07 -1.48537e-07 0
          -2.99853e-07 -1.49738e-07 0 -1.49926e-07 -1.49164e-07 0 -2.99911e-07 -1.49849e-07 0 -1.49956e-07 -1.4952e-07 0
          -2.99948e-07 -1.49913e-07 0 -1.49974e-07 -1.49724e-07 0 -2.99969e-07 -1.4995e-07 0 -1.49985e-07 -1.49841e-07 0
          -2.99982e-07 -1.49971e-07 0 -1.49991e-07 -1.49908e-07 0 -2.9999e-07 -1.49983e-07 0 -1.49995e-07 -1.49947e-07 0
          -2.99994e-07 -1.4999e-07 0 -1.49997e-07 -1.49969e-07 0 -2.99997e-07 -1.49994e-07 0 -1.49998e-07 -1.49982e-07 0
          -2.99998e-07 -1.49997e-07 0 -1.49999e-07 -1.4999e-07 0 -2.99999e-07 -1.49998e-07 0 -1.49999e-07 -1.49994e-07 0
          -2.99999e-07 -1.49999e-07 0 -1.5e-07 -1.49997e-07 0 -3e-07 -1.49999e-07 0 -1.5e-07 -1.49998e-07 0
          -3e-07 -1.5e-07 0 -1.5e-07 -1.49999e-07 0 -3e-07 -1.5e-07 0 -1.5e-07 -1.49999e-07 0
          -3e-07 -1.5e-07 0 -1.5e-07 -1.5e-07 0 -3e-07 -1.5e-07 0 -1.5e-07 -1.5e-07 0
          -3e-07 -1.5e-07 0 -1.5e-07 -1.5e-07 0 -3e-07 -1.5e-07 0 -1.5e-07 -1.5e-07 0
          -3e-07 -1.5e-07 0 -1.5e-07 -1.5e-07 0 -3e-07 -1.5e-07 0 -1.5e-07 -1.5e-07 0
          -4.52885e-09 -3.73439e-09 0 -1.2028e-09 -4.56566e-10 0 -1.31406e-08 -9.51119e-09 0 -4.86527e-09 -5.2585e-09 0
          -3.39907e-08 -2.55444e-08 0 -1.11331e-08 -1.30388e-08 0 -2.30863e-07 -1.54044e-07 0 -9.69287e-08 -5.17258e-08 0
          -3.24479e-07 -1.50092e-07 0 -1.6224e-07 -1.45848e-07 0 -3.12674e-07 -1.48804e-07 0 -1.56337e-07 -1.43848e-07 0
          -3.05873e-07 -1.48872e-07 0 -1.52937e-07 -1.44671e-07 0 -3.02793e-07 -1.49207e-07 0 -1.51396e-07 -1.46347e-07 0
          -3.01399e-07 -1.49497e-07 0 -1.50699e-07 -1.47715e-07 0 -3.00734e-07 -1.49695e-07 0 -1.50367e-07 -1.48627e-07 0
          -3.00399e-07 -1.49819e-07 0 -1.502e-07 -1.4919e-07 0 -3.00222e-07 -1.49894e-07 0 -1.50111e-07 -1.49526e-07 0
          -3.00126e-07 -1.49938e-07 0 -1.50063e-07 -1.49724e-07 0 -3.00072e-07 -1.49964e-07 0 -1.50036e-07 -1.4984e-07 0
          -3.00041e-07 -1.49979e-07 0 -1.50021e-07 -1.49907e-07 0 -3.00024e-07 -1.49988e-07 0 -1.50012e-07 -1.49946e-07 0
          -3.00014e-07 -1.49993e-07 0 -1.50007e-07 -1.49969e-07 0 -3.00008e-07 -1.49996e-07 0 -1.50004e-07 -1.49982e-07 0
          -3.00005e-07 -1.49998e-07 0 -1.50002e-07 -1.4999e-07 0 -3.00003e-07 -1.49999e-07 0 -1.50001e-07 -1.49994e-07 0
          -3.00002e-07 -1.49999e-07 0 -1.50001e-07 -1.49997e-07 0 -3.00001e-07 -1.5e-07 0 -1.5e-07 -1.49998e-07 0
          -3.00001e-07 -1.5e-07 0 -1.5e-07 -1.49999e-07 0 -3e-07 -1.5e-07 0 -1.5e-07 -1.49999e-07 0
          -3e-07 -1.5e-07 0 -1.5e-07 -1.5e-07 0 -3e-07 -1.5e-07 0 -1.5e-07 -1.5e-07 0
          -3e-07 -1.5e-07 0 -1.5e-07 -1.5e-07 0 -3e-07 -1.5e-07 0 -1.5e-07 -1.5e-07 0
          -3e-07 -1.5e-07 0 -1.5e-07 -1.5e-07 0 -3e-07 -1.5e-07 0 -1.5e-07 -1.5e-07 0
          -4.58627e-09 -3.82626e-09 0 -1.21658e-09 -4.3676e-10 0 -1.3811e-08 -1.02417e-08 0 -5.09338e-09 -5.28295e-09 0
          -4.17745e-08 -3.2813e-08 0 -1.2489e-08 -1.39361e-08 0 -2.54836e-07 -1.58501e-07 0 -1.22517e-07 -5.78705e-08 0
          -3.24374e-07 -1.53991e-07 0 -1.62187e-07 -1.54815e-07 0 -3.15771e-07 -1.51641e-07 0 -1.57885e-07 -1.50096e-07 0
          -3.09432e-07 -1.50583e-07 0 -1.54716e-07 -1.48565e-07 0 -3.05407e-07 -1.50179e-07 0 -1.52704e-07 -1.48463e-07 0
          -3.03068e-07 -1.50042e-07 0 -1.51534e-07 -1.48824e-07 0 -3.01744e-07 -1.50001e-07 0 -1.50872e-07 -1.49212e-07 0
          -3.00996e-07 -1.49993e-07 0 -1.50498e-07 -1.49505e-07 0 -3.00571e-07 -1.49993e-07 0 -1.50286e-07 -1.497e-07 0
          -3.00329e-07 -1.49995e-07 0 -1.50164e-07 -1.49822e-07 0 -3.00189e-07 -1.49997e-07 0 -1.50095e-07 -1.49895e-07 0
          -3.00109e-07 -1.49998e-07 0 -1.50055e-07 -1.49939e-07 0 -3.00063e-07 -1.49999e-07 0 -1.50032e-07 -1.49964e-07 0
          -3.00037e-07 -1.49999e-07 0 -1.50018e-07 -1.49979e-07 0 -3.00021e-07 -1.5e-07 0 -1.50011e-07 -1.49988e-07 0
          -3.00012e-07 -1.5e-07 0 -1.50006e-07 -1.49993e-07 0 -3.00007e-07 -1.5e-07 0 -1.50004e-07 -1.49996e-07 0
          -3.00004e-07 -1.5e-07 0 -1.50002e-07 -1.49998e-07 0 -3.00002e-07 -1.5e-07 0 -1.50001e-07 -1.49999e-07 0
          -3.00001e-07 -1.5e-07 0 -1.50001e-07 -1.49999e-07 0 -3.00001e-07 -1.5e-07 0 -1.5e-07 -1.5e-07 0
          -3e-07 -1.5e-07 0 -1.5e-07 -1.5e-07 0 -3e-07 -1.5e-07 0 -1.5e-07 -1.5e-07 0
          -3e-07 -1.5e-07 0 -1.5e-07 -1.5e-07 0 -3e-07 -1.5e-07 0 -1.5e-07 -1.5e-07 0
          -3e-07 -1.5e-07 0 -1.5e-07 -1.5e-07 0 -3e-07 -1.5e-07 0 -1.5e-07 -1.5e-07 0
          -4.65661e-09 -3.82936e-09 0 -1.26401e-09 -3.5455e-10 0 -1.4902e-08 -1.07973e-08 0 -5.5614e-09 -4.86135e-09 0
          -5.50376e-08 -4.43217e-08 0 -1.44103e-08 -1.4109e-08 0 -2.65723e-07 -1.58413e-07 0 -1.32367e-07 -5.83901e-08 0
          -3.19089e-07 -1.55859e-07 0 -1.59544e-07 -1.57281e-07 0 -3.15088e-07 -1.5365e-07 0 -1.57544e-07 -1.54173e-07 0
          -3.10448e-07 -1.52149e-07 0 -1.55224e-07 -1.52075e-07 0 -3.06706e-07 -1.51233e-07 0 -1.53353e-07 -1.50944e-07 0
          -3.04115e-07 -1.50702e-07 0 -1.52057e-07 -1.50408e-07 0 -3.02461e-07 -1.50401e-07 0 -1.51231e-07 -1.50174e-07 0
          -3.01451e-07 -1.50229e-07 0 -1.50726e-07 -1.50075e-07 0 -3.00849e-07 -1.50132e-07 0 -1.50424e-07 -1.50034e-07 0
          -3.00494e-07 -1.50076e-07 0 -1.50247e-07 -1.50016e-07 0 -3.00287e-07 -1.50044e-07 0 -1.50144e-07 -1.50008e-07 0
          -3.00166e-07 -1.50025e-07 0 -1.50083e-07 -1.50004e-07 0 -3.00096e-07 -1.50015e-07 0 -1.50048e-07 -1.50002e-07 0
          -3.00056e-07 -1.50008e-07 0 -1.50028e-07 -1.50001e-07 0 -3.00032e-07 -1.50005e-07 0 -1.50016e-07 -1.50001e-07 0
          -3.00019e-07 -1.50003e-07 0 -1.50009e-07 -1.5e-07 0 -3.00011e-07 -1.50002e-07 0 -1.50005e-07 -1.5e-07 0
          -3.00006e-07 -1.50001e-07 0 -1.50003e-07 -1.5e-07 0 -3.00004e-07 -1.50001e-07 0 -1.50002e-07 -1.5e-07 0
          -3.00002e-07 -1.5e-07 0 -1.50001e-07 -1.5e-07 0 -3.00001e-07 -1.5e-07 0 -1.50001e-07 -1.5e-07 0
          -3.00001e-07 -1.5e-07 0 -1.5e-07 -1.5e-07 0 -3e-07 -1.5e-07 0 -1.5e-07 -1.5e-07 0
          -3e-07 -1.5e-07 0 -1.5e-07 -1.5e-07 0 -3e-07 -1.5e-07 0 -1.5e-07 -1.5e-07 0
          -3e-07 -1.5e-07 0 -1.5e-07 -1.5e-07 0 -3e-07 -1.5e-07 0 -1.5e-07 -1.5e-07 0
          -5.92092e-09 -4.42205e-09 0 -1.85342e-09 0 0 -1.89512e-08 -1.24976e-08 0 -7.48555e-09 -4.42205e-09 0
          -8.67981e-08 -6.83212e-08 0 -2.17885e-08 -1.24976e-08 0 -2.87321e-07 -1.57746e-07 0 -1.43643e-07 -6.83212e-08 0
          -3.15493e-07 -1.56615e-07 0 -1.57746e-07 -1.57746e-07 0 -3.1323e-07 -1.54929e-07 0 -1.56615e-07 -1.56615e-07 0
          -3.09859e-07 -1.53355e-07 0 -1.54929e-07 -1.54929e-07 0 -3.0671e-07 -1.5215e-07 0 -1.53355e-07 -1.53355e-07 0
          -3.04301e-07 -1.51326e-07 0 -1.5215e-07 -1.5215e-07 0 -3.02652e-07 -1.50797e-07 0 -1.51326e-07 -1.51326e-07 0
          -3.01595e-07 -1.50472e-07 0 -1.50797e-07 -1.50797e-07 0 -3.00945e-07 -1.50277e-07 0 -1.50472e-07 -1.50472e-07 0
          -3.00554e-07 -1.50162e-07 0 -1.50277e-07 -1.50277e-07 0 -3.00324e-07 -1.50094e-07 0 -1.50162e-07 -1.50162e-07 0
          -3.00188e-07 -1.50055e-07 0 -1.50094e-07 -1.50094e-07 0 -3.00109e-07 -1.50032e-07 0 -1.50055e-07 -1.50055e-07 0
          -3.00063e-07 -1.50018e-07 0 -1.50032e-07 -1.50032e-07 0 -3.00037e-07 -1.50011e-07 0 -1.50018e-07 -1.50018e-07 0
          -3.00021e-07 -1.50006e-07 0 -1.50011e-07 -1.50011e-07 0 -3.00012e-07 -1.50004e-07 0 -1.50006e-07 -1.50006e-07 0
          -3.00007e-07 -1.50002e-07 0 -1.50004e-07 -1.50004e-07 0 -3.00004e-07 -1.50001e-07 0 -1.50002e-07 -1.50002e-07 0
          -3.00002e-07 -1.50001e-07 0 -1.50001e-07 -1.50001e-07 0 -3.00001e-07 -1.5e-07 0 -1.50001e-07 -1.50001e-07 0
          -3.00001e-07 -1.5e-07 0 -1.5e-07 -1.5e-07 0 -3e-07 -1.5e-07 0 -1.5e-07 -1.5e-07 0
          -3e-07 -1.5e-07 0 -1.5e-07 -1.5e-07 0 -3e-07 -1.5e-07 0 -1.5e-07 -1.5e-07 0
          -3e-07 -1.5e-07 0 -1.5e-07 -1.5e-07 0 -3e-07 -1.5e-07 0 -1.5e-07 -1.5e-07 0
        </DataArray>
      </CellData>
      <Points>
        <DataArray type="Float32" Name="Coordinates" NumberOfComponents="3" format="ascii">
          0 0 0 10 0 0 10 10 0 0 10 0
          20 0 0 20 10 0 30 0 0 30 10 0
          40 0 0 40 10 0 50 0 0 50 10 0
          60 0 0 60 10 0 70 0 0 70 10 0
          80 0 0 80 10 0 90 0 0 90 10 0
          100 0 0 100 10 0 110 0 0 110 10 0
          120 0 0 120 10 0 130 0 0 130 10 0
          140 0 0 140 10 0 150 0 0 150 10 0
          160 0 0 160 10 0 170 0 0 170 10 0
          180 0 0 180 10 0 190 0 0 190 10 0
          200 0 0 200 10 0 210 0 0 210 10 0
          220 0 0 220 10 0 230 0 0 230 10 0
          240 0 0 240 10 0 250 0 0 250 10 0
          260 0 0 260 10 0 270 0 0 270 10 0
          280 0 0 280 10 0 290 0 0 290 10 0
          300 0 0 300 10 0 10 20 0 0 20 0
          20 20 0 30 20 0 40 20 0 50 20 0
          60 20 0 70 20 0 80 20 0 90 20 0
          100 20 0 110 20 0 120 20 0 130 20 0
          140 20 0 150 20 0 160 20 0 170 20 0
          180 20 0 190 20 0 200 20 0 210 20 0
          220 20 0 230 20 0 240 20 0 250 20 0
          260 20 0 270 20 0 280 20 0 290 20 0
          300 20 0 10 30 0 0 30 0 20 30 0
          30 30 0 40 30 0 50 30 0 60 30 0
          70 30 0 80 30 0 90 30 0 100 30 0
          110 30 0 120 30 0 130 30 0 140 30 0
          150 30 0 160 30 0 170 30 0 180 30 0
          190 30 0 200 30 0 210 30 0 220 30 0
          230 30 0 240 30 0 250 30 0 260 30 0
          270 30 0 280 30 0 290 30 0 300 30 0
          10 40 0 0 40 0 20 40 0 30 40 0
          40 40 0 50 40 0 60 40 0 70 40 0
          80 40 0 90 40 0 100 40 0 110 40 0
          120 40 0 130 40 0 140 40 0 150 40 0
          160 40 0 170 40 0 180 40 0 190 40 0
          200 40 0 210 40 0 220 40 0 230 40 0
          240 40 0 250 40 0 260 40 0 270 40 0
          280 40 0 290 40 0 300 40 0 10 50 0
          0 50 0 20 50 0 30 50 0 40 50 0
          50 50 0 60 50 0 70 50 0 80 50 0
          90 50 0 100 50 0 110 50 0 120 50 0
          130 50 0 140 50 0 150 50 0 160 50 0
          170 50 0 180 50 0 190 50 0 200 50 0
          210 50 0 220 50 0 230 50 0 240 50 0
          250 50 0 260 50 0 270 50 0 280 50 0
          290 50 0 300 50 0 10 60 0 0 60 0
          20 60 0 30 60 0 40 60 0 50 60 0
          60 60 0 70 60 0 80 60 0 90 60 0
          100 60 0 110 60 0 120 60 0 130 60 0
          140 60 0 150 60 0 160 60 0 170 60 0
          180 60 0 190 60 0 200 60 0 210 60 0
          220 60 0 230 60 0 240 60 0 250 60 0
          260 60 0 270 60 0 280 60 0 290 60 0
          300 60 0
        </DataArray>
      </Points>
      <Cells>
        <DataArray type="Int32" Name="connectivity" NumberOfComponents="1" format="ascii">
          0 1 2 3 0 2 1 4 5 2 1 5
          4 6 7 5 4 7 6 8 9 7 6 9
          8 10 11 9 8 11 10 12 13 11 10 13
          12 14 15 13 12 15 14 16 17 15 14 17
          16 18 19 17 16 19 18 20 21 19 18 21
          20 22 23 21 20 23 22 24 25 23 22 25
          24 26 27 25 24 27 26 28 29 27 26 29
          28 30 31 29 28 31 30 32 33 31 30 33
          32 34 35 33 32 35 34 36 37 35 34 37
          36 38 39 37 36 39 38 40 41 39 38 41
          40 42 43 41 40 43 42 44 45 43 42 45
          44 46 47 45 44 47 46 48 49 47 46 49
          48 50 51 49 48 51 50 52 53 51 50 53
          52 54 55 53 52 55 54 56 57 55 54 57
          56 58 59 57 56 59 58 60 61 59 58 61
          3 2 62 63 3 62 2 5 64 62 2 64
          5 7 65 64 5 65 7 9 66 65 7 66
          9 11 67 66 9 67 11 13 68 67 11 68
          13 15 69 68 13 69 15 17 70 69 15 70
          17 19 71 70 17 71 19 21 72 71 19 72
          21 23 73 72 21 73 23 25 74 73 23 74
          25 27 75 74 25 75 27 29 76 75 27 76
          29 31 77 76 29 77 31 33 78 77 31 78
          33 35 79 78 33 79 35 37 80 79 35 80
          37 39 81 80 37 81 39 41 82 81 39 82
          41 43 83 82 41 83 43 45 84 83 43 84
          45 47 85 84 45 85 47 49 86 85 47 86
          49 51 87 86 49 87 51 53 88 87 51 88
          53 55 89 88 53 89 55 57 90 89 55 90
          57 59 91 90 57 91 59 61 92 91 59 92