<?xml version="1.0"?>
<VTKFile type="UnstructuredGrid" version="0.1" byte_order="LittleEndian">
  <UnstructuredGrid>
    <Piece NumberOfCells="560" NumberOfPoints="615">
      <CellData Scalars="wetting pressure" Vectors="wetting-velocity">
        <DataArray type="Float32" Name="wetting pressure" NumberOfComponents="1" format="ascii">
          199999 199999 199999 199999 199999 199999 199999 199999 199999 199999 199999 199999
          199999 199999 199999 199999 200000 199999 199999 200000 200000 199999 199999 200000
          200000 199999 199999 200000 200000 199999 199999 200000 200000 199999 199999 200000
          200000 199999 199999 200000 200000 199999 199999 200000 200000 199999 199999 200000
          200000 200000 200000 200000 200000 200000 200000 200000 200000 200000 200000 200000
          200000 200000 200000 200000 200000 200000 200000 200000 200000 200000 200000 200000
          200000 200000 200000 200000 200000 200000 200000 200000 200000 200000 200000 200000
          200000 200000 200000 200000 200000 200000 200000 200000 200000 200000 200000 200000
          200000 200000 200000 200000 200000 200000 200000 200000 200000 200000 200000 200000
          200000 200000 200000 200000 200000 200000 200000 200000 200000 200000 200000 200000
          200000 200000 200000 200000 200000 200000 200000 200000 200000 200000 200000 200000
          200000 200000 200000 200000 200000 200000 200000 200000 200000 200000 200000 200000
          200000 200000 200000 200000 200000 200000 200000 200000 200000 200000 200000 200000
          200000 200000 200000 200000 200000 200000 200000 200000 200000 200000 200000 200000
          200000 200000 200000 200000 200000 200000 200000 200000 200000 200000 200000 200000
          200000 200000 200000 200000 200000 200000 200000 200000 200000 200000 200000 200000
          200000 200000 200000 200000 200000 200000 200000 200000 200000 200000 200000 200000
          200000 200000 200000 200000 200000 200000 200000 200000 200000 200000 200000 200000
          200000 200000 200000 200000 200000 200000 200000 200000 200000 200000 200000 200000
          200000 200000 200000 200000 200000 200000 200000 200000 200000 200000 200000 200000
          200000 200000 200000 200000 200000 200000 200000 200000 200000 200000 200000 200000
          200000 200000 200000 200000 200000 200000 200000 200000 200000 200000 200000 200000
          200000 200000 200000 200000 200000 200000 200000 200000 200000 200000 200000 200000
          200000 200000 200000 200000 200000 200000 200000 200000 200000 200000 200000 200000
          200000 200000 200000 200000 200000 200000 200000 200000 200000 200000 200000 200000
          200000 200000 200000 200000 200000 200000 200000 200000 200000 200000 200000 200000
          200000 200000 200000 200000 200000 200000 200000 200000 200000 200000 200000 200000
          200000 200000 200000 200000 200000 200000 200000 200000 200000 200000 200000 200000
          200000 200000 200000 200000 200000 200000 200000 200000 200000 200000 200000 200000
          200000 200000 200000 200000 200000 200000 200000 200000 200000 200000 200000 200000
          200000 200000 200000 200000 200000 200000 200000 200000 200000 200000 200000 200000
          200000 200000 200000 200000 200000 200000 200000 200000 200000 200000 200000 200000
          200000 200000 200000 200000 200000 200000 200000 200000 200000 200000 200000 200000
          200000 200000 200000 200000 200000 200000 200000 200000 200000 200000 200000 200000
          200000 200000 200000 200000 200000 200000 200000 200000 200000 200000 200000 200000
          200000 200000 200000 200000 200000 200000 200000 200000 200000 200000 200000 200000
          200000 200000 200000 200000 200000 200000 200000 200000 200000 200000 200000 200000
          200000 200000 200000 200000 200000 200000 200000 200000 200000 200000 200000 200000
          200000 200000 200000 200000 200000 200000 200000 200000 200000 200000 200000 200000
          200000 200000 200000 200000 200000 200000 200000 200000 200000 200000 200000 200000
          200000 200000 200000 200000 200000 200000 200000 200000 200000 200000 200000 200000
          200000 200000 200000 200000 200000 200000 200000 200000 200000 200000 200000 200000
          200000 200000 200000 200000 200000 200000 200000 200000 200000 200000 200000 200000
          200000 200000 200000 200000 200000 200000 200000 200000 200000 200000 200000 200000
          200000 200000 200000 200000 200000 200000 200000 200000 200000 200000 200000 200000
          200000 200000 200000 200000 200000 200000 200000 200000 200000 200000 200000 200000
          200000 200000 200000 200000 200000 200000 200000 200000
        </DataArray>
        <DataArray type="Float32" Name="nonwetting pressure" NumberOfComponents="1" format="ascii">
          199999 199999 199999 199999 199999 199999 199999 199999 199999 199999 199999 199999
          199999 199999 199999 199999 200000 199999 199999 200000 200000 199999 199999 200000
          200000 199999 199999 200000 200000 199999 199999 200000 200000 199999 199999 200000
          200000 199999 199999 200000 200000 199999 199999 200000 200000 199999 199999 200000
          200000 200000 200000 200000 200000 200000 200000 200000 200000 200000 200000 200000
          200000 200000 200000 200000 200000 200000 200000 200000 200000 200000 200000 200000
          200000 200000 200000 200000 200000 200000 200000 200000 200000 200000 200000 200000
          200000 200000 200000 200000 200000 200000 200000 200000 200000 200000 200000 200000
          200000 200000 200000 200000 200000 200000 200000 200000 200000 200000 200000 200000
          200000 200000 200000 200000 200000 200000 200000 200000 200000 200000 200000 200000
          200000 200000 200000 200000 200000 200000 200000 200000 200000 200000 200000 200000
          200000 200000 200000 200000 200000 200000 200000 200000 200000 200000 200000 200000
          200000 200000 200000 200000 200000 200000 200000 200000 200000 200000 200000 200000
          200000 200000 200000 200000 200000 200000 200000 200000 200000 200000 200000 200000
          200000 200000 200000 200000 200000 200000 200000 200000 200000 200000 200000 200000
          200000 200000 200000 200000 200000 200000 200000 200000 200000 200000 200000 200000
          200000 200000 200000 200000 200000 200000 200000 200000 200000 200000 200000 200000
          200000 200000 200000 200000 200000 200000 200000 200000 200000 200000 200000 200000
          200000 200000 200000 200000 200000 200000 200000 200000 200000 200000 200000 200000
          200000 200000 200000 200000 200000 200000 200000 200000 200000 200000 200000 200000
          200000 200000 200000 200000 200000 200000 200000 200000 200000 200000 200000 200000
          200000 200000 200000 200000 200000 200000 200000 200000 200000 200000 200000 200000
          200000 200000 200000 200000 200000 200000 200000 200000 200000 200000 200000 200000
          200000 200000 200000 200000 200000 200000 200000 200000 200000 200000 200000 200000
          200000 200000 200000 200000 200000 200000 200000 200000 200000 200000 200000 200000
          200000 200000 200000 200000 200000 200000 200000 200000 200000 200000 200000 200000
          200000 200000 200000 200000 200000 200000 200000 200000 200000 200000 200000 200000
          200000 200000 200000 200000 200000 200000 200000 200000 200000 200000 200000 200000
          200000 200000 200000 200000 200000 200000 200000 200000 200000 200000 200000 200000
          200000 200000 200000 200000 200000 200000 200000 200000 200000 200000 200000 200000
          200000 200000 200000 200000 200000 200000 200000 200000 200000 200000 200000 200000
          200000 200000 200000 200000 200000 200000 200000 200000 200000 200000 200000 200000
          200000 200000 200000 200000 200000 200000 200000 200000 200000 200000 200000 200000
          200000 200000 200000 200000 200000 200000 200000 200000 200000 200000 200000 200000
          200000 200000 200000 200000 200000 200000 200000 200000 200000 200000 200000 200000
          200000 200000 200000 200000 200000 200000 200000 200000 200000 200000 200000 200000
          200000 200000 200000 200000 200000 200000 200000 200000 200000 200000 200000 200000
          200000 200000 200000 200000 200000 200000 200000 200000 200000 200000 200000 200000
          200000 200000 200000 200000 200000 200000 200000 200000 200000 200000 200000 200000
          200000 200000 200000 200000 200000 200000 200000 200000 200000 200000 200000 200000
          200000 200000 200000 200000 200000 200000 200000 200000 200000 200000 200000 200000
          200000 200000 200000 200000 200000 200000 200000 200000 200000 200000 200000 200000
          200000 200000 200000 200000 200000 200000 200000 200000 200000 200000 200000 200000
          200000 200000 200000 200000 200000 200000 200000 200000 200000 200000 200000 200000
          200000 200000 200000 200000 200000 200000 200000 200000 200000 200000 200000 200000
          200000 200000 200000 200000 200000 200000 200000 200000 200000 200000 200000 200000
          200000 200000 200000 200000 200000 200000 200000 200000
        </DataArray>
        <DataArray type="Float32" Name="capillary pressure" NumberOfComponents="1" format="ascii">
          0 0 0 0 0 0 0 0 0 0 0 0
          0 0 0 0 0 0 0 0 0 0 0 0
          0 0 0 0 0 0 0 0 0 0 0 0
          0 0 0 0 0 0 0 0 0 0 0 0
          0 0 0 0 0 0 0 0 0 0 0 0
          0 0 0 0 0 0 0 0 0 0 0 0
          0 0 0 0 0 0 0 0 0 0 0 0
          0 0 0 0 0 0 0 0 0 0 0 0
          0 0 0 0 0 0 0 0 0 0 0 0
          0 0 0 0 0 0 0 0 0 0 0 0
          0 0 0 0 0 0 0 0 0 0 0 0
          0 0 0 0 0 0 0 0 0 0 0 0
          0 0 0 0 0 0 0 0 0 0 0 0
          0 0 0 0 0 0 0 0 0 0 0 0
          0 0 0 0 0 0 0 0 0 0 0 0
          0 0 0 0 0 0 0 0 0 0 0 0
          0 0 0 0 0 0 0 0 0 0 0 0
          0 0 0 0 0 0 0 0 0 0 0 0
          0 0 0 0 0 0 0 0 0 0 0 0
          0 0 0 0 0 0 0 0 0 0 0 0
          0 0 0 0 0 0 0 0 0 0 0 0
          0 0 0 0 0 0 0 0 0 0 0 0
          0 0 0 0 0 0 0 0 0 0 0 0
          0 0 0 0 0 0 0 0 0 0 0 0
          0 0 0 0 0 0 0 0 0 0 0 0
          0 0 0 0 0 0 0 0 0 0 0 0
          0 0 0 0 0 0 0 0 0 0 0 0
          0 0 0 0 0 0 0 0 0 0 0 0
          0 0 0 0 0 0 0 0 0 0 0 0
          0 0 0 0 0 0 0 0 0 0 0 0
          0 0 0 0 0 0 0 0 0 0 0 0
          0 0 0 0 0 0 0 0 0 0 0 0
          0 0 0 0 0 0 0 0 0 0 0 0
          0 0 0 0 0 0 0 0 0 0 0 0
          0 0 0 0 0 0 0 0 0 0 0 0
          0 0 0 0 0 0 0 0 0 0 0 0
          0 0 0 0 0 0 0 0 0 0 0 0
          0 0 0 0 0 0 0 0 0 0 0 0
          0 0 0 0 0 0 0 0 0 0 0 0
          0 0 0 0 0 0 0 0 0 0 0 0
          0 0 0 0 0 0 0 0 0 0 0 0
          0 0 0 0 0 0 0 0 0 0 0 0
          0 0 0 0 0 0 0 0 0 0 0 0
          0 0 0 0 0 0 0 0 0 0 0 0
          0 0 0 0 0 0 0 0 0 0 0 0
          0 0 0 0 0 0 0 0 0 0 0 0
          0 0 0 0 0 0 0 0
        </DataArray>
        <DataArray type="Float32" Name="wetting-velocity" NumberOfComponents="3" format="ascii">
          0 0 0 0 0 0 0 0 0 0 0 0
          0 0 0 0 0 0 0 0 0 0 0 0
          0 0 0 0 0 0 0 0 0 0 0 0
          0 0 0 0 0 0 0 0 0 0 0 0
          0 0 0 0 0 0 0 0 0 0 0 0
          0 0 0 0 0 0 0 0 0 0 0 0
          0 0 0 0 0 0 0 0 0 0 0 0
          0 0 0 0 0 0 0 0 0 0 0 0
          0 0 0 0 0 0 0 0 0 0 0 0
          0 0 0 0 0 0 0 0 0 0 0 0
          0 0 0 0 0 0 0 0 0 0 0 0
          0 0 0 0 0 0 0 0 0 0 0 0
          2.99962e-07 -7.67119e-15 0 2.99315e-07 1.06871e-14 0 2.99314e-07 1.67528e-14 0 2.99962e-07 -1.45753e-14 0
          2.99962e-07 -1.9178e-15 0 2.99314e-07 -2.88841e-16 0 2.99314e-07 -1.8197e-14 0 2.99962e-07 1.38081e-14 0
          2.99962e-07 2.30136e-15 0 2.99315e-07 -6.93218e-15 0 2.99314e-07 7.22102e-15 0 2.99962e-07 -5.36984e-15 0
          2.99962e-07 7.67119e-16 0 2.99314e-07 5.77681e-16 0 2.99314e-07 5.77681e-16 0 2.99962e-07 0 0
          2.99962e-07 1.53424e-15 0 2.99314e-07 2.59957e-15 0 2.99314e-07 5.77681e-15 0 2.99962e-07 3.8356e-16 0
          2.99962e-07 -1.9178e-15 0 2.99314e-07 5.48797e-15 0 2.99314e-07 7.7987e-15 0 2.99962e-07 -7.28763e-15 0
          2.99962e-07 -1.9178e-15 0 2.99314e-07 2.59957e-15 0 2.99314e-07 -2.59957e-15 0 2.99962e-07 7.67119e-16 0
          2.99962e-07 4.60272e-15 0 2.99314e-07 -8.37638e-15 0 2.99314e-07 -7.7987e-15 0 2.99962e-07 7.67119e-15 0
          2.99962e-07 1.15068e-15 0 2.99314e-07 -1.93421e-22 0 2.99314e-07 3.46609e-15 0 2.99962e-07 -6.13695e-15 0
          2.99962e-07 -1.53424e-15 0 2.99314e-07 5.77681e-16 0 2.99315e-07 -2.88841e-15 0 2.99962e-07 1.53424e-15 0
          2.99962e-07 -1.9178e-15 0 2.99314e-07 -8.66522e-16 0 2.99314e-07 -4.91029e-15 0 2.99962e-07 4.21916e-15 0
          2.99962e-07 -4.98628e-15 0 2.99314e-07 8.95406e-15 0 2.99314e-07 3.75493e-15 0 2.99962e-07 -3.8356e-16 0
          2.99962e-07 6.13695e-15 0 2.99314e-07 -1.32867e-14 0 2.99314e-07 -1.4442e-15 0 2.99962e-07 -1.9178e-15 0
          2.99962e-07 7.67119e-16 0 2.99314e-07 8.66521e-16 0 2.99314e-07 -4.33261e-15 0 2.99962e-07 -1.9178e-15 0
          2.99962e-07 -3.06848e-15 0 2.99314e-07 -1.72039e-23 0 2.99314e-07 -1.12648e-14 0 2.99962e-07 8.82187e-15 0
          2.99962e-07 -4.98627e-15 0 2.99315e-07 8.95406e-15 0 2.99314e-07 1.96412e-14 0 2.99962e-07 -1.22739e-14 0
          2.97936e-07 1.77617e-15 0 2.96285e-07 3.22704e-15 0 2.96285e-07 2.76604e-15 0 2.97936e-07 6.08971e-15 0
          2.97936e-07 3.04486e-15 0 2.96285e-07 -2.07453e-15 0 2.96285e-07 2.30503e-16 0 2.97936e-07 -2.0299e-15 0
          2.97936e-07 7.61214e-16 0 2.96285e-07 3.91855e-15 0 2.96285e-07 9.22013e-16 0 2.97936e-07 3.04486e-15 0
          2.97936e-07 2.53738e-16 0 2.96285e-07 2.30503e-16 0 2.96285e-07 -2.30503e-16 0 2.97936e-07 -2.79112e-15 0
          2.97936e-07 0 0 2.96285e-07 -4.61006e-16 0 2.96285e-07 3.45755e-15 0 2.97936e-07 2.79112e-15 0
          2.97936e-07 6.59719e-15 0 2.96285e-07 4.61006e-16 0 2.96285e-07 3.22704e-15 0 2.97936e-07 4.31354e-15 0
          2.97936e-07 -5.07476e-16 0 2.96285e-07 3.45755e-15 0 2.96285e-07 -2.99654e-15 0 2.97936e-07 -2.53738e-16 0
          2.97936e-07 -1.26869e-15 0 2.96285e-07 -2.30503e-16 0 2.96285e-07 -2.07453e-15 0 2.97936e-07 -2.79112e-15 0
          2.97936e-07 -1.26869e-15 0 2.96285e-07 -3.68805e-15 0 2.96285e-07 2.99654e-15 0 2.97936e-07 1.05916e-22 0
          2.97936e-07 -3.04486e-15 0 2.96285e-07 2.76604e-15 0 2.96285e-07 -3.22704e-15 0 2.97936e-07 3.04486e-15 0
          2.97936e-07 3.04486e-15 0 2.96285e-07 1.15252e-15 0 2.96285e-07 3.45755e-15 0 2.97936e-07 -1.52243e-15 0
          2.97936e-07 1.77617e-15 0 2.96285e-07 -9.22013e-16 0 2.96285e-07 -1.84403e-15 0 2.97936e-07 -1.26869e-15 0
          2.97936e-07 -2.0299e-15 0 2.96285e-07 -3.45755e-15 0 2.96285e-07 -6.91509e-16 0 2.97936e-07 -2.0299e-15 0
          2.97936e-07 -6.59719e-15 0 2.96285e-07 -2.01638e-23 0 2.96285e-07 -1.15252e-15 0 2.97936e-07 5.07476e-16 0
          2.97936e-07 1.77617e-15 0 2.96285e-07 -1.84403e-15 0 2.96285e-07 6.91509e-16 0 2.97936e-07 -1.52243e-15 0
          2.97936e-07 3.29859e-15 0 2.96285e-07 1.84403e-15 0 2.96285e-07 -1.15252e-15 0 2.97936e-07 2.0299e-15 0
          2.94419e-07 2.55466e-15 0 2.92351e-07 -1.7869e-15 0 2.92351e-07 -3.97089e-16 0 2.94419e-07 8.51552e-16 0
          2.94419e-07 8.51552e-16 0 2.92351e-07 1.98545e-16 0 2.92351e-07 0 0 2.94419e-07 4.25776e-16 0
          2.94419e-07 -2.12888e-15 0 2.92351e-07 5.95634e-16 0 2.92351e-07 -2.97817e-15 0 2.94419e-07 1.91599e-15 0
          2.94419e-07 1.06444e-15 0 2.92351e-07 -1.58836e-15 0 2.92351e-07 3.77235e-15 0 2.94419e-07 -2.12888e-16 0
          2.94419e-07 2.12888e-15 0 2.92351e-07 7.94179e-16 0 2.92351e-07 1.58836e-15 0 2.94419e-07 -2.12888e-16 0
          2.94419e-07 2.55466e-15 0 2.92351e-07 1.7869e-15 0 2.92351e-07 -2.18399e-15 0 2.94419e-07 1.91599e-15 0
          2.94419e-07 -2.98043e-15 0 2.92351e-07 -1.58836e-15 0 2.92351e-07 -9.92723e-16 0 2.94419e-07 -2.12888e-16 0
          2.94419e-07 8.51552e-16 0 2.92351e-07 1.98545e-16 0 2.92351e-07 -9.92723e-16 0 2.94419e-07 -6.38664e-16 0
          2.94419e-07 -6.38664e-16 0 2.92351e-07 -1.19127e-15 0 2.92351e-07 7.94179e-16 0 2.94419e-07 1.91599e-15 0
          2.94419e-07 4.25776e-16 0 2.92351e-07 1.38981e-15 0 2.92351e-07 1.7869e-15 0 2.94419e-07 -6.38664e-16 0
          2.94419e-07 6.38664e-16 0 2.92351e-07 2.58108e-15 0 2.92351e-07 -1.38981e-15 0 2.94419e-07 1.7031e-15 0
          2.94419e-07 -4.25776e-16 0 2.92351e-07 -5.95634e-16 0 2.92351e-07 -1.19127e-15 0 2.94419e-07 -2.55466e-15 0
          2.94419e-07 -2.12888e-16 0 2.92351e-07 -1.7869e-15 0 2.92351e-07 2.97817e-15 0 2.94419e-07 -6.38664e-16 0
          2.94419e-07 1.27733e-15 0 2.92351e-07 5.95634e-16 0 2.92351e-07 -9.92723e-16 0 2.94419e-07 -1.49022e-15 0
          2.94419e-07 -3.61909e-15 0 2.92351e-07 1.7869e-15 0 2.92351e-07 -1.49067e-22 0 2.94419e-07 1.06444e-15 0
          2.94419e-07 1.49022e-15 0 2.92351e-07 -4.56653e-15 0 2.92351e-07 -2.97817e-15 0 2.94419e-07 6.38664e-16 0
          2.90072e-07 9.31399e-16 0 2.87547e-07 1.7535e-16 0 2.87547e-07 -1.0521e-15 0 2.90072e-07 5.58839e-16 0
          2.90072e-07 1.8628e-16 0 2.87547e-07 -1.7535e-15 0 2.87547e-07 -2.8056e-15 0 2.90072e-07 1.67652e-15 0
          2.90072e-07 -1.8628e-16 0 2.87547e-07 -1.22745e-15 0 2.87547e-07 1.92885e-15 0 2.90072e-07 -1.8628e-15 0
          2.90072e-07 1.8628e-16 0 2.87547e-07 2.98095e-15 0 2.87547e-07 2.63025e-15 0 2.90072e-07 -5.58839e-16 0
          2.90072e-07 2.04908e-15 0 2.87547e-07 3.507e-16 0 2.87547e-07 -1.0521e-15 0 2.90072e-07 1.49024e-15 0
          2.90072e-07 -1.67652e-15 0 2.87547e-07 -1.0521e-15 0 2.87547e-07 -5.26049e-16 0 2.90072e-07 1.11768e-15 0
          2.90072e-07 1.67652e-15 0 2.87547e-07 -1.22745e-15 0 2.87547e-07 0 0 2.90072e-07 -2.42164e-15 0
          2.90072e-07 -3.35304e-15 0 2.87547e-07 1.22745e-15 0 2.87547e-07 -8.76749e-16 0 2.90072e-07 1.67652e-15 0
          2.90072e-07 2.23536e-15 0 2.87547e-07 1.7535e-16 0 2.87547e-07 -5.26049e-16 0 2.90072e-07 -1.11768e-15 0
          2.90072e-07 -1.8628e-15 0 2.87547e-07 -8.76749e-16 0 2.87547e-07 7.01399e-16 0 2.90072e-07 -1.8628e-16 0
          2.90072e-07 1.30396e-15 0 2.87547e-07 -8.76749e-16 0 2.87547e-07 7.01399e-16 0 2.90072e-07 1.30396e-15 0
          2.90072e-07 -3.7256e-16 0 2.87547e-07 1.7535e-16 0 2.87547e-07 -3.507e-16 0 2.90072e-07 9.31399e-16 0
          2.90072e-07 1.8628e-15 0 2.87547e-07 2.65422e-23 0 2.87547e-07 -1.22745e-15 0 2.90072e-07 -2.42164e-15 0
          2.90072e-07 -1.67652e-15 0 2.87547e-07 0 0 2.87547e-07 3.507e-16 0 2.90072e-07 2.60792e-15 0
          2.90072e-07 -9.31399e-16 0 2.87547e-07 1.22745e-15 0 2.87547e-07 1.7535e-16 0 2.90072e-07 -1.67652e-15 0
          2.90072e-07 1.67652e-15 0 2.87547e-07 1.0521e-15 0 2.87547e-07 2.27955e-15 0 2.90072e-07 9.31399e-16 0
          2.84697e-07 -6.60704e-16 0 2.8135e-07 6.20559e-16 0 2.8135e-07 1.24112e-15 0 2.84697e-07 -1.65176e-16 0
          2.84697e-07 6.60704e-16 0 2.8135e-07 4.65419e-16 0 2.8135e-07 0 0 2.84697e-07 -9.91055e-16 0
          2.84697e-07 -1.48658e-15 0 2.8135e-07 3.36895e-24 0 2.8135e-07 1.5514e-16 0 2.84697e-07 3.30352e-16 0
          2.84697e-07 1.15623e-15 0 2.8135e-07 -1.24112e-15 0 2.8135e-07 -1.08598e-15 0 2.84697e-07 4.95528e-16 0
          2.84697e-07 -8.25879e-16 0 2.8135e-07 1.25628e-25 0 2.8135e-07 0 0 2.84697e-07 1.48658e-15 0
          2.84697e-07 1.48658e-15 0 2.8135e-07 7.75698e-16 0 2.8135e-07 1.24112e-15 0 2.84697e-07 -2.31246e-15 0
          2.84697e-07 -6.60703e-16 0 2.8135e-07 -7.75698e-16 0 2.8135e-07 -1.5514e-15 0 2.84697e-07 1.65176e-16 0
          2.84697e-07 -1.32141e-15 0 2.8135e-07 6.20559e-16 0 2.8135e-07 7.75698e-16 0 2.84697e-07 6.60704e-16 0
          2.84697e-07 4.95528e-16 0 2.8135e-07 -6.20559e-16 0 2.8135e-07 -1.39626e-15 0 2.84697e-07 -1.65176e-16 0
          2.84697e-07 4.95528e-16 0 2.8135e-07 -6.20559e-16 0 2.8135e-07 0 0 2.84697e-07 -2.14729e-15 0
          2.84697e-07 -1.15623e-15 0 2.8135e-07 -7.75698e-16 0 2.8135e-07 -4.65419e-16 0 2.84697e-07 6.60704e-16 0
          2.84697e-07 1.65176e-16 0 2.8135e-07 4.65419e-16 0 2.8135e-07 6.20559e-16 0 2.84697e-07 -6.60703e-16 0
          2.84697e-07 4.95528e-16 0 2.8135e-07 -9.30838e-16 0 2.8135e-07 -3.10279e-16 0 2.84697e-07 -1.65176e-16 0
          2.84697e-07 -1.81693e-15 0 2.8135e-07 7.75698e-16 0 2.8135e-07 -1.08598e-15 0 2.84697e-07 9.91055e-16 0
          2.84697e-07 4.95528e-16 0 2.8135e-07 -1.5514e-16 0 2.8135e-07 -4.65419e-16 0 2.84697e-07 4.95528e-16 0
          2.84697e-07 8.25879e-16 0 2.8135e-07 -4.65419e-16 0 2.8135e-07 4.65419e-16 0 2.84697e-07 -3.30352e-16 0
          2.7708e-07 -2.88471e-16 0 2.7048e-07 0 0 2.7048e-07 3.89534e-16 0 2.7708e-07 -1.15389e-15 0
          2.7708e-07 1.44236e-16 0 2.7048e-07 3.89534e-16 0 2.7048e-07 1.03876e-15 0 2.7708e-07 2.59624e-15 0
          2.7708e-07 8.65414e-16 0 2.7048e-07 3.89534e-16 0 2.7048e-07 3.89534e-16 0 2.7708e-07 -1.73083e-15 0
          2.7708e-07 -2.88471e-16 0 2.7048e-07 -1.29845e-16 0 2.7048e-07 -1.68798e-15 0 2.7708e-07 1.44236e-15 0
          2.7708e-07 5.76943e-16 0 2.7048e-07 -7.79068e-16 0 2.7048e-07 -6.49223e-16 0 2.7708e-07 -5.76943e-16 0
          2.7708e-07 -4.32707e-16 0 2.7048e-07 -1.29845e-16 0 2.7048e-07 -7.79068e-16 0 2.7708e-07 -4.32707e-16 0
          2.7708e-07 0 0 2.7048e-07 -7.79068e-16 0 2.7048e-07 2.3372e-15 0 2.7708e-07 -1.29812e-15 0
          2.7708e-07 -1.58659e-15 0 2.7048e-07 5.19378e-16 0 2.7048e-07 -6.49223e-16 0 2.7708e-07 1.44236e-16 0
          2.7708e-07 -1.44236e-16 0 2.7048e-07 -2.59689e-16 0 2.7048e-07 -7.79068e-16 0 2.7708e-07 -7.21178e-16 0
          2.7708e-07 -2.88471e-16 0 2.7048e-07 3.89534e-16 0 2.7048e-07 -3.89534e-16 0 2.7708e-07 8.65414e-16 0
          2.7708e-07 -2.88471e-16 0 2.7048e-07 -2.59689e-16 0 2.7048e-07 1.29845e-16 0 2.7708e-07 -7.21178e-16 0
          2.7708e-07 -1.00965e-15 0 2.7048e-07 -7.79068e-16 0 2.7048e-07 -1.68798e-15 0 2.7708e-07 -1.44236e-16 0
          2.7708e-07 1.15389e-15 0 2.70481e-07 -7.79068e-16 0 2.7048e-07 6.49223e-16 0 2.7708e-07 -1.29812e-15 0
          2.7708e-07 -1.44236e-16 0 2.7048e-07 9.08912e-16 0 2.7048e-07 -1.03876e-15 0 2.7708e-07 7.21178e-16 0
          2.7708e-07 -2.30777e-15 0 2.7048e-07 -1.81782e-15 0 2.7048e-07 -1.29845e-16 0 2.7708e-07 -7.21178e-16 0
          2.7708e-07 1.15389e-15 0 2.7048e-07 -7.79068e-16 0 2.7048e-07 -1.03876e-15 0 2.7708e-07 1.44236e-16 0
          2.51701e-07 -4.91779e-16 0 1.19256e-07 3.15522e-17 0 1.19256e-07 2.90281e-17 0 2.51701e-07 -9.83558e-16 0
          2.51701e-07 -5.90135e-16 0 1.19256e-07 -5.6794e-17 0 1.19256e-07 -8.456e-17 0 2.51701e-07 -8.85202e-16 0
          2.51701e-07 9.83558e-17 0 1.19256e-07 -1.3883e-17 0 1.19256e-07 9.21326e-17 0 2.51701e-07 9.83559e-17 0
          2.51701e-07 0 0 1.19256e-07 2.52418e-17 0 1.19256e-07 -5.17457e-17 0 2.51701e-07 -9.83559e-17 0
          2.51701e-07 -6.88491e-16 0 1.19256e-07 -8.83463e-18 0 1.19256e-07 3.66006e-17 0 2.51701e-07 -5.90135e-16 0
          2.51701e-07 1.96712e-16 0 1.19256e-07 -5.80563e-17 0 1.19256e-07 -3.02902e-17 0 2.51701e-07 4.91779e-16 0
          2.51701e-07 1.96712e-16 0 1.19256e-07 7.19393e-17 0 1.19256e-07 3.53385e-17 0 2.51701e-07 -9.83558e-17 0
          2.51701e-07 -7.86846e-16 0 1.19256e-07 -1.3883e-17 0 1.19256e-07 -7.19391e-17 0 2.51701e-07 0 0
          2.51701e-07 2.95067e-16 0 1.19256e-07 2.65039e-17 0 1.19256e-07 7.19391e-17 0 2.51701e-07 -2.95067e-16 0
          2.51701e-07 6.88491e-16 0 1.19256e-07 1.13588e-17 0 1.19256e-07 -2.27176e-17 0 2.51701e-07 7.86846e-16 0
          2.51701e-07 -1.08191e-15 0 1.19256e-07 -3.78627e-18 0 1.19256e-07 -2.14555e-17 0 2.51701e-07 -5.90135e-16 0
          2.51701e-07 -3.93423e-16 0 1.19256e-07 -5.30078e-17 0 1.19256e-07 -3.40764e-17 0 2.51701e-07 -1.18027e-15 0
          2.51701e-07 -7.86846e-16 0 1.19256e-07 3.53385e-17 0 1.19256e-07 1.26211e-18 0 2.51701e-07 -5.90135e-16 0
          2.51701e-07 -4.91779e-16 0 1.19256e-07 -4.79594e-17 0 1.19256e-07 4.92215e-17 0 2.51701e-07 -7.86846e-16 0
          2.51701e-07 -6.8849e-16 0 1.19256e-07 -6.3104e-18 0 1.19256e-07 -1.29995e-16 0 2.51701e-07 2.95067e-16 0
          2.51701e-07 -8.85202e-16 0 1.19256e-07 -2.65039e-17 0 1.19256e-07 4.41732e-17 0 2.51701e-07 -9.83558e-16 0
          7.16483e-10 -1.06852e-34 0 4.91723e-27 0 0 4.91721e-27 0 0 7.16483e-10 -1.52646e-34 0
          7.16482e-10 1.98439e-34 0 4.9172e-27 0 0 4.91724e-27 0 0 7.16483e-10 3.66351e-34 0
          7.16484e-10 4.57937e-35 0 4.91725e-27 0 0 4.91727e-27 0 0 7.16484e-10 -5.49522e-34 0
          7.16482e-10 -1.83173e-34 0 4.91716e-27 0 0 4.91725e-27 0 0 7.16484e-10 2.90025e-34 0
          7.16483e-10 -3.05295e-35 0 4.91722e-27 0 0 4.91725e-27 0 0 7.16484e-10 -2.90025e-34 0
          7.16482e-10 3.05289e-34 0 4.91716e-27 0 0 4.9173e-27 0 0 7.16485e-10 1.37377e-34 0
          7.16482e-10 -4.57938e-34 0 4.9172e-27 0 0 4.91723e-27 0 0 7.16483e-10 -3.05291e-34 0
          7.16482e-10 -1.52645e-35 0 4.91718e-27 0 0 4.91723e-27 0 0 7.16483e-10 3.96879e-34 0
          7.16484e-10 -2.28969e-34 0 4.91725e-27 0 0 4.91721e-27 0 0 7.16483e-10 -4.42674e-34 0
          7.16482e-10 4.57937e-35 0 4.91719e-27 0 0 4.91722e-27 0 0 7.16483e-10 1.06852e-34 0
          7.16483e-10 -1.52646e-35 0 4.91722e-27 0 0 4.9172e-27 0 0 7.16483e-10 4.57938e-35 0
          7.16483e-10 1.06852e-34 0 4.91722e-27 0 0 4.91723e-27 0 0 7.16483e-10 1.52647e-34 0
          7.16484e-10 -1.67909e-34 0 4.91725e-27 0 0 4.91719e-27 0 0 7.16482e-10 -1.06852e-34 0
          7.16483e-10 1.9844e-34 0 4.91724e-27 0 0 4.91725e-27 0 0 7.16484e-10 -3.66347e-34 0
          7.16482e-10 -1.67909e-34 0 4.91717e-27 0 0 4.91722e-27 0 0 7.16483e-10 6.10584e-34 0
          7.16484e-10 7.63235e-35 0 4.91729e-27 0 0 4.91722e-27 0 0 7.16483e-10 -2.90028e-34 0
        </DataArray>
        <DataArray type="Float32" Name="non-wetting-velocity" NumberOfComponents="3" format="ascii">
          3e-07 -2.91038e-17 0 3e-07 5.82077e-17 0 3e-07 5.82077e-17 0 3e-07 -2.91038e-17 0
          3e-07 1.74623e-16 0 3e-07 -1.16415e-16 0 3e-07 -5.23869e-16 0 3e-07 -2.32831e-16 0
          3e-07 4.65661e-16 0 3e-07 -4.65661e-16 0 3e-07 -1.39698e-15 0 3e-07 -1.04774e-15 0
          3e-07 -9.31323e-16 0 3e-07 -5.82077e-16 0 3e-07 2.32831e-16 0 3e-07 4.65661e-16 0
          3e-07 9.31323e-16 0 3e-07 1.16415e-15 0 3e-07 -6.98492e-16 0 3e-07 1.16415e-15 0
          3e-07 -2.32831e-16 0 3e-07 -4.65661e-16 0 3e-07 0 0 3e-07 -1.39698e-15 0
          3e-07 -2.32831e-16 0 3e-07 -1.86265e-15 0 3e-07 2.32831e-16 0 3e-07 -1.62981e-15 0
          3e-07 -3.0268e-15 0 3e-07 -1.62981e-15 0 3e-07 -3.25963e-15 0 3e-07 -1.16415e-15 0
          3e-07 -1.16415e-15 0 3e-07 0 0 3e-07 -4.65661e-16 0 3e-07 -1.16415e-15 0
          3e-07 -1.16415e-15 0 3e-07 -2.56114e-15 0 3e-07 -2.32831e-16 0 3e-07 2.32831e-16 0
          3e-07 0 0 3e-07 1.16415e-15 0 3e-07 -6.98492e-16 0 3e-07 -1.39698e-15 0
          3e-07 4.65661e-16 0 3e-07 -1.39698e-15 0 3e-07 -4.65661e-16 0 3e-07 9.31323e-16 0
          3.77018e-11 -1.92861e-18 0 6.85534e-10 4.63565e-17 0 6.85534e-10 7.2667e-17 0 3.77019e-11 -3.66437e-18 0
          3.77021e-11 -4.82154e-19 0 6.85534e-10 -1.25287e-18 0 6.85534e-10 -7.89314e-17 0 3.77019e-11 3.4715e-18 0
          3.77017e-11 5.78583e-19 0 6.85534e-10 -3.00691e-17 0 6.85534e-10 3.1322e-17 0 3.77019e-11 -1.35003e-18 0
          3.77019e-11 1.92861e-19 0 6.85534e-10 2.50576e-18 0 6.85534e-10 2.50576e-18 0 3.77019e-11 0 0
          3.77019e-11 3.85722e-19 0 6.85534e-10 1.12759e-17 0 6.85534e-10 2.50576e-17 0 3.77019e-11 9.64302e-20 0
          3.77019e-11 -4.82152e-19 0 6.85534e-10 2.38047e-17 0 6.85534e-10 3.38277e-17 0 3.77019e-11 -1.83218e-18 0
          3.77021e-11 -4.82154e-19 0 6.85534e-10 1.12759e-17 0 6.85534e-10 -1.12759e-17 0 3.77019e-11 1.92862e-19 0
          3.7702e-11 1.15717e-18 0 6.85534e-10 -3.63335e-17 0 6.85534e-10 -3.38277e-17 0 3.77018e-11 1.92862e-18 0
          3.77019e-11 2.89291e-19 0 6.85534e-10 4.86322e-24 0 6.85534e-10 1.50346e-17 0 3.77018e-11 -1.54289e-18 0
          3.7702e-11 -3.85723e-19 0 6.85534e-10 2.50577e-18 0 6.85533e-10 -1.25288e-17 0 3.77018e-11 3.85725e-19 0
          3.7702e-11 -4.82153e-19 0 6.85534e-10 -3.75865e-18 0 6.85534e-10 -2.12989e-17 0 3.77019e-11 1.06074e-18 0
          3.77018e-11 -1.2536e-18 0 6.85534e-10 3.88393e-17 0 6.85534e-10 1.62875e-17 0 3.7702e-11 -9.64308e-20 0
          3.77019e-11 1.54289e-18 0 6.85534e-10 -5.76325e-17 0 6.85534e-10 -6.2644e-18 0 3.77018e-11 -4.82153e-19 0
          3.77019e-11 1.92861e-19 0 6.85534e-10 3.75866e-18 0 6.85534e-10 -1.87932e-17 0 3.77018e-11 -4.82153e-19 0
          3.77019e-11 -7.71445e-19 0 6.85534e-10 4.32559e-25 0 6.85534e-10 -4.88623e-17 0 3.77019e-11 2.2179e-18 0
          3.77017e-11 -1.25361e-18 0 6.85534e-10 3.88393e-17 0 6.85534e-10 8.51958e-17 0 3.7702e-11 -3.08578e-18 0
          2.06384e-09 1.69269e-17 0 3.71485e-09 5.02262e-17 0 3.71485e-09 4.3051e-17 0 2.06384e-09 5.80351e-17 0
          2.06384e-09 2.90176e-17 0 3.71485e-09 -3.22883e-17 0 3.71485e-09 3.58758e-18 0 2.06384e-09 -1.9345e-17 0
          2.06384e-09 7.25439e-18 0 3.71485e-09 6.09889e-17 0 3.71485e-09 1.43503e-17 0 2.06384e-09 2.90176e-17 0
          2.06384e-09 2.41813e-18 0 3.71485e-09 3.58758e-18 0 3.71485e-09 -3.58759e-18 0 2.06384e-09 -2.65994e-17 0
          2.06384e-09 0 0 3.71485e-09 -7.17517e-18 0 3.71485e-09 5.38137e-17 0 2.06384e-09 2.65994e-17 0
          2.06384e-09 6.28714e-17 0 3.71485e-09 7.17516e-18 0 3.71485e-09 5.02262e-17 0 2.06384e-09 4.11082e-17 0
          2.06384e-09 -4.83626e-18 0 3.71485e-09 5.38138e-17 0 3.71485e-09 -4.66386e-17 0 2.06384e-09 -2.41813e-18 0
          2.06384e-09 -1.20907e-17 0 3.71485e-09 -3.58758e-18 0 3.71485e-09 -3.22882e-17 0 2.06384e-09 -2.65994e-17 0
          2.06384e-09 -1.20907e-17 0 3.71485e-09 -5.74013e-17 0 3.71485e-09 4.66386e-17 0 2.06384e-09 -4.50187e-24 0
          2.06384e-09 -2.90176e-17 0 3.71485e-09 4.3051e-17 0 3.71485e-09 -5.02262e-17 0 2.06384e-09 2.90176e-17 0