<?xml version="1.0"?>
<VTKFile type="UnstructuredGrid" version="0.1" byte_order="LittleEndian">
  <UnstructuredGrid>
    <Piece NumberOfCells="384" NumberOfPoints="425">
      <PointData Scalars="Sn">
        <DataArray type="Float32" Name="Sn" NumberOfComponents="1" format="ascii">
          0 0 0 0 0 0 0 0 0 0 0 0
          0 0 0 0 0 0 0 0 0 0 0 0
          0 0 0 0 0 0 0 0 0 0 0 0
          0 0 0 0 0 0.102056 0 0.165844 0.0828629 0.196709 0.134416 0.224143
          0.17875 0.258104 0 0 0 0 0 0 0 0 0 0
          0 0 0 0 0 0 0 0 0 0.152505 0.195283 0.226257
          0.254835 0.287438 0.336229 0 0 0 0 0 0 0 0 0
          0 0 0 0 0 0 0 0 0 0.14343 0.195174 0.228513
          0.259297 0.293129 0.338285 0.399227 0 0 0 0 0 0 0 0
          0 0 0 0 0 0 0 0 0 0.0140696 0.160365 0.202602
          0.234677 0.264689 0.29857 0.343142 0.400182 0 0 0 0 0 0 0
          0 0 0 0 0 0 0 0 0 0 0 0.145548
          0.195963 0.229322 0.26002 0.29379 0.338858 0.39944 0 0 0 0 0 0
          0 0 0 0 0 0 0 0 0 0 0 0
          0.0472157 0.16763 0.205081 0.235099 0.263805 0.297051 0.346793 0 0 0 0 0
          0 0 0 0 0 0 0 0 0 0 0 0
          0 0 0.0380839 0.15721 0.194465 0.222318 0.248836 0.282925 0 0 0 0
          0 0 0 0 0 0 0 0 0 0 0 0
          0 0 0 0 0 0.0691187 0.142509 0.177222 0.212909 0 0 0
          0 0 0 0 0 0 0 0 0 0 0 0
          0 0 0 0 0 0 0 0 0 0 0 0
          0 0 0 0 0 0 0 0 0 0 0 0
          0 0 0 0 0 0 0 0 0 0 0 0
          0 0 0 0 0 0 0 0 0 0 0 0
          0 0 0 0 0 0 0 0 0 0 0 0
          0 0 0 0 0 0 0 0 0 0 0 0
          0 0 0 0 0 0 0 0 0 0 0 0
          0 0 0 0 0 0 0 0 0 0 0 0
          0 0 0 0 0 0 0 0 0 0 0 0
          0 0 0 0 0 0 0 0 0 0 0 0
          0 0 0 0 0 0 0 0 0 0 0 0
          0 0 0 0 0 0 0 0 0 0 0 0
          0 0 0 0 0 0 0 0 0 0 0 0
          0 0 0 0 0 0 0 0 0 0 0 0
          0 0 0 0 0 0 0 0 0 0 0 0
          0 0 0 0 0
        </DataArray>
        <DataArray type="Float32" Name="Sw" NumberOfComponents="1" format="ascii">
          1 1 1 1 1 1 1 1 1 1 1 1
          1 1 1 1 1 1 1 1 1 1 1 1
          1 1 1 1 1 1 1 1 1 1 1 1
          1 1 1 1 1 0.897944 1 0.834156 0.917137 0.803291 0.865584 0.775857
          0.82125 0.741896 1 1 1 1 1 1 1 1 1 1
          1 1 1 1 1 1 1 1 1 0.847495 0.804717 0.773743
          0.745165 0.712562 0.663771 1 1 1 1 1 1 1 1 1
          1 1 1 1 1 1 1 1 1 0.85657 0.804826 0.771487
          0.740703 0.706871 0.661715 0.600773 1 1 1 1 1 1 1 1
          1 1 1 1 1 1 1 1 1 0.98593 0.839635 0.797398
          0.765323 0.735311 0.70143 0.656858 0.599818 1 1 1 1 1 1 1
          1 1 1 1 1 1 1 1 1 1 1 0.854452
          0.804037 0.770678 0.73998 0.70621 0.661142 0.60056 1 1 1 1 1 1
          1 1 1 1 1 1 1 1 1 1 1 1
          0.952784 0.83237 0.794919 0.764901 0.736195 0.702949 0.653207 1 1 1 1 1
          1 1 1 1 1 1 1 1 1 1 1 1
          1 1 0.961916 0.84279 0.805535 0.777682 0.751164 0.717075 1 1 1 1
          1 1 1 1 1 1 1 1 1 1 1 1
          1 1 1 1 1 0.930881 0.857491 0.822778 0.787091 1 1 1
          1 1 1 1 1 1 1 1 1 1 1 1
          1 1 1 1 1 1 1 1 1 1 1 1
          1 1 1 1 1 1 1 1 1 1 1 1
          1 1 1 1 1 1 1 1 1 1 1 1
          1 1 1 1 1 1 1 1 1 1 1 1
          1 1 1 1 1 1 1 1 1 1 1 1
          1 1 1 1 1 1 1 1 1 1 1 1
          1 1 1 1 1 1 1 1 1 1 1 1
          1 1 1 1 1 1 1 1 1 1 1 1
          1 1 1 1 1 1 1 1 1 1 1 1
          1 1 1 1 1 1 1 1 1 1 1 1
          1 1 1 1 1 1 1 1 1 1 1 1
          1 1 1 1 1 1 1 1 1 1 1 1
          1 1 1 1 1 1 1 1 1 1 1 1
          1 1 1 1 1 1 1 1 1 1 1 1
          1 1 1 1 1 1 1 1 1 1 1 1
          1 1 1 1 1
        </DataArray>
        <DataArray type="Float32" Name="pN" NumberOfComponents="1" format="ascii">
          5.01e+06 5.04196e+06 5.01e+06 5.04196e+06 5.07392e+06 5.07392e+06 5.10589e+06 5.10588e+06 5.13786e+06 5.13785e+06 5.16984e+06 5.16984e+06
          5.20184e+06 5.20183e+06 5.23384e+06 5.23384e+06 5.26587e+06 5.26586e+06 5.29792e+06 5.29791e+06 5.32998e+06 5.32997e+06 5.36206e+06 5.36205e+06
          5.39415e+06 5.39415e+06 5.42625e+06 5.42625e+06 5.45834e+06 5.45835e+06 5.49043e+06 5.49043e+06 5.52252e+06 5.52252e+06 5.55474e+06 5.55449e+06
          5.58705e+06 5.5874e+06 5.62098e+06 5.61728e+06 5.6538e+06 5.66369e+06 5.68009e+06 5.69187e+06 5.71063e+06 5.71322e+06 5.72512e+06 5.72711e+06
          5.72962e+06 5.73199e+06 5.01e+06 5.04195e+06 5.07391e+06 5.10587e+06 5.13784e+06 5.16982e+06 5.20181e+06 5.23381e+06 5.26584e+06 5.29788e+06
          5.32995e+06 5.36203e+06 5.39414e+06 5.42626e+06 5.45838e+06 5.49047e+06 5.52238e+06 5.55494e+06 5.58269e+06 5.6357e+06 5.66964e+06 5.69683e+06
          5.71764e+06 5.73227e+06 5.73864e+06 5.01e+06 5.04195e+06 5.0739e+06 5.10586e+06 5.13782e+06 5.16979e+06 5.20177e+06 5.23377e+06 5.26579e+06
          5.29783e+06 5.3299e+06 5.362e+06 5.39412e+06 5.42627e+06 5.45844e+06 5.49059e+06 5.52276e+06 5.55165e+06 5.6043e+06 5.64195e+06 5.67409e+06
          5.70021e+06 5.72152e+06 5.73834e+06 5.74968e+06 5.01e+06 5.04194e+06 5.07388e+06 5.10583e+06 5.13778e+06 5.16975e+06 5.20172e+06 5.23372e+06
          5.26573e+06 5.29776e+06 5.32983e+06 5.36193e+06 5.39408e+06 5.42626e+06 5.4585e+06 5.49077e+06 5.52291e+06 5.56134e+06 5.60805e+06 5.64535e+06
          5.6757e+06 5.70117e+06 5.72245e+06 5.73988e+06 5.75162e+06 5.01e+06 5.04193e+06 5.07386e+06 5.1058e+06 5.13774e+06 5.1697e+06 5.20166e+06
          5.23364e+06 5.26564e+06 5.29767e+06 5.32973e+06 5.36183e+06 5.39399e+06 5.42621e+06 5.45852e+06 5.49094e+06 5.5236e+06 5.55381e+06 5.60804e+06
          5.64464e+06 5.67446e+06 5.69922e+06 5.71972e+06 5.73611e+06 5.74734e+06 5.01e+06 5.04192e+06 5.07384e+06 5.10576e+06 5.13769e+06 5.16963e+06
          5.20158e+06 5.23354e+06 5.26553e+06 5.29754e+06 5.32958e+06 5.36168e+06 5.39383e+06 5.42608e+06 5.45844e+06 5.49098e+06 5.52366e+06 5.55686e+06
          5.60179e+06 5.64029e+06 5.67022e+06 5.69458e+06 5.71384e+06 5.7276e+06 5.73377e+06 5.01e+06 5.04191e+06 5.07381e+06 5.10572e+06 5.13764e+06
          5.16956e+06 5.20149e+06 5.23343e+06 5.26539e+06 5.29738e+06 5.3294e+06 5.36146e+06 5.3936e+06 5.42583e+06 5.4582e+06 5.49079e+06 5.52377e+06
          5.55785e+06 5.59139e+06 5.63004e+06 5.66312e+06 5.688e+06 5.70707e+06 5.71909e+06 5.72352e+06 5.01e+06 5.04189e+06 5.07378e+06 5.10568e+06
          5.13757e+06 5.16947e+06 5.20138e+06 5.2333e+06 5.26523e+06 5.29718e+06 5.32916e+06 5.36119e+06 5.39327e+06 5.42545e+06 5.45776e+06 5.49029e+06
          5.52314e+06 5.55623e+06 5.58929e+06 5.62039e+06 5.64556e+06 5.68029e+06 5.70102e+06 5.71209e+06 5.71562e+06 5.01e+06 5.04181e+06 5.07362e+06
          5.10542e+06 5.13721e+06 5.169e+06 5.20078e+06 5.23254e+06 5.26428e+06 5.29601e+06 5.32771e+06 5.3594e+06 5.39107e+06 5.42272e+06 5.45436e+06
          5.486e+06 5.51758e+06 5.5489e+06 5.57933e+06 5.60751e+06 5.6328e+06 5.65259e+06 5.66443e+06 5.67125e+06 5.67312e+06 5.01e+06 5.04167e+06
          5.07332e+06 5.10496e+06 5.13658e+06 5.16817e+06 5.19971e+06 5.23119e+06 5.2626e+06 5.29392e+06 5.32514e+06 5.35621e+06 5.38712e+06 5.41782e+06
          5.44824e+06 5.47828e+06 5.50776e+06 5.53634e+06 5.56341e+06 5.58818e+06 5.60965e+06 5.62662e+06 5.63841e+06 5.64523e+06 5.64748e+06 5.01e+06
          5.04153e+06 5.07305e+06 5.10454e+06 5.136e+06 5.16739e+06 5.19871e+06 5.22994e+06 5.26103e+06 5.29198e+06 5.32272e+06 5.35323e+06 5.38342e+06
          5.41322e+06 5.44251e+06 5.47113e+06 5.49883e+06 5.52524e+06 5.54987e+06 5.57206e+06 5.59111e+06 5.60632e+06 5.61724e+06 5.62376e+06 5.62592e+06
          5.01e+06 5.04142e+06 5.07281e+06 5.10418e+06 5.13548e+06 5.16671e+06 5.19784e+06 5.22883e+06 5.25965e+06 5.29025e+06 5.32059e+06 5.35058e+06
          5.38014e+06 5.40916e+06 5.43748e+06 5.46491e+06 5.49118e+06 5.51594e+06 5.53876e+06 5.55913e+06 5.57652e+06 5.59044e+06 5.60056e+06 5.60667e+06
          5.60871e+06 5.01e+06 5.04132e+06 5.07262e+06 5.10387e+06 5.13506e+06 5.16615e+06 5.19711e+06 5.22791e+06 5.2585e+06 5.28883e+06 5.31882e+06
          5.34839e+06 5.37743e+06 5.40582e+06 5.43337e+06 5.45988e+06 5.48507e+06 5.50862e+06 5.53014e+06 5.54924e+06 5.56547e+06 5.57847e+06 5.58795e+06
          5.5937e+06 5.59563e+06 5.01e+06 5.04125e+06 5.07247e+06 5.10364e+06 5.13474e+06 5.16573e+06 5.19657e+06 5.22723e+06 5.25765e+06 5.28776e+06
          5.3175e+06 5.34676e+06 5.37542e+06 5.40334e+06 5.43033e+06 5.45618e+06 5.48062e+06 5.50334e+06 5.524e+06 5.54225e+06 5.55772e+06 5.5701e+06
          5.57912e+06 5.58461e+06 5.58645e+06 5.01e+06 5.0412e+06 5.07238e+06 5.1035e+06 5.13455e+06 5.16547e+06 5.19624e+06 5.22681e+06 5.25712e+06
          5.28711e+06 5.31668e+06 5.34575e+06 5.37418e+06 5.40182e+06 5.42847e+06 5.45393e+06 5.47792e+06 5.50016e+06 5.52033e+06 5.53809e+06 5.55312e+06
          5.56514e+06 5.5739e+06 5.57923e+06 5.58101e+06 5.01e+06 5.04119e+06 5.07235e+06 5.10346e+06 5.13448e+06 5.16538e+06 5.19613e+06 5.22667e+06
          5.25694e+06 5.28688e+06 5.31641e+06 5.34541e+06 5.37376e+06 5.4013e+06 5.42785e+06 5.45317e+06 5.47702e+06 5.4991e+06 5.51911e+06 5.53671e+06
          5.5516e+06 5.5635e+06 5.57217e+06 5.57744e+06 5.57921e+06
        </DataArray>
        <DataArray type="Float32" Name="pW" NumberOfComponents="1" format="ascii">
          5e+06 5.03196e+06 5e+06 5.03196e+06 5.06392e+06 5.06392e+06 5.09589e+06 5.09588e+06 5.12786e+06 5.12785e+06 5.15984e+06 5.15984e+06
          5.19184e+06 5.19183e+06 5.22384e+06 5.22384e+06 5.25587e+06 5.25586e+06 5.28792e+06 5.28791e+06 5.31998e+06 5.31997e+06 5.35206e+06 5.35205e+06
          5.38415e+06 5.38415e+06 5.41625e+06 5.41625e+06 5.44834e+06 5.44835e+06 5.48043e+06 5.48043e+06 5.51252e+06 5.51252e+06 5.54474e+06 5.54449e+06
          5.57705e+06 5.5774e+06 5.61098e+06 5.60728e+06 5.6438e+06 5.65299e+06 5.67009e+06 5.68063e+06 5.70007e+06 5.7017e+06 5.71416e+06 5.71532e+06
          5.71828e+06 5.71984e+06 5e+06 5.03195e+06 5.06391e+06 5.09587e+06 5.12784e+06 5.15982e+06 5.19181e+06 5.22381e+06 5.25584e+06 5.28788e+06
          5.31995e+06 5.35203e+06 5.38414e+06 5.41626e+06 5.44838e+06 5.48047e+06 5.51238e+06 5.54494e+06 5.57269e+06 5.62459e+06 5.65814e+06 5.68502e+06
          5.70553e+06 5.71977e+06 5.7255e+06 5e+06 5.03195e+06 5.0639e+06 5.09586e+06 5.12782e+06 5.15979e+06 5.19177e+06 5.22377e+06 5.25579e+06
          5.28783e+06 5.3199e+06 5.352e+06 5.38412e+06 5.41627e+06 5.44844e+06 5.48059e+06 5.51276e+06 5.54165e+06 5.59326e+06 5.63045e+06 5.66226e+06
          5.68804e+06 5.70896e+06 5.72518e+06 5.73555e+06 5e+06 5.03194e+06 5.06388e+06 5.09583e+06 5.12778e+06 5.15975e+06 5.19172e+06 5.22372e+06
          5.25573e+06 5.28776e+06 5.31983e+06 5.35193e+06 5.38408e+06 5.41626e+06 5.4485e+06 5.48077e+06 5.51291e+06 5.55125e+06 5.59686e+06 5.63378e+06
          5.6638e+06 5.68894e+06 5.70982e+06 5.72665e+06 5.73748e+06 5e+06 5.03193e+06 5.06386e+06 5.0958e+06 5.12774e+06 5.1597e+06 5.19166e+06
          5.22364e+06 5.25564e+06 5.28767e+06 5.31973e+06 5.35183e+06 5.38399e+06 5.41621e+06 5.44852e+06 5.48094e+06 5.5136e+06 5.54381e+06 5.59698e+06
          5.63313e+06 5.66262e+06 5.68704e+06 5.70714e+06 5.72294e+06 5.73321e+06 5e+06 5.03192e+06 5.06384e+06 5.09576e+06 5.12769e+06 5.15963e+06
          5.19158e+06 5.22354e+06 5.25553e+06 5.28754e+06 5.31958e+06 5.35168e+06 5.38383e+06 5.41608e+06 5.44844e+06 5.48098e+06 5.51366e+06 5.54686e+06
          5.59148e+06 5.62904e+06 5.65863e+06 5.68268e+06 5.70163e+06 5.71499e+06 5.72048e+06 5e+06 5.03191e+06 5.06381e+06 5.09572e+06 5.12764e+06
          5.15956e+06 5.19149e+06 5.22343e+06 5.25539e+06 5.28738e+06 5.3194e+06 5.35146e+06 5.3836e+06 5.41583e+06 5.4482e+06 5.48079e+06 5.51377e+06
          5.54785e+06 5.58139e+06 5.6198e+06 5.65197e+06 5.67651e+06 5.6953e+06 5.70704e+06 5.71108e+06 5e+06 5.03189e+06 5.06378e+06 5.09568e+06
          5.12757e+06 5.15947e+06 5.19138e+06 5.2233e+06 5.25523e+06 5.28718e+06 5.31916e+06 5.35119e+06 5.38327e+06 5.41545e+06 5.44776e+06 5.48029e+06
          5.51314e+06 5.54623e+06 5.57929e+06 5.61039e+06 5.63556e+06 5.66983e+06 5.68999e+06 5.70075e+06 5.70395e+06 5e+06 5.03181e+06 5.06362e+06
          5.09542e+06 5.12721e+06 5.159e+06 5.19078e+06 5.22254e+06 5.25428e+06 5.28601e+06 5.31771e+06 5.3494e+06 5.38107e+06 5.41272e+06 5.44436e+06
          5.476e+06 5.50758e+06 5.5389e+06 5.56933e+06 5.59751e+06 5.6228e+06 5.64259e+06 5.65443e+06 5.66125e+06 5.66312e+06 5e+06 5.03167e+06
          5.06332e+06 5.09496e+06 5.12658e+06 5.15817e+06 5.18971e+06 5.22119e+06 5.2526e+06 5.28392e+06 5.31514e+06 5.34621e+06 5.37712e+06 5.40782e+06
          5.43824e+06 5.46828e+06 5.49776e+06 5.52634e+06 5.55341e+06 5.57818e+06 5.59965e+06 5.61662e+06 5.62841e+06 5.63523e+06 5.63748e+06 5e+06
          5.03153e+06 5.06305e+06 5.09454e+06 5.126e+06 5.15739e+06 5.18871e+06 5.21994e+06 5.25103e+06 5.28198e+06 5.31272e+06 5.34323e+06 5.37342e+06
          5.40322e+06 5.43251e+06 5.46113e+06 5.48883e+06 5.51524e+06 5.53987e+06 5.56206e+06 5.58111e+06 5.59632e+06 5.60724e+06 5.61376e+06 5.61592e+06
          5e+06 5.03142e+06 5.06281e+06 5.09418e+06 5.12548e+06 5.15671e+06 5.18784e+06 5.21883e+06 5.24965e+06 5.28025e+06 5.31059e+06 5.34058e+06
          5.37014e+06 5.39916e+06 5.42748e+06 5.45491e+06 5.48118e+06 5.50594e+06 5.52876e+06 5.54913e+06 5.56652e+06 5.58044e+06 5.59056e+06 5.59667e+06
          5.59871e+06 5e+06 5.03132e+06 5.06262e+06 5.09387e+06 5.12506e+06 5.15615e+06 5.18711e+06 5.21791e+06 5.2485e+06 5.27883e+06 5.30882e+06
          5.33839e+06 5.36743e+06 5.39582e+06 5.42337e+06 5.44988e+06 5.47507e+06 5.49862e+06 5.52014e+06 5.53924e+06 5.55547e+06 5.56847e+06 5.57795e+06
          5.5837e+06 5.58563e+06 5e+06 5.03125e+06 5.06247e+06 5.09364e+06 5.12474e+06 5.15573e+06 5.18657e+06 5.21723e+06 5.24765e+06 5.27776e+06
          5.3075e+06 5.33676e+06 5.36542e+06 5.39334e+06 5.42033e+06 5.44618e+06 5.47062e+06 5.49334e+06 5.514e+06 5.53225e+06 5.54772e+06 5.5601e+06
          5.56912e+06 5.57461e+06 5.57645e+06 5e+06 5.0312e+06 5.06238e+06 5.0935e+06 5.12455e+06 5.15547e+06 5.18624e+06 5.21681e+06 5.24712e+06
          5.27711e+06 5.30668e+06 5.33575e+06 5.36418e+06 5.39182e+06 5.41847e+06 5.44393e+06 5.46792e+06 5.49016e+06 5.51033e+06 5.52809e+06 5.54312e+06
          5.55514e+06 5.5639e+06 5.56923e+06 5.57101e+06 5e+06 5.03119e+06 5.06235e+06 5.09346e+06 5.12448e+06 5.15538e+06 5.18613e+06 5.21667e+06
          5.24694e+06 5.27688e+06 5.30641e+06 5.33541e+06 5.36376e+06 5.3913e+06 5.41785e+06 5.44317e+06 5.46702e+06 5.4891e+06 5.50911e+06 5.52671e+06
          5.5416e+06 5.5535e+06 5.56217e+06 5.56744e+06 5.56921e+06
        </DataArray>
        <DataArray type="Float32" Name="pC" NumberOfComponents="1" format="ascii">
          10000 10000 10000 10000 10000 10000 10000 10000 10000 10000 10000 10000
          10000 10000 10000 10000 10000 10000 10000 10000 10000 10000 10000 10000
          10000 10000 10000 10000 10000 10000 10000 10000 10000 10000 10000 10000
          10000 10000 10000 10000 10000 10706.2 10000 11231.7 10561.9 11515.5 10963.4 11786.6
          11347.8 12150.3 10000 10000 10000 10000 10000 10000 10000 10000 10000 10000
          10000 10000 10000 10000 10000 10000 10000 10000 10000 11115.4 11501.9 11808.3
          12113.8 12493.1 13133.9 10000 10000 10000 10000 10000 10000 10000 10000 10000
          10000 10000 10000 10000 10000 10000 10000 10000 10000 11038.4 11500.8 11831.6
          12163.7 12563.1 13163.1 14128.5 10000 10000 10000 10000 10000 10000 10000 10000
          10000 10000 10000 10000 10000 10000 10000 10000 10000 10089.1 11183.5 11572.1
          11895.9 12224.8 12631.1 13232.9 14145.4 10000 10000 10000 10000 10000 10000 10000
          10000 10000 10000 10000 10000 10000 10000 10000 10000 10000 10000 11056.2
          11508.4 11839.9 12171.8 12571.3 13171.3 14132.3 10000 10000 10000 10000 10000 10000
          10000 10000 10000 10000 10000 10000 10000 10000 10000 10000 10000 10000
          10308.8 11247.6 11596.2 11900.3 12214.7 12612 13286.1 10000 10000 10000 10000 10000
          10000 10000 10000 10000 10000 10000 10000 10000 10000 10000 10000 10000
          10000 10000 10246.9 11156.1 11494.1 11767.9 12047.7 12438.5 10000 10000 10000 10000
          10000 10000 10000 10000 10000 10000 10000 10000 10000 10000 10000 10000
          10000 10000 10000 10000 10000 10462.2 11030.6 11333.9 11673.3 10000 10000 10000
          10000 10000 10000 10000 10000 10000 10000 10000 10000 10000 10000 10000
          10000 10000 10000 10000 10000 10000 10000 10000 10000 10000 10000 10000
          10000 10000 10000 10000 10000 10000 10000 10000 10000 10000 10000 10000
          10000 10000 10000 10000 10000 10000 10000 10000 10000 10000 10000 10000
          10000 10000 10000 10000 10000 10000 10000 10000 10000 10000 10000 10000
          10000 10000 10000 10000 10000 10000 10000 10000 10000 10000 10000 10000
          10000 10000 10000 10000 10000 10000 10000 10000 10000 10000 10000 10000
          10000 10000 10000 10000 10000 10000 10000 10000 10000 10000 10000 10000
          10000 10000 10000 10000 10000 10000 10000 10000 10000 10000 10000 10000
          10000 10000 10000 10000 10000 10000 10000 10000 10000 10000 10000 10000
          10000 10000 10000 10000 10000 10000 10000 10000 10000 10000 10000 10000
          10000 10000 10000 10000 10000 10000 10000 10000 10000 10000 10000 10000
          10000 10000 10000 10000 10000 10000 10000 10000 10000 10000 10000 10000
          10000 10000 10000 10000 10000 10000 10000 10000 10000 10000 10000 10000
          10000 10000 10000 10000 10000 10000 10000 10000 10000 10000 10000 10000
          10000 10000 10000 10000 10000 10000 10000 10000 10000 10000 10000 10000
          10000 10000 10000 10000 10000
        </DataArray>
        <DataArray type="Float32" Name="rhoW" NumberOfComponents="1" format="ascii">
          1055.53 1055.54 1055.53 1055.54 1055.55 1055.55 1055.56 1055.56 1055.57 1055.57 1055.58 1055.58
          1055.6 1055.6 1055.61 1055.61 1055.62 1055.62 1055.63 1055.63 1055.64 1055.64 1055.66 1055.66
          1055.67 1055.67 1055.68 1055.68 1055.69 1055.69 1055.71 1055.71 1055.72 1055.75 1055.74 1055.86
          1055.8 1056.33 1056.03 1058.31 1056.95 1060.15 1059.49 1060.17 1060.18 1060.18 1060.18 1060.18
          1060.17 1060.2 1055.53 1055.54 1055.55 1055.56 1055.57 1055.58 1055.6 1055.61 1055.62 1055.63
          1055.64 1055.66 1055.67 1055.68 1055.7 1055.74 1055.9 1056.61 1060.05 1060.11 1060.14 1060.16
          1060.18 1060.26 1061.33 1055.53 1055.54 1055.55 1055.56 1055.57 1055.58 1055.6 1055.61 1055.62
          1055.63 1055.64 1055.66 1055.67 1055.69 1055.72 1055.82 1056.3 1058.83 1060.08 1060.12 1060.14
          1060.16 1060.24 1061.36 1074.36 1055.53 1055.54 1055.55 1055.56 1055.57 1055.58 1055.6 1055.61
          1055.62 1055.63 1055.64 1055.66 1055.67 1055.69 1055.72 1055.86 1056.56 1060.07 1060.08 1060.11
          1060.14 1060.17 1060.25 1061.48 1074.38 1055.53 1055.54 1055.55 1055.56 1055.57 1055.58 1055.6
          1055.61 1055.62 1055.63 1055.64 1055.66 1055.67 1055.69 1055.72 1055.83 1056.34 1059.08 1060.09
          1060.12 1060.14 1060.16 1060.24 1061.36 1074.36 1055.53 1055.54 1055.55 1055.56 1055.57 1055.58
          1055.6 1055.61 1055.62 1055.63 1055.64 1055.66 1055.67 1055.68 1055.7 1055.75 1055.93 1056.78
          1060.1 1060.12 1060.14 1060.16 1060.18 1060.27 1061.59 1055.53 1055.54 1055.55 1055.56 1055.57
          1055.58 1055.6 1055.61 1055.62 1055.63 1055.64 1055.66 1055.67 1055.68 1055.69 1055.71 1055.76
          1055.96 1056.83 1060.13 1060.14 1060.16 1060.17 1060.18 1060.22 1055.53 1055.54 1055.55 1055.56
          1055.57 1055.58 1055.6 1055.61 1055.62 1055.63 1055.64 1055.66 1055.67 1055.68 1055.69 1055.71
          1055.72 1055.76 1055.87 1056.35 1058.22 1060.16 1060.17 1060.17 1060.16 1055.53 1055.54 1055.55
          1055.56 1055.57 1055.59 1055.6 1055.61 1055.62 1055.63 1055.65 1055.66 1055.67 1055.68 1055.69
          1055.71 1055.72 1055.73 1055.74 1055.76 1055.81 1055.97 1056.46 1057.52 1059.64 1055.53 1055.54
          1055.55 1055.56 1055.57 1055.59 1055.6 1055.61 1055.62 1055.63 1055.64 1055.66 1055.67 1055.68
          1055.69 1055.7 1055.71 1055.72 1055.73 1055.74 1055.75 1055.76 1055.78 1055.82 1055.91 1055.53
          1055.54 1055.55 1055.56 1055.57 1055.58 1055.6 1055.61 1055.62 1055.63 1055.64 1055.66 1055.67
          1055.68 1055.69 1055.7 1055.71 1055.72 1055.73 1055.74 1055.74 1055.75 1055.76 1055.76 1055.76
          1055.53 1055.54 1055.55 1055.56 1055.57 1055.58 1055.6 1055.61 1055.62 1055.63 1055.64 1055.65
          1055.67 1055.68 1055.69 1055.7 1055.71 1055.72 1055.73 1055.73 1055.74 1055.74 1055.75 1055.75
          1055.75 1055.53 1055.54 1055.55 1055.56 1055.57 1055.58 1055.6 1055.61 1055.62 1055.63 1055.64
          1055.65 1055.66 1055.68 1055.69 1055.7 1055.7 1055.71 1055.72 1055.73 1055.74 1055.74 1055.74
          1055.75 1055.75 1055.53 1055.54 1055.55 1055.56 1055.57 1055.58 1055.6 1055.61 1055.62 1055.63
          1055.64 1055.65 1055.66 1055.67 1055.68 1055.69 1055.7 1055.71 1055.72 1055.73 1055.73 1055.74
          1055.74 1055.74 1055.74 1055.53 1055.54 1055.55 1055.56 1055.57 1055.58 1055.6 1055.61 1055.62
          1055.63 1055.64 1055.65 1055.66 1055.67 1055.68 1055.69 1055.7 1055.71 1055.72 1055.72 1055.73
          1055.74 1055.74 1055.74 1055.74 1055.53 1055.54 1055.55 1055.56 1055.57 1055.58 1055.6 1055.61
          1055.62 1055.63 1055.64 1055.65 1055.66 1055.67 1055.68 1055.69 1055.7 1055.71 1055.72 1055.72
          1055.73 1055.73 1055.74 1055.74 1055.74
        </DataArray>
        <DataArray type="Float32" Name="rhoN" NumberOfComponents="1" format="ascii">
          100.481 101.315 100.481 101.315 102.15 102.15 102.986 102.986 103.822 103.822 104.659 104.658
          105.495 105.495 106.35 106.35 107.21 107.21 108.071 108.071 108.932 108.932 109.794 109.794
          110.656 110.656 111.531 111.531 112.417 112.418 113.303 113.303 114.189 114.189 115.079 115.07
          115.97 115.957 116.909 116.557 117.77 117.551 118.152 118.339 118.861 118.927 119.253 119.304
          119.361 119.463 100.481 101.314 102.15 102.986 103.822 104.658 105.494 106.349 107.21 108.07
          108.932 109.793 110.656 111.532 112.418 113.304 114.182 115.042 115.335 116.757 117.702 118.468
          119.053 119.548 121.254 100.481 101.314 102.15 102.985 103.821 104.657 105.494 106.348 107.208
          108.069 108.93 109.792 110.655 111.532 112.42 113.306 114.172 114.654 115.875 116.929 117.823
          118.56 119.237 121.295 155.406 100.481 101.314 102.149 102.985 103.82 104.656 105.492 106.347
          107.207 108.067 108.928 109.791 110.654 111.532 112.422 113.31 114.159 114.729 115.976 117.016
          117.87 118.587 119.28 121.509 155.618 100.481 101.314 102.149 102.984 103.819 104.655 105.491
          106.345 107.204 108.065 108.926 109.788 110.652 111.53 112.422 113.315 114.193 114.678 115.978
          117.006 117.834 118.532 119.185 121.228 155.321 100.481 101.314 102.148 102.983 103.818 104.653
          105.489 106.342 107.201 108.061 108.922 109.784 110.648 111.527 112.42 113.318 114.216 115.08
          115.836 116.887 117.722 118.407 118.947 119.442 121.508 100.481 101.313 102.148 102.982 103.816
          104.651 105.486 106.339 107.198 108.057 108.917 109.778 110.641 111.52 112.414 113.313 114.224
          115.16 116.033 116.63 117.531 118.223 118.753 119.084 119.262 100.481 101.313 102.147 102.981
          103.815 104.649 105.483 106.336 107.193 108.052 108.911 109.771 110.632 111.509 112.402 113.3
          114.207 115.12 116.031 116.875 117.366 118.017 118.59 118.885 118.966 100.481 101.312 102.144
          102.976 103.807 104.639 105.469 106.317 107.17 108.022 108.874 109.725 110.575 111.436 112.31
          113.183 114.056 114.92 115.761 116.539 117.254 117.805 118.077 118.114 117.841 100.481 101.309
          102.137 102.964 103.791 104.617 105.442 106.281 107.125 107.966 108.804 109.639 110.469 111.301
          112.141 112.97 113.785 114.574 115.321 116.005 116.598 117.08 117.415 117.606 117.664 100.481
          101.305 102.13 102.953 103.776 104.597 105.416 106.247 107.083 107.914 108.74 109.559 110.37
          111.174 111.983 112.773 113.538 114.267 114.947 115.56 116.086 116.506 116.814 116.999 117.061
          100.481 101.302 102.123 102.943 103.762 104.579 105.393 106.218 107.045 107.868 108.682 109.488
          110.282 111.062 111.844 112.601 113.327 114.011 114.641 115.203 115.683 116.068 116.347 116.516
          116.572 100.481 101.3 102.118 102.935 103.751 104.564 105.374 106.193 107.015 107.829 108.635
          109.429 110.209 110.972 111.73 112.462 113.158 113.808 114.403 114.93 115.378 115.737 115.999
          116.158 116.211 100.481 101.298 102.114 102.93 103.743 104.553 105.36 106.175 106.992 107.801
          108.599 109.385 110.155 110.905 111.646 112.36 113.035 113.663 114.233 114.737 115.164 115.506
          115.755 115.907 115.958 100.481 101.297 102.112 102.926 103.738 104.546 105.351 106.163 106.978
          107.783 108.578 109.358 110.122 110.864 111.595 112.298 112.961 113.575 114.132 114.622 115.037
          115.369 115.611 115.758 115.808 100.481 101.296 102.111 102.925 103.736 104.544 105.348 106.159
          106.973 107.777 108.57 109.349 110.111 110.85 111.578 112.277 112.936 113.546 114.098 114.584
          114.995 115.324 115.563 115.709 115.758
        </DataArray>
        <DataArray type="Float32" Name="mobW" NumberOfComponents="1" format="ascii">
          1450.38 1450.46 1450.38 1450.46 1450.47 1450.47 1450.48 1450.48 1450.5 1450.5 1450.51 1450.51
          1450.52 1450.52 1450.54 1450.54 1450.55 1450.55 1450.56 1450.56 1450.58 1450.57 1450.59 1450.59
          1450.6 1450.6 1450.62 1450.62 1450.63 1450.63 1450.64 1450.64 1450.66 1450.66 1450.68 1450.73
          1450.71 1451.24 1450.89 1456.56 1452.52 848.005 1460.68 578.017 945.377 473.537 701.641 393.186
          532.715 308.219 1450.38 1450.46 1450.47 1450.48 1450.5 1450.51 1450.52 1450.54 1450.55 1450.56
          1450.57 1450.59 1450.6 1450.62 1450.63 1450.65 1450.75 1451.67 1462.73 628.201 478.006 387.347
          315.754 246.421 161.465 1450.38 1450.46 1450.47 1450.48 1450.5 1450.51 1450.52 1450.54 1450.55
          1450.56 1450.57 1450.59 1450.6 1450.62 1450.63 1450.69 1451.24 1458.71 664.186 478.306 381.312
          305.552 235.689 158.507 63.2462 1450.38 1450.46 1450.47 1450.48 1450.5 1450.51 1450.52 1450.53
          1450.55 1450.56 1450.57 1450.59 1450.6 1450.61 1450.63 1450.72 1451.65 1362.95 598.28 455.301
          365.12 293.544 225.674 151.568 62.5954 1450.38 1450.46 1450.47 1450.48 1450.5 1450.51 1450.52
          1450.53 1450.55 1450.56 1450.57 1450.59 1450.6 1450.61 1450.63 1450.69 1451.3 1459.54 655.643
          475.803 379.158 303.921 234.464 157.726 63.0991 1450.38 1450.46 1450.47 1450.48 1450.5 1450.51
          1450.52 1450.53 1450.55 1450.56 1450.57 1450.59 1450.6 1450.61 1450.63 1450.65 1450.77 1452.03
          1147.21 571.522 447.75 364 295.475 228.363 146.407 1450.38 1450.46 1450.47 1450.48 1450.5
          1450.51 1450.52 1450.53 1450.55 1450.56 1450.57 1450.59 1450.6 1450.61 1450.63 1450.64 1450.67
          1450.8 1452.04 1203.83 610.123 480.577 398.113 329.933 255.366 1450.38 1450.46 1450.47 1450.48
          1450.49 1450.51 1450.52 1450.53 1450.55 1450.56 1450.57 1450.59 1450.6 1450.61 1450.63 1450.64
          1450.65 1450.67 1450.74 1451.3 1456.39 1019.8 667.975 537.831 424.869 1450.38 1450.4 1450.41
          1450.43 1450.44 1450.45 1450.47 1450.48 1450.49 1450.51 1450.52 1450.53 1450.54 1450.56 1450.57
          1450.58 1450.6 1450.61 1450.62 1450.64 1450.7 1450.96 1452.41 1455.92 1463.25 1450.38 1450.4
          1450.41 1450.43 1450.44 1450.45 1450.47 1450.48 1450.49 1450.5 1450.52 1450.53 1450.54 1450.55
          1450.57 1450.58 1450.59 1450.6 1450.61 1450.62 1450.63 1450.64 1450.66 1450.72 1450.86 1450.38
          1450.4 1450.41 1450.43 1450.44 1450.45 1450.46 1450.48 1450.49 1450.5 1450.52 1450.53 1450.54
          1450.55 1450.56 1450.57 1450.59 1450.6 1450.61 1450.61 1450.62 1450.63 1450.63 1450.64 1450.64
          1450.38 1450.4 1450.41 1450.43 1450.44 1450.45 1450.46 1450.48 1450.49 1450.5 1450.51 1450.53
          1450.54 1450.55 1450.56 1450.57 1450.58 1450.59 1450.6 1450.61 1450.62 1450.62 1450.62 1450.63
          1450.63 1450.38 1450.4 1450.41 1450.43 1450.44 1450.45 1450.46 1450.48 1450.49 1450.5 1450.51
          1450.53 1450.54 1450.55 1450.56 1450.57 1450.58 1450.59 1450.6 1450.6 1450.61 1450.62 1450.62
          1450.62 1450.62 1450.38 1450.4 1450.41 1450.43 1450.44 1450.45 1450.46 1450.48 1450.49 1450.5
          1450.51 1450.52 1450.54 1450.55 1450.56 1450.57 1450.58 1450.59 1450.59 1450.6 1450.61 1450.61
          1450.61 1450.62 1450.62 1450.38 1450.4 1450.41 1450.43 1450.44 1450.45 1450.46 1450.48 1450.49
          1450.5 1450.51 1450.52 1450.54 1450.55 1450.56 1450.57 1450.58 1450.58 1450.59 1450.6 1450.6
          1450.61 1450.61 1450.61 1450.61 1450.38 1450.4 1450.41 1450.43 1450.44 1450.45 1450.46 1450.48
          1450.49 1450.5 1450.51 1450.52 1450.53 1450.55 1450.56 1450.57 1450.58 1450.58 1450.59 1450.6
          1450.6 1450.61 1450.61 1450.61 1450.61
        </DataArray>
        <DataArray type="Float32" Name="mobN" NumberOfComponents="1" format="ascii">
          0 0 0 0 0 0 0 0 0 0 0 0
          0 0 0 0 0 0 0 0 0 0 0 0
          0 0 0 0 0 0 0 0 0 0 0 0
          0 0 0 0 0 216.444 0 888.424 117.154 1449.54 482.832 2101.57
          1100.92 3129.31 0 0 0 0 0 0 0 0 0 0
          0 0 0 0 0 0 0 0 0 698.556 1421.75 2160.51
          3020.64 4228.2 6532.73 0 0 0 0 0 0 0 0 0
          0 0 0 0 0 0 0 0 0 585.363 1420.77 2223.79
          3173.36 4466.44 6643.14 10607 0 0 0 0 0 0 0 0
          0 0 0 0 0 0 0 0 0 0.602453 808.544 1580.63
          2397.69 3361.81 4700.13 6908.36 10672.9 0 0 0 0 0 0 0
          0 0 0 0 0 0 0 0 0 0 0 610.724
          1437.15 2246.15 3198.36 4494.71 6674.4 10623.9 0 0 0 0 0 0
          0 0 0 0 0 0 0 0 0 0 0 0
          22.2641 917.859 1635.15 2408.43 3329.07 4633.54 7114.21 0 0 0 0 0
          0 0 0 0 0 0 0 0 0 0 0 0
          0 0 11.7415 762.055 1403.92 2054.81 2824.65 4046.89 0 0 0 0