<?xml version="1.0"?>
<VTKFile type="UnstructuredGrid" version="0.1" byte_order="LittleEndian">
  <UnstructuredGrid>
    <Piece NumberOfCells="1536" NumberOfPoints="1617">
      <CellData Scalars="wetting pressure" Vectors="non-wetting-velocity">
        <DataArray type="Float32" Name="wetting pressure" NumberOfComponents="1" format="ascii">
          152499 151566 150798 150139 149559 149038 148566 148133 147733 147359 147009 146677
          146362 146061 145772 145493 145222 144958 144701 144449 144202 143959 143720 143484
          143252 143022 142796 142572 142352 142135 141920 141709 141501 141297 141095 140897
          140702 140511 140322 140136 139952 139770 139591 139413 139237 139062 138888 138714
          150980 150174 149463 148834 148272 147764 147301 146875 146479 146110 145763 145435
          145122 144823 144536 144258 143988 143726 143469 143218 142971 142729 142490 142255
          142022 141793 141567 141343 141123 140905 140691 140480 140272 140067 139866 139668
          139473 139281 139093 138907 138723 138542 138363 138186 138010 137835 137661 137487
          149378 148685 148046 147463 146931 146445 145998 145585 145200 144839 144499 144176
          143869 143574 143290 143015 142748 142487 142232 141982 141737 141495 141257 141022
          140790 140561 140335 140111 139890 139673 139458 139247 139039 138834 138633 138435
          138241 138049 137861 137675 137493 137312 137133 136957 136781 136607 136434 136261
          147746 147143 146572 146039 145545 145088 144663 144267 143896 143547 143217 142903
          142602 142314 142035 141764 141500 141243 140990 140742 140499 140258 140021 139786
          139555 139326 139100 138876 138655 138437 138223 138011 137803 137598 137397 137199
          137005 136814 136626 136442 136259 136080 135902 135726 135552 135378 135206 135034
          146099 145570 145061 144578 144123 143697 143298 142923 142570 142237 141919 141616
          141325 141044 140771 140506 140247 139993 139744 139499 139257 139018 138782 138548
          138317 138088 137862 137638 137417 137199 136984 136772 136563 136358 136157 135960
          135766 135576 135389 135205 135024 134845 134669 134494 134321 134149 133978 133807
          144445 143978 143523 143087 142672 142280 141909 141558 141226 140909 140607 140317
          140037 139765 139500 139242 138988 138739 138494 138251 138012 137775 137540 137307
          137076 136848 136622 136398 136176 135957 135741 135529 135320 135115 134914 134717
          134524 134334 134148 133966 133786 133609 133434 133261 133089 132919 132749 132580
          142786 142372 141967 141575 141199 140841 140499 140175 139865 139568 139283 139008
          138740 138479 138224 137973 137726 137482 137240 137001 136764 136529 136296 136064
          135834 135606 135379 135154 134932 134712 134496 134282 134073 133868 133667 133470
          133277 133089 132904 132723 132545 132370 132197 132026 131856 131688 131520 131353
          141124 140757 140397 140046 139708 139384 139074 138776 138491 138216 137950 137690
          137437 137188 136942 136700 136460 136221 135985 135749 135515 135282 135050 134820
          134590 134362 134134 133909 133686 133465 133247 133032 132822 132616 132415 132219
          132027 131840 131657 131478 131302 131129 130958 130789 130622 130456 130290 130125
          139460 139136 138817 138505 138204 137914 137635 137366 137107 136855 136609 136367
          136129 135893 135658 135424 135192 134959 134727 134496 134265 134034 133804 133574
          133345 133116 132888 132662 132437 132214 131994 131778 131566 131359 131158 130963
          130772 130587 130406 130229 130056 129885 129717 129551 129386 129223 129060 128898
          137794 137509 137229 136955 136689 136433 136185 135947 135715 135488 135264 135041
          134819 134596 134373 134148 133923 133697 133470 133242 133014 132786 132557 132328
          132099 131870 131641 131413 131186 130961 130738 130519 130305 130097 129896 129701
          129513 129330 129151 128977 128807 128640 128474 128311 128150 127989 127829 127670
          136126 135878 135634 135396 135165 134942 134728 134520 134318 134118 133918 133715
          133509 133301 133088 132873 132655 132435 132213 131989 131764 131537 131310 131082
          130853 130623 130393 130163 129933 129704 129478 129255 129039 128829 128627 128434
          128247 128067 127892 127722 127555 127391 127230 127070 126912 126755 126598 126442
          134458 134244 134034 133829 133632 133443 133263 133089 132919 132748 132573 132392
          132203 132008 131807 131601 131390 131176 130958 130737 130515 130290 130064 129836
          129607 129377 129145 128912 128679 128446 128214 127986 127764 127552 127351 127159
          126976 126799 126629 126463 126300 126141 125983 125828 125673 125520 125367 125214
          132787 132606 132428 132255 132091 131936 131791 131654 131521 131383 131235 131075
          130904 130722 130531 130333 130128 129919 129705 129488 129268 129045 128820 128592
          128363 128131 127898 127662 127425 127186 126947 126710 126481 126265 126064 125875
          125697 125526 125361 125200 125043 124888 124735 124584 124433 124284 124135 123986
          131116 130964 130816 130674 130541 130419 130310 130215 130128 130028 129909 129770
          129614 129444 129262 129071 128872 128667 128456 128242 128023 127802 127577 127350
          127121 126888 126653 126414 126172 125926 125677 125427 125184 124964 124765 124582
          124411 124247 124089 123934 123783 123633 123485 123339 123193 123047 122903 122758
          129444 129319 129198 129084 128979 128888 128816 128769 128748 128693 128602 128482
          128339 128178 128003 127817 127622 127420 127212 126999 126782 126561 126338 126111
          125881 125648 125411 125170 124924 124670 124408 124137 123864 123640 123449 123277
          123116 122962 122812 122665 122520 122377 122234 122093 121951 121811 121670 121530
          127770 127670 127573 127483 127403 127338 127297 127298 127400 127393 127325 127218
          127082 126926 126755 126572 126379 126178 125972 125760 125544 125324 125101 124875
          124645 124411 124174 123931 123682 123422 123148 122848 122496 122284 122115 121962
          121816 121673 121533 121395 121257 121120 120983 120846 120710 120574 120437 120301
          126095 126017 125942 125873 125813 125765 125735 125726 125839 125866 125811 125711
          125583 125435 125273 125098 124914 124723 124526 124324 124118 123907 123693 123475
          123252 123026 122793 122553 122301 122031 121725 121331 120988 120886 120765 120639
          120511 120382 120253 120123 119993 119862 119731 119600 119468 119336 119205 119073
          124419 124361 124306 124255 124210 124175 124151 124141 124153 124130 124063 123964
          123843 123705 123555 123396 123229 123055 122875 122691 122503 122310 122113 121912
          121705 121492 121271 121039 120790 120516 120200 119815 119568 119507 119420 119317
          119207 119092 118973 118852 118729 118605 118479 118353 118227 118099 117972 117844
          122742 122703 122665 122629 122598 122572 122554 122545 122512 122439 122347 122240
          122119 121988 121848 121702 121549 121391 121229 121062 120892 120717 120538 120354
          120164 119967 119761 119542 119305 119043 118745 118400 118198 118156 118089 118004
          117908 117804 117695 117582 117466 117348 117229 117107 116985 116863 116740 116616
          121065 121043 121021 121000 120980 120962 120949 120941 120881 120765 120648 120528
          120405 120278 120148 120013 119875 119733 119587 119438 119285 119128 118967 118801
          118630 118451 118263 118062 117845 117605 117337 117034 116864 116830 116775 116702
          116617 116523 116422 116316 116206 116094 115979 115863 115745 115627 115507 115388
          119388 119383 119377 119369 119359 119349 119338 119330 119247 119093 118952 118820
          118695 118573 118451 118329 118204 118078 117949 117817 117682 117543 117401 117255
          117103 116945 116778 116600 116407 116196 115962 115702 115556 115527 115478 115413
          115335 115248 115153 115053 114949 114841 114731 114619 114506 114391 114276 114160
          117711 117724 117734 117740 117740 117735 117725 117716 117603 117408 117246 117106
          116982 116867 116755 116646 116536 116425 116313 116199 116082 115963 115840 115714
          115583 115447 115304 115152 114989 114810 114614 114395 114271 114243 114197 114136
          114062 113980 113890 113795 113695 113591 113485 113377 113267 113156 113044 112932
          116035 116068 116096 116116 116126 116124 116112 116096 115932 115692 115516 115377
          115261 115156 115058 114963 114869 114775 114680 114583 114485 114385 114282 114177
          114068 113956 113838 113715 113584 113443 113288 113112 113008 112979 112932 112871
          112799 112719 112633 112540 112444 112344 112241 112136 112030 111922 111813 111704
          114361 114417 114465 114502 114523 114525 114504 114466 114178 113912 113748 113627
          113527 113439 113357 113279 113202 113125 113048 112970 112890 112810 112727 112643
          112557 112469 112379 112286 112190 112090 111983 111859 111770 111733 111680 111617
          111545 111465 111381 111291 111197 111100 111000 110898 110794 110689 110583 110476
          112689 112773 112846 112904 112941 112948 112914 112808 112530 112352 112224 112122
          112036 111959 111887 111818 111750 111683 111615 111547 111477 111406 111334 111261
          111187 111111 111035 110959 110881 110803 110724 110645 110566 110503 110439 110371
          110297 110218 110133 110045 109953 109858 109760 109660 109559 109456 109353 109249
          111021 111138 111243 111328 111387 111412 111395 111323 111187 111064 110959 110870
          110791 110718 110649 110582 110515 110449 110382 110314 110245 110174 110103 110030
          109956 109881 109805 109729 109652 109575 109497 109420 109344 109274 109203 109131
          109055 108974 108890 108803 108712 108619 108523 108425 108326 108225 108124 108022
          109357 109517 109660 109779 109867 109918 109930 109900 109833 109756 109680 109608
          109539 109473 109408 109344 109280 109215 109149 109082 109014 108944 108872 108800
          108726 108651 108576 108500 108424 108347 108270 108194 108118 108044 107970 107894
          107816 107735 107651 107564 107474 107382 107287 107191 107093 106994 106895 106795
          107698 107911 108102 108260 108382 108465 108508 108514 108490 108448 108397 108341
          108284 108226 108167 108107 108046 107983 107918 107852 107784 107714 107643 107571
          107497 107422 107347 107272 107195 107119 107043 106966 106890 106814 106738 106660
          106581 106499 106415 106328 106238 106147 106054 105959 105862 105765 105666 105568
          106049 106329 106575 106779 106937 107051 107123 107159 107164 107148 107117 107077
          107031 106980 106927 106871 106813 106752 106689 106623 106556 106487 106415 106343
          106269 106194 106119 106044 105968 105891 105815 105738 105661 105584 105507 105428
          105348 105265 105181 105094 105005 104914 104822 104727 104632 104536 104438 104341
          104414 104781 105092 105342 105536 105678 105775 105833 105860 105863 105847 105819
          105782 105738 105689 105637 105582 105523 105462 105397 105330 105261 105189 105116
          105041 104966 104891 104816 104740 104664 104587 104511 104433 104356 104277 104198
          104116 104034 103949 103862 103774 103683 103591 103498 103403 103307 103211 103114
          102810 103288 103668 103962 104186 104350 104465 104540 104581 104595 104590 104570
          104539 104500 104455 104407 104355 104298 104237 104173 104106 104037 103965 103890
          103814 103739 103664 103589 103513 103437 103360 103283 103206 103128 103049 102969
          102887 102804 102719 102632 102544 102454 102362 102269 102175 102080 101984 101888
          101291 101894 102330 102654 102895 103072 103197 103279 103327 103348 103348 103332
          103304 103268 103225 103179 103130 103073 103012 102948 102881 102812 102740 102664
          102585 102511 102437 102362 102286 102210 102134 102056 101979 101901 101821 101741
          101659 101576 101491 101405 101316 101226 101135 101042 100948 100853 100757 100661
        </DataArray>
        <DataArray type="Float32" Name="capillary pressure" NumberOfComponents="1" format="ascii">
          0 0 0 0 0 0 0 0 0 0 0 0
          0 0 0 0 0 0 0 0 0 0 0 0
          0 0 0 0 0 0 0 0 0 0 0 0
          0 0 0 0 0 0 0 0 0 0 0 0
          0 0 0 0 0 0 0 0 0 0 0 0
          0 0 0 0 0 0 0 0 0 0 0 0
          0 0 0 0 0 0 0 0 0 0 0 0
          0 0 0 0 0 0 0 0 0 0 0 0
          0 0 0 0 0 0 0 0 0 0 0 0
          0 0 0 0 0 0 0 0 0 0 0 0
          0 0 0 0 0 0 0 0 0 0 0 0
          0 0 0 0 0 0 0 0 0 0 0 0
          0 0 0 0 0 0 0 0 0 0 0 0
          0 0 0 0 0 0 0 0 0 0 0 0
          0 0 0 0 0 0 0 0 0 0 0 0
          0 0 0 0 0 0 0 0 0 0 0 0
          0 0 0 0 0 0 0 0 0 0 0 0
          0 0 0 0 0 0 0 0 0 0 0 0
          0 0 0 0 0 0 0 0 0 0 0 0
          0 0 0 0 0 0 0 0 0 0 0 0
          0 0 0 0 0 0 0 0 0 0 0 0
          0 0 0 0 0 0 0 0 0 0 0 0
          0 0 0 0 0 0 0 0 0 0 0 0
          0 0 0 0 0 0 0 0 0 0 0 0
          0 0 0 0 0 0 0 0 0 0 0 0
          0 0 0 0 0 0 0 0 0 0 0 0
          0 0 0 0 0 0 0 0 0 0 0 0
          0 0 0 0 0 0 0 0 0 0 0 0
          0 0 0 0 0 0 0 0 0 0 0 0
          0 0 0 0 0 0 0 0 0 0 0 0
          0 0 0 0 0 0 0 0 0 0 0 0
          0 0 0 0 0 0 0 0 0 0 0 0
          0 0 0 0 0 0 0 0 0 0 0 0
          0 0 0 0 0 0 0 0 0 0 0 0
          0 0 0 0 0 0 0 0 0 0 0 0
          0 0 0 0 0 0 0 0 0 0 0 0
          0 0 0 0 0 0 0 0 0 0 0 0
          0 0 0 0 0 0 0 0 0 0 0 0
          0 0 0 0 0 0 0 0 0 0 0 0
          0 0 0 0 0 0 0 0 0 0 0 0
          0 0 0 0 0 0 0 0 0 0 0 0
          0 0 0 0 0 0 0 0 0 0 0 0
          0 0 0 0 0 0 0 0 0 0 0 0
          0 0 0 0 0 0 0 0 0 0 0 0
          0 0 0 0 0 0 0 0 0 0 0 0
          0 0 0 0 0 0 0 0 0 0 0 0
          0 0 0 0 0 0 0 0 0 0 0 0
          0 0 0 0 0 0 0 0 0 0 0 0
          0 0 0 0 0 0 0 0 0 0 0 0
          0 0 0 0 0 0 0 0 0 0 0 0
          0 0 0 0 0 0 0 0 0 0 0 0
          0 0 0 0 0 0 0 0 0 0 0 0
          0 0 0 0 0 0 0 0 0 0 0 0
          0 0 0 0 0 0 0 0 0 0 0 0
          0 0 0 0 0 0 0 0 0 0 0 0
          0 0 0 0 0 0 0 0 0 0 0 0
          0 0 0 0 0 0 0 0 0 0 0 0
          0 0 0 0 0 0 0 0 0 0 0 0
          0 0 0 0 0 0 0 0 0 0 0 0
          0 0 0 0 0 0 0 0 0 0 0 0
          0 0 0 0 0 0 0 0 0 0 0 0
          0 0 0 0 0 0 0 0 0 0 0 0
          0 0 0 0 0 0 0 0 0 0 0 0
          0 0 0 0 0 0 0 0 0 0 0 0
          0 0 0 0 0 0 0 0 0 0 0 0
          0 0 0 0 0 0 0 0 0 0 0 0
          0 0 0 0 0 0 0 0 0 0 0 0
          0 0 0 0 0 0 0 0 0 0 0 0
          0 0 0 0 0 0 0 0 0 0 0 0
          0 0 0 0 0 0 0 0 0 0 0 0
          0 0 0 0 0 0 0 0 0 0 0 0
          0 0 0 0 0 0 0 0 0 0 0 0
          0 0 0 0 0 0 0 0 0 0 0 0
          0 0 0 0 0 0 0 0 0 0 0 0
          0 0 0 0 0 0 0 0 0 0 0 0
          0 0 0 0 0 0 0 0 0 0 0 0
          0 0 0 0 0 0 0 0 0 0 0 0
          0 0 0 0 0 0 0 0 0 0 0 0
          0 0 0 0 0 0 0 0 0 0 0 0
          0 0 0 0 0 0 0 0 0 0 0 0
          0 0 0 0 0 0 0 0 0 0 0 0
          0 0 0 0 0 0 0 0 0 0 0 0
          0 0 0 0 0 0 0 0 0 0 0 0
          0 0 0 0 0 0 0 0 0 0 0 0
          0 0 0 0 0 0 0 0 0 0 0 0
          0 0 0 0 0 0 0 0 0 0 0 0
          0 0 0 0 0 0 0 0 0 0 0 0
          0 0 0 0 0 0 0 0 0 0 0 0
          0 0 0 0 0 0 0 0 0 0 0 0
          0 0 0 0 0 0 0 0 0 0 0 0
          0 0 0 0 0 0 0 0 0 0 0 0
          0 0 0 0 0 0 0 0 0 0 0 0
          0 0 0 0 0 0 0 0 0 0 0 0
          0 0 0 0 0 0 0 0 0 0 0 0
          0 0 0 0 0 0 0 0 0 0 0 0
          0 0 0 0 0 0 0 0 0 0 0 0
          0 0 0 0 0 0 0 0 0 0 0 0
          0 0 0 0 0 0 0 0 0 0 0 0
          0 0 0 0 0 0 0 0 0 0 0 0
          0 0 0 0 0 0 0 0 0 0 0 0
          0 0 0 0 0 0 0 0 0 0 0 0
          0 0 0 0 0 0 0 0 0 0 0 0
          0 0 0 0 0 0 0 0 0 0 0 0
          0 0 0 0 0 0 0 0 0 0 0 0
          0 0 0 0 0 0 0 0 0 0 0 0
          0 0 0 0 0 0 0 0 0 0 0 0
          0 0 0 0 0 0 0 0 0 0 0 0
          0 0 0 0 0 0 0 0 0 0 0 0
          0 0 0 0 0 0 0 0 0 0 0 0
          0 0 0 0 1.14056e-10 1.28324e-10 1.30697e-10 1.3307e-10 1.3307e-10 1.3307e-10 1.3307e-10 1.2119e-10
          0 0 0 0 0 0 0 0 0 0 0 0
          0 0 0 0 0 0 0 0 0 0 0 0
          0 0 0 0 0 0 0 0 0 0 0 0
          0 0 0 0 0.00223442 0.00238227 0.00240364 0.00241617 0.00242254 0.00242262 0.00241391 0.0022816
          2.14015e-11 0 0 0 0 0 0 0 0 0 0 0
          0 0 0 0 0 0 0 0 0 0 0 0
          0 0 0 0 0 0 0 0 0 0 0 0
          0 0 0 7.18197e-06 6.71784 6.97592 6.99921 7.01194 7.01812 7.01709 7.00468 6.76625
          0.000469062 0 0 0 0 0 0 0 0 0 0 0
          0 0 0 0 0 0 0 0 0 0 0 0
          0 0 0 0 0 0 0 0 0 0 0 0
          0 0 0 -0.0304637 110.118 110.747 110.774 110.784 110.789 110.786 110.77 110.194
          1.77461 2.16647e-05 0 0 0 0 0 0 0 0 0 0
          0 0 0 0 0 0 0 0 0 0 0 0
          0 0 0 0 0 0 0 0 0 0 0 0
          0 0 3.47476e-05 7.92553 148.233 149.031 149.055 149.056 149.056 149.056 149.051 148.431
          48.3136 0.0618706 3.41661e-08 0 0 0 0 0 0 0 0 0
          0 0 0 0 0 0 0 0 0 0 0 0
        </DataArray>
        <DataArray type="Float32" Name="wetting density" NumberOfComponents="1" format="ascii">
          1000 1000 1000 1000 1000 1000 1000 1000 1000 1000 1000 1000
          1000 1000 1000 1000 1000 1000 1000 1000 1000 1000 1000 1000
          1000 1000 1000 1000 1000 1000 1000 1000 1000 1000 1000 1000
          1000 1000 1000 1000 1000 1000 1000 1000 1000 1000 1000 1000
          1000 1000 1000 1000 1000 1000 1000 1000 1000 1000 1000 1000
          1000 1000 1000 1000 1000 1000 1000 1000 1000 1000 1000 1000
          1000 1000 1000 1000 1000 1000 1000 1000 1000 1000 1000 1000
          1000 1000 1000 1000 1000 1000 1000 1000 1000 1000 1000 1000
          1000 1000 1000 1000 1000 1000 1000 1000 1000 1000 1000 1000
          1000 1000 1000 1000 1000 1000 1000 1000 1000 1000 1000 1000
          1000 1000 1000 1000 1000 1000 1000 1000 1000 1000 1000 1000
          1000 1000 1000 1000 1000 1000 1000 1000 1000 1000 1000 1000
          1000 1000 1000 1000 1000 1000 1000 1000 1000 1000 1000 1000
          1000 1000 1000 1000 1000 1000 1000 1000 1000 1000 1000 1000
          1000 1000 1000 1000 1000 1000 1000 1000 1000 1000 1000 1000
          1000 1000 1000 1000 1000 1000 1000 1000 1000 1000 1000 1000
          1000 1000 1000 1000 1000 1000 1000 1000 1000 1000 1000 1000
          1000 1000 1000 1000 1000 1000 1000 1000 1000 1000 1000 1000
          1000 1000 1000 1000 1000 1000 1000 1000 1000 1000 1000 1000
          1000 1000 1000 1000 1000 1000 1000 1000 1000 1000 1000 1000
          1000 1000 1000 1000 1000 1000 1000 1000 1000 1000 1000 1000
          1000 1000 1000 1000 1000 1000 1000 1000 1000 1000 1000 1000
          1000 1000 1000 1000 1000 1000 1000 1000 1000 1000 1000 1000
          1000 1000 1000 1000 1000 1000 1000 1000 1000 1000 1000 1000
          1000 1000 1000 1000 1000 1000 1000 1000 1000 1000 1000 1000
          1000 1000 1000 1000 1000 1000 1000 1000 1000 1000 1000 1000
          1000 1000 1000 1000 1000 1000 1000 1000 1000 1000 1000 1000
          1000 1000 1000 1000 1000 1000 1000 1000 1000 1000 1000 1000
          1000 1000 1000 1000 1000 1000 1000 1000 1000 1000 1000 1000
          1000 1000 1000 1000 1000 1000 1000 1000 1000 1000 1000 1000
          1000 1000 1000 1000 1000 1000 1000 1000 1000 1000 1000 1000
          1000 1000 1000 1000 1000 1000 1000 1000 1000 1000 1000 1000
          1000 1000 1000 1000 1000 1000 1000 1000 1000 1000 1000 1000
          1000 1000 1000 1000 1000 1000 1000 1000 1000 1000 1000 1000
          1000 1000 1000 1000 1000 1000 1000 1000 1000 1000 1000 1000
          1000 1000 1000 1000 1000 1000 1000 1000 1000 1000 1000 1000
          1000 1000 1000 1000 1000 1000 1000 1000 1000 1000 1000 1000
          1000 1000 1000 1000 1000 1000 1000 1000 1000 1000 1000 1000
          1000 1000 1000 1000 1000 1000 1000 1000 1000 1000 1000 1000
          1000 1000 1000 1000 1000 1000 1000 1000 1000 1000 1000 1000
          1000 1000 1000 1000 1000 1000 1000 1000 1000 1000 1000 1000
          1000 1000 1000 1000 1000 1000 1000 1000 1000 1000 1000 1000
          1000 1000 1000 1000 1000 1000 1000 1000 1000 1000 1000 1000
          1000 1000 1000 1000 1000 1000 1000 1000 1000 1000 1000 1000
          1000 1000 1000 1000 1000 1000 1000 1000 1000 1000 1000 1000
          1000 1000 1000 1000 1000 1000 1000 1000 1000 1000 1000 1000
          1000 1000 1000 1000 1000 1000 1000 1000 1000 1000 1000 1000
          1000 1000 1000 1000 1000 1000 1000 1000 1000 1000 1000 1000
          1000 1000 1000 1000 1000 1000 1000 1000 1000 1000 1000 1000
          1000 1000 1000 1000 1000 1000 1000 1000 1000 1000 1000 1000
          1000 1000 1000 1000 1000 1000 1000 1000 1000 1000 1000 1000
          1000 1000 1000 1000 1000 1000 1000 1000 1000 1000 1000 1000
          1000 1000 1000 1000 1000 1000 1000 1000 1000 1000 1000 1000
          1000 1000 1000 1000 1000 1000 1000 1000 1000 1000 1000 1000
          1000 1000 1000 1000 1000 1000 1000 1000 1000 1000 1000 1000
          1000 1000 1000 1000 1000 1000 1000 1000 1000 1000 1000 1000
          1000 1000 1000 1000 1000 1000 1000 1000 1000 1000 1000 1000
          1000 1000 1000 1000 1000 1000 1000 1000 1000 1000 1000 1000
          1000 1000 1000 1000 1000 1000 1000 1000 1000 1000 1000 1000
          1000 1000 1000 1000 1000 1000 1000 1000 1000 1000 1000 1000
          1000 1000 1000 1000 1000 1000 1000 1000 1000 1000 1000 1000
          1000 1000 1000 1000 1000 1000 1000 1000 1000 1000 1000 1000
          1000 1000 1000 1000 1000 1000 1000 1000 1000 1000 1000 1000
          1000 1000 1000 1000 1000 1000 1000 1000 1000 1000 1000 1000
          1000 1000 1000 1000 1000 1000 1000 1000 1000 1000 1000 1000
          1000 1000 1000 1000 1000 1000 1000 1000 1000 1000 1000 1000
          1000 1000 1000 1000 1000 1000 1000 1000 1000 1000 1000 1000
          1000 1000 1000 1000 1000 1000 1000 1000 1000 1000 1000 1000
          1000 1000 1000 1000 1000 1000 1000 1000 1000 1000 1000 1000
          1000 1000 1000 1000 1000 1000 1000 1000 1000 1000 1000 1000
          1000 1000 1000 1000 1000 1000 1000 1000 1000 1000 1000 1000
          1000 1000 1000 1000 1000 1000 1000 1000 1000 1000 1000 1000
          1000 1000 1000 1000 1000 1000 1000 1000 1000 1000 1000 1000
          1000 1000 1000 1000 1000 1000 1000 1000 1000 1000 1000 1000
          1000 1000 1000 1000 1000 1000 1000 1000 1000 1000 1000 1000
          1000 1000 1000 1000 1000 1000 1000 1000 1000 1000 1000 1000
          1000 1000 1000 1000 1000 1000 1000 1000 1000 1000 1000 1000
          1000 1000 1000 1000 1000 1000 1000 1000 1000 1000 1000 1000
          1000 1000 1000 1000 1000 1000 1000 1000 1000 1000 1000 1000
          1000 1000 1000 1000 1000 1000 1000 1000 1000 1000 1000 1000
          1000 1000 1000 1000 1000 1000 1000 1000 1000 1000 1000 1000
          1000 1000 1000 1000 1000 1000 1000 1000 1000 1000 1000 1000
          1000 1000 1000 1000 1000 1000 1000 1000 1000 1000 1000 1000
          1000 1000 1000 1000 1000 1000 1000 1000 1000 1000 1000 1000
          1000 1000 1000 1000 1000 1000 1000 1000 1000 1000 1000 1000
          1000 1000 1000 1000 1000 1000 1000 1000 1000 1000 1000 1000
          1000 1000 1000 1000 1000 1000 1000 1000 1000 1000 1000 1000
          1000 1000 1000 1000 1000 1000 1000 1000 1000 1000 1000 1000
          1000 1000 1000 1000 1000 1000 1000 1000 1000 1000 1000 1000
          1000 1000 1000 1000 1000 1000 1000 1000 1000 1000 1000 1000
          1000 1000 1000 1000 1000 1000 1000 1000 1000 1000 1000 1000
          1000 1000 1000 1000 1000 1000 1000 1000 1000 1000 1000 1000
          1000 1000 1000 1000 1000 1000 1000 1000 1000 1000 1000 1000
          1000 1000 1000 1000 1000 1000 1000 1000 1000 1000 1000 1000
          1000 1000 1000 1000 1000 1000 1000 1000 1000 1000 1000 1000
          1000 1000 1000 1000 1000 1000 1000 1000 1000 1000 1000 1000
          1000 1000 1000 1000 1000 1000 1000 1000 1000 1000 1000 1000
          1000 1000 1000 1000 1000 1000 1000 1000 1000 1000 1000 1000
          1000 1000 1000 1000 1000 1000 1000 1000 1000 1000 1000 1000
          1000 1000 1000 1000 1000 1000 1000 1000 1000 1000 1000 1000
          1000 1000 1000 1000 1000 1000 1000 1000 1000 1000 1000 1000
          1000 1000 1000 1000 1000 1000 1000 1000 1000 1000 1000 1000
          1000 1000 1000 1000 1000 1000 1000 1000 1000 1000 1000 1000
          1000 1000 1000 1000 1000 1000 1000 1000 1000 1000 1000 1000
          1000 1000 1000 1000 1000 1000 1000 1000 1000 1000 1000 1000
          1000 1000 1000 1000 1000 1000 1000 1000 1000 1000 1000 1000
          1000 1000 1000 1000 1000 1000 1000 1000 1000 1000 1000 1000
          1000 1000 1000 1000 1000 1000 1000 1000 1000 1000 1000 1000
          1000 1000 1000 1000 1000 1000 1000 1000 1000 1000 1000 1000
          1000 1000 1000 1000 1000 1000 1000 1000 1000 1000 1000 1000
          1000 1000 1000 1000 1000 1000 1000 1000 1000 1000 1000 1000
          1000 1000 1000 1000 1000 1000 1000 1000 1000 1000 1000 1000
          1000 1000 1000 1000 1000 1000 1000 1000 1000 1000 1000 1000
          1000 1000 1000 1000 1000 1000 1000 1000 1000 1000 1000 1000
          1000 1000 1000 1000 1000 1000 1000 1000 1000 1000 1000 1000
          1000 1000 1000 1000 1000 1000 1000 1000 1000 1000 1000 1000
          1000 1000 1000 1000 1000 1000 1000 1000 1000 1000 1000 1000
          1000 1000 1000 1000 1000 1000 1000 1000 1000 1000 1000 1000
          1000 1000 1000 1000 1000 1000 1000 1000 1000 1000 1000 1000
          1000 1000 1000 1000 1000 1000 1000 1000 1000 1000 1000 1000
          1000 1000 1000 1000 1000 1000 1000 1000 1000 1000 1000 1000
          1000 1000 1000 1000 1000 1000 1000 1000 1000 1000 1000 1000
          1000 1000 1000 1000 1000 1000 1000 1000 1000 1000 1000 1000
          1000 1000 1000 1000 1000 1000 1000 1000 1000 1000 1000 1000
          1000 1000 1000 1000 1000 1000 1000 1000 1000 1000 1000 1000
          1000 1000 1000 1000 1000 1000 1000 1000 1000 1000 1000 1000
          1000 1000 1000 1000 1000 1000 1000 1000 1000 1000 1000 1000
          1000 1000 1000 1000 1000 1000 1000 1000 1000 1000 1000 1000
        </DataArray>
        <DataArray type="Float32" Name="nonwetting density" NumberOfComponents="1" format="ascii">
          1460 1460 1460 1460 1460 1460 1460 1460 1460 1460 1460 1460
          1460 1460 1460 1460 1460 1460 1460 1460 1460 1460 1460 1460
          1460 1460 1460 1460 1460 1460 1460 1460 1460 1460 1460 1460
          1460 1460 1460 1460 1460 1460 1460 1460 1460 1460 1460 1460
          1460 1460 1460 1460 1460 1460 1460 1460 1460 1460 1460 1460
          1460 1460 1460 1460 1460 1460 1460 1460 1460 1460 1460 1460
          1460 1460 1460 1460 1460 1460 1460 1460 1460 1460 1460 1460
          1460 1460 1460 1460 1460 1460 1460 1460 1460 1460 1460 1460
          1460 1460 1460 1460 1460 1460 1460 1460 1460 1460 1460 1460
          1460 1460 1460 1460 1460 1460 1460 1460 1460 1460 1460 1460
          1460 1460 1460 1460 1460 1460 1460 1460 1460 1460 1460 1460
          1460 1460 1460 1460 1460 1460 1460 1460 1460 1460 1460 1460
          1460 1460 1460 1460 1460 1460 1460 1460 1460 1460 1460 1460
          1460 1460 1460 1460 1460 1460 1460 1460 1460 1460 1460 1460
          1460 1460 1460 1460 1460 1460 1460 1460 1460 1460 1460 1460
          1460 1460 1460 1460 1460 1460 1460 1460 1460 1460 1460 1460
          1460 1460 1460 1460 1460 1460 1460 1460 1460 1460 1460 1460
          1460 1460 1460 1460 1460 1460 1460 1460 1460 1460 1460 1460
          1460 1460 1460 1460 1460 1460 1460 1460 1460 1460 1460 1460
          1460 1460 1460 1460 1460 1460 1460 1460 1460 1460 1460 1460
          1460 1460 1460 1460 1460 1460 1460 1460 1460 1460 1460 1460
          1460 1460 1460 1460 1460 1460 1460 1460 1460 1460 1460 1460
          1460 1460 1460 1460 1460 1460 1460 1460 1460 1460 1460 1460
          1460 1460 1460 1460 1460 1460 1460 1460 1460 1460 1460 1460
          1460 1460 1460 1460 1460 1460 1460 1460 1460 1460 1460 1460
          1460 1460 1460 1460 1460 1460 1460 1460 1460 1460 1460 1460
          1460 1460 1460 1460 1460 1460 1460 1460 1460 1460 1460 1460
          1460 1460 1460 1460 1460 1460 1460 1460 1460 1460 1460 1460
          1460 1460 1460 1460 1460 1460 1460 1460 1460 1460 1460 1460
          1460 1460 1460 1460 1460 1460 1460 1460 1460 1460 1460 1460
          1460 1460 1460 1460 1460 1460 1460 1460 1460 1460 1460 1460
          1460 1460 1460 1460 1460 1460 1460 1460 1460 1460 1460 1460
          1460 1460 1460 1460 1460 1460 1460 1460 1460 1460 1460 1460
          1460 1460 1460 1460 1460 1460 1460 1460 1460 1460 1460 1460
          1460 1460 1460 1460 1460 1460 1460 1460 1460 1460 1460 1460
          1460 1460 1460 1460 1460 1460 1460 1460 1460 1460 1460 1460
          1460 1460 1460 1460 1460 1460 1460 1460 1460 1460 1460 1460
          1460 1460 1460 1460 1460 1460 1460 1460 1460 1460 1460 1460
          1460 1460 1460 1460 1460 1460 1460 1460 1460 1460 1460 1460
          1460 1460 1460 1460 1460 1460 1460 1460 1460 1460 1460 1460
          1460 1460 1460 1460 1460 1460 1460 1460 1460 1460 1460 1460
          1460 1460 1460 1460 1460 1460 1460 1460 1460 1460 1460 1460
          1460 1460 1460 1460 1460 1460 1460 1460 1460 1460 1460 1460
          1460 1460 1460 1460 1460 1460 1460 1460 1460 1460 1460 1460
          1460 1460 1460 1460 1460 1460 1460 1460 1460 1460 1460 1460
          1460 1460 1460 1460 1460 1460 1460 1460 1460 1460 1460 1460
          1460 1460 1460 1460 1460 1460 1460 1460 1460 1460 1460 1460
          1460 1460 1460 1460 1460 1460 1460 1460 1460 1460 1460 1460
          1460 1460 1460 1460 1460 1460 1460 1460 1460 1460 1460 1460
          1460 1460 1460 1460 1460 1460 1460 1460 1460 1460 1460 1460
          1460 1460 1460 1460 1460 1460 1460 1460 1460 1460 1460 1460