<?xml version="1.0"?>
<VTKFile type="UnstructuredGrid" version="0.1" byte_order="LittleEndian">
  <UnstructuredGrid>
    <Piece NumberOfCells="64" NumberOfPoints="81">
      <CellData Scalars="pressure" Vectors="velocity">
        <DataArray type="Float32" Name="pressure" NumberOfComponents="1" format="ascii">
          0.193321 0.276067 0.279825 0.244879 0.188075 0.119172 0.0457015 -0.0186704 0.276067 0.644802 0.738844 0.676876
          0.535036 0.350018 0.1468 -0.0333657 0.279825 0.738844 0.958362 0.951347 0.795798 0.553011 0.267066 0.0014723
          0.244879 0.676876 0.951347 1.02608 0.925178 0.697408 0.391748 0.0757681 0.188075 0.535036 0.795798 0.925178
          0.906034 0.749354 0.483548 0.155017 0.119172 0.350018 0.553011 0.697408 0.749354 0.685392 0.500228 0.203568
          0.0457015 0.1468 0.267066 0.391748 0.483548 0.500228 0.411616 0.196857 -0.0186704 -0.0333657 0.0014723 0.0757681
          0.155017 0.203568 0.196857 0.113592
        </DataArray>
        <DataArray type="Float32" Name="velocity" NumberOfComponents="3" format="ascii">
          -0.939713 -0.939713 0 -0.0349131 -3.31549 0 0.00491799 -3.91811 0 0.00769967 -3.61336 0
          0.00662874 -2.8572 0 0.0052328 -1.8614 0 0.00379149 -0.765481 0 0.000586072 0.207224 0
          -3.31549 -0.0349131 0 -0.926479 -0.926479 0 -0.0340556 -1.99642 0 0.12719 -2.38781 0
          0.13192 -2.18805 0 0.108957 -1.61534 0 0.0789943 -0.840733 0 0.0178877 -0.0774749 0
          -3.91811 0.00491799 0 -1.99642 -0.0340556 0 -0.425431 -0.425431 0 0.220112 -0.925378 0
          0.377005 -1.19288 0 0.363898 -1.15186 0 0.28622 -0.853655 0 0.108382 -0.392925 0
          -3.61336 0.00769967 0 -2.38781 0.12719 0 -0.925378 0.220112 0 0.0523886 0.0523886 0
          0.496349 -0.27491 0 0.616533 -0.559225 0 0.560833 -0.671487 0 0.335963 -0.504454 0
          -2.8572 0.00662874 0 -2.18805 0.13192 0 -1.19288 0.377005 0 -0.27491 0.496349 0
          0.352001 0.352001 0 0.678664 0.0288108 0 0.771867 -0.293473 0 0.678006 -0.376017 0
          -1.8614 0.0052328 0 -1.61534 0.108957 0 -1.15186 0.363898 0 -0.559225 0.616533 0
          0.0288108 0.678664 0 0.498749 0.498749 0 0.80527 0.167795 0 0.986332 -0.108892 0
          -0.765481 0.00379149 0 -0.840733 0.0789943 0 -0.853655 0.28622 0 -0.671487 0.560833 0
          -0.293473 0.771867 0 0.167795 0.80527 0 0.607349 0.607349 0 1.04537 0.205684 0
          0.207224 0.000586072 0 -0.0774749 0.0178877 0 -0.392925 0.108382 0 -0.504454 0.335963 0
          -0.376017 0.678006 0 -0.108892 0.986332 0 0.205684 1.04537 0 0.621519 0.621519 0
        </DataArray>
      </CellData>
      <Points>
        <DataArray type="Float32" Name="Coordinates" NumberOfComponents="3" format="ascii">
          0 0 0 0.125 0 0 0 0.125 0 0.125 0.125 0
          0.25 0 0 0.25 0.125 0 0.375 0 0 0.375 0.125 0
          0.5 0 0 0.5 0.125 0 0.625 0 0 0.625 0.125 0
          0.75 0 0 0.75 0.125 0 0.875 0 0 0.875 0.125 0
          1 0 0 1 0.125 0 0 0.25 0 0.125 0.25 0
          0.25 0.25 0 0.375 0.25 0 0.5 0.25 0 0.625 0.25 0
          0.75 0.25 0 0.875 0.25 0 1 0.25 0 0 0.375 0
          0.125 0.375 0 0.25 0.375 0 0.375 0.375 0 0.5 0.375 0
          0.625 0.375 0 0.75 0.375 0 0.875 0.375 0 1 0.375 0
          0 0.5 0 0.125 0.5 0 0.25 0.5 0 0.375 0.5 0
          0.5 0.5 0 0.625 0.5 0 0.75 0.5 0 0.875 0.5 0
          1 0.5 0 0 0.625 0 0.125 0.625 0 0.25 0.625 0
          0.375 0.625 0 0.5 0.625 0 0.625 0.625 0 0.75 0.625 0
          0.875 0.625 0 1 0.625 0 0 0.75 0 0.125 0.75 0
          0.25 0.75 0 0.375 0.75 0 0.5 0.75 0 0.625 0.75 0
          0.75 0.75 0 0.875 0.75 0 1 0.75 0 0 0.875 0
          0.125 0.875 0 0.25 0.875 0 0.375 0.875 0 0.5 0.875 0
          0.625 0.875 0 0.75 0.875 0 0.875 0.875 0 1 0.875 0
          0 1 0 0.125 1 0 0.25 1 0 0.375 1 0
          0.5 1 0 0.625 1 0 0.75 1 0 0.875 1 0
          1 1 0
        </DataArray>
      </Points>
      <Cells>
        <DataArray type="Int32" Name="connectivity" NumberOfComponents="1" format="ascii">
          0 1 3 2 1 4 5 3 4 6 7 5
          6 8 9 7 8 10 11 9 10 12 13 11
          12 14 15 13 14 16 17 15 2 3 19 18
          3 5 20 19 5 7 21 20 7 9 22 21
          9 11 23 22 11 13 24 23 13 15 25 24
          15 17 26 25 18 19 28 27 19 20 29 28
          20 21 30 29 21 22 31 30 22 23 32 31
          23 24 33 32 24 25 34 33 25 26 35 34
          27 28 37 36 28 29 38 37 29 30 39 38
          30 31 40 39 31 32 41 40 32 33 42 41
          33 34 43 42 34 35 44 43 36 37 46 45
          37 38 47 46 38 39 48 47 39 40 49 48
          40 41 50 49 41 42 51 50 42 43 52 51
          43 44 53 52 45 46 55 54 46 47 56 55
          47 48 57 56 48 49 58 57 49 50 59 58
          50 51 60 59 51 52 61 60 52 53 62 61
          54 55 64 63 55 56 65 64 56 57 66 65
          57 58 67 66 58 59 68 67 59 60 69 68
          60 61 70 69 61 62 71 70 63 64 73 72
          64 65 74 73 65 66 75 74 66 67 76 75
          67 68 77 76 68 69 78 77 69 70 79 78
          70 71 80 79
        </DataArray>
        <DataArray type="Int32" Name="offsets" NumberOfComponents="1" format="ascii">
          4 8 12 16 20 24 28 32 36 40 44 48
          52 56 60 64 68 72 76 80 84 88 92 96
          100 104 108 112 116 120 124 128 132 136 140 144
          148 152 156 160 164 168 172 176 180 184 188 192
          196 200 204 208 212 216 220 224 228 232 236 240
          244 248 252 256
        </DataArray>
        <DataArray type="UInt8" Name="types" NumberOfComponents="1" format="ascii">
          9 9 9 9 9 9 9 9 9 9 9 9
          9 9 9 9 9 9 9 9 9 9 9 9
          9 9 9 9 9 9 9 9 9 9 9 9
          9 9 9 9 9 9 9 9 9 9 9 9
          9 9 9 9 9 9 9 9 9 9 9 9
          9 9 9 9
        </DataArray>
      </Cells>
    </Piece>
  </UnstructuredGrid>
</VTKFile>
