<?xml version="1.0"?>
<VTKFile type="UnstructuredGrid" version="0.1" byte_order="LittleEndian">
  <UnstructuredGrid>
    <Piece NumberOfCells="64" NumberOfPoints="81">
      <CellData Scalars="pressure" Vectors="velocity">
        <DataArray type="Float32" Name="pressure" NumberOfComponents="1" format="ascii">
          0.134323 0.183052 0.203147 0.19449 0.161069 0.109222 0.0462204 -0.0147278 0.183052 0.395195 0.512464 0.526295
          0.45381 0.319656 0.147713 -0.0222035 0.203147 0.512464 0.702329 0.758698 0.686768 0.512331 0.269591 0.0171451
          0.19449 0.526295 0.758698 0.86232 0.826021 0.661429 0.398211 0.0935879 0.161069 0.45381 0.686768 0.826021
          0.844359 0.731349 0.496948 0.174174 0.109222 0.319656 0.512331 0.661429 0.731349 0.690355 0.521748 0.223249
          0.0462204 0.147713 0.269591 0.398211 0.496948 0.521748 0.437118 0.21426 -0.0147278 -0.0222035 0.0171451 0.0935879
          0.174174 0.223249 0.21426 0.122997
        </DataArray>
        <DataArray type="Float32" Name="velocity" NumberOfComponents="3" format="ascii">
          -0.635385 -0.635385 0 -0.105666 -2.08192 0 -0.00674492 -2.75246 0 0.00416985 -2.82553 0
          0.00553863 -2.42955 0 0.00504952 -1.70147 0 0.00399201 -0.771175 0 0.00103779 0.147072 0
          -2.08192 -0.105666 0 -0.99857 -0.99857 0 -0.249458 -1.74836 0 0.0305497 -2.08621 0
          0.0993801 -1.99544 0 0.1024 -1.55224 0 0.0832657 -0.866472 0 0.0280078 -0.121576 0
          -2.75246 -0.00674492 0 -1.74836 -0.249458 0 -0.67148 -0.67148 0 -0.0154582 -1.0601 0
          0.26249 -1.26451 0 0.332161 -1.21177 0 0.298072 -0.911135 0 0.144846 -0.426571 0
          -2.82553 0.00416985 0 -2.08621 0.0305497 0 -1.0601 -0.0154582 0 -0.201927 -0.201927 0
          0.321234 -0.471503 0 0.552789 -0.693519 0 0.57905 -0.754513 0 0.409333 -0.53998 0
          -2.42955 0.00553863 0 -1.99544 0.0993801 0 -1.26451 0.26249 0 -0.471503 0.321234 0
          0.180515 0.180515 0 0.602776 -0.100857 0 0.79572 -0.373355 0 0.789052 -0.409145 0
          -1.70147 0.00504952 0 -1.55224 0.1024 0 -1.21177 0.332161 0 -0.693519 0.552789 0
          -0.100857 0.602776 0 0.435841 0.435841 0 0.836432 0.130326 0 1.12462 -0.120997 0
          -0.771175 0.00399201 0 -0.866472 0.0832657 0 -0.911135 0.298072 0 -0.754513 0.57905 0
          -0.373355 0.79572 0 0.130326 0.836432 0 0.643578 0.643578 0 1.18237 0.232018 0
          0.147072 0.00103779 0 -0.121576 0.0280078 0 -0.426571 0.144846 0 -0.53998 0.409333 0
          -0.409145 0.789052 0 -0.120997 1.12462 0 0.232018 1.18237 0 0.701106 0.701106 0
        </DataArray>
      </CellData>
      <Points>
        <DataArray type="Float32" Name="Coordinates" NumberOfComponents="3" format="ascii">
          0 0 0 0.125 0 0 0 0.125 0 0.125 0.125 0
          0.25 0 0 0.25 0.125 0 0.375 0 0 0.375 0.125 0
          0.5 0 0 0.5 0.125 0 0.625 0 0 0.625 0.125 0
          0.75 0 0 0.75 0.125 0 0.875 0 0 0.875 0.125 0
          1 0 0 1 0.125 0 0 0.25 0 0.125 0.25 0
          0.25 0.25 0 0.375 0.25 0 0.5 0.25 0 0.625 0.25 0
          0.75 0.25 0 0.875 0.25 0 1 0.25 0 0 0.375 0
          0.125 0.375 0 0.25 0.375 0 0.375 0.375 0 0.5 0.375 0
          0.625 0.375 0 0.75 0.375 0 0.875 0.375 0 1 0.375 0
          0 0.5 0 0.125 0.5 0 0.25 0.5 0 0.375 0.5 0
          0.5 0.5 0 0.625 0.5 0 0.75 0.5 0 0.875 0.5 0
          1 0.5 0 0 0.625 0 0.125 0.625 0 0.25 0.625 0
          0.375 0.625 0 0.5 0.625 0 0.625 0.625 0 0.75 0.625 0
          0.875 0.625 0 1 0.625 0 0 0.75 0 0.125 0.75 0
          0.25 0.75 0 0.375 0.75 0 0.5 0.75 0 0.625 0.75 0
          0.75 0.75 0 0.875 0.75 0 1 0.75 0 0 0.875 0
          0.125 0.875 0 0.25 0.875 0 0.375 0.875 0 0.5 0.875 0
          0.625 0.875 0 0.75 0.875 0 0.875 0.875 0 1 0.875 0
          0 1 0 0.125 1 0 0.25 1 0 0.375 1 0
          0.5 1 0 0.625 1 0 0.75 1 0 0.875 1 0
          1 1 0
        </DataArray>
      </Points>
      <Cells>
        <DataArray type="Int32" Name="connectivity" NumberOfComponents="1" format="ascii">
          0 1 3 2 1 4 5 3 4 6 7 5
          6 8 9 7 8 10 11 9 10 12 13 11
          12 14 15 13 14 16 17 15 2 3 19 18
          3 5 20 19 5 7 21 20 7 9 22 21
          9 11 23 22 11 13 24 23 13 15 25 24
          15 17 26 25 18 19 28 27 19 20 29 28
          20 21 30 29 21 22 31 30 22 23 32 31
          23 24 33 32 24 25 34 33 25 26 35 34
          27 28 37 36 28 29 38 37 29 30 39 38
          30 31 40 39 31 32 41 40 32 33 42 41
          33 34 43 42 34 35 44 43 36 37 46 45
          37 38 47 46 38 39 48 47 39 40 49 48
          40 41 50 49 41 42 51 50 42 43 52 51
          43 44 53 52 45 46 55 54 46 47 56 55
          47 48 57 56 48 49 58 57 49 50 59 58
          50 51 60 59 51 52 61 60 52 53 62 61
          54 55 64 63 55 56 65 64 56 57 66 65
          57 58 67 66 58 59 68 67 59 60 69 68
          60 61 70 69 61 62 71 70 63 64 73 72
          64 65 74 73 65 66 75 74 66 67 76 75
          67 68 77 76 68 69 78 77 69 70 79 78
          70 71 80 79
        </DataArray>
        <DataArray type="Int32" Name="offsets" NumberOfComponents="1" format="ascii">
          4 8 12 16 20 24 28 32 36 40 44 48
          52 56 60 64 68 72 76 80 84 88 92 96
          100 104 108 112 116 120 124 128 132 136 140 144
          148 152 156 160 164 168 172 176 180 184 188 192
          196 200 204 208 212 216 220 224 228 232 236 240
          244 248 252 256
        </DataArray>
        <DataArray type="UInt8" Name="types" NumberOfComponents="1" format="ascii">
          9 9 9 9 9 9 9 9 9 9 9 9
          9 9 9 9 9 9 9 9 9 9 9 9
          9 9 9 9 9 9 9 9 9 9 9 9
          9 9 9 9 9 9 9 9 9 9 9 9
          9 9 9 9 9 9 9 9 9 9 9 9
          9 9 9 9
        </DataArray>
      </Cells>
    </Piece>
  </UnstructuredGrid>
</VTKFile>
